INSANE! Membrane UpperLeaflet>loPI:POPI:DPPI:PYPI:ERGO=180.0:5.0:3.0:2.0:10.0 LowerLeaflet>PSPI:POPI:POPS:YOPS:POPE:YOPE:POPC:YOPC:ERGO=6.0:14.0:21.0:9.0:9.0:21.0:12.0:48.0:60.0
49348
    1loPI    C1    1  15.324  17.383  10.829 -0.0128  0.0153  0.0877
    1loPI    C2    2  15.608  17.658  10.891  0.0368 -0.0766  0.2742
    1loPI    C3    3  15.434  17.475  11.202 -0.0954 -0.1553  0.1552
    1loPI   PO4    4  15.163  17.509  10.614 -0.4507 -0.0500  0.2154
    1loPI   GL1    5  14.828  17.587  10.242  0.2891 -0.1421 -0.2006
    1loPI   GL2    6  15.097  17.791  10.134 -0.0602 -0.0832  0.0291
    1loPI   C1A    7  14.741  17.391   9.951 -0.0721 -0.2563  0.2726
    1loPI   C2A    8  14.690  17.390   9.512  0.0310  0.2222  0.1951
    1loPI   C3A    9  14.717  17.239   9.093 -0.4056 -0.0973  0.2200
    1loPI   C4A   10  14.585  17.194   8.761 -0.0677  0.1253  0.0930
    1loPI   C5A   11  14.694  17.027   8.311 -0.1109  0.4013 -0.0614
    1loPI   C6A   12  14.860  16.980   7.876 -0.2167 -0.0245  0.2774
    1loPI   C1B   13  15.065  17.787   9.686  0.1516  0.2076 -0.2458
    1loPI   C2B   14  14.987  17.801   9.329  0.3633 -0.1914 -0.1682
    1loPI   C3B   15  14.927  17.661   8.931  0.0401  0.0557  0.3432
    1loPI   C4B   16  14.911  17.506   8.495 -0.2842 -0.0197  0.4354
    2loPI    C1   17  12.583  15.941  11.046 -0.0797  0.1763  0.1118
    2loPI    C2   18  12.353  15.674  11.234 -0.0332  0.0034 -0.0728
    2loPI    C3   19  12.723  15.574  11.122  0.0277  0.1855 -0.0378
    2loPI   PO4   20  12.460  16.032  10.851  0.0389  0.0584 -0.3820
    2loPI   GL1   21  12.251  16.034  10.539 -0.0147 -0.1633  0.1598
    2loPI   GL2   22  12.414  16.158  10.298 -0.1018 -0.0922  0.1206
    2loPI   C1A   23  12.044  15.864  10.195  0.1050  0.0450  0.1917
    2loPI   C2A   24  12.034  15.762   9.853  0.1309 -0.0480  0.1716
    2loPI   C3A   25  12.012  15.650   9.486  0.3936 -0.0242  0.3072
    2loPI   C4A   26  11.991  15.734   9.104  0.2085 -0.0139  0.0370
    2loPI   C5A   27  11.849  15.767   8.648  0.2930  0.0925  0.0625
    2loPI   C6A   28  11.710  15.713   8.205 -0.0142  0.1039  0.3050
    2loPI   C1B   29  12.185  16.232   9.805 -0.1996  0.0225 -0.3079
    2loPI   C2B   30  12.194  16.226   9.368  0.0188 -0.2846  0.1977
    2loPI   C3B   31  12.150  16.190   8.905 -0.1047  0.0205 -0.1036
    2loPI   C4B   32  12.223  15.973   8.388  0.0122 -0.1650 -0.1001
    3loPI    C1   33   6.542  13.228  11.114  0.1596 -0.1264 -0.0501
    3loPI    C2   34   6.156  13.124  11.127  0.0625  0.2285  0.0190
    3loPI    C3   35   6.404  13.009  11.419 -0.0271  0.1408  0.0612
    3loPI   PO4   36   6.606  13.177  10.879 -0.0355  0.1994 -0.0235
    3loPI   GL1   37   6.950  13.398  10.564 -0.1885  0.3432  0.0352
    3loPI   GL2   38   7.067  13.203  10.491  0.2153  0.1711 -0.5001
    3loPI   C1A   39   6.844  13.482  10.153  0.2076 -0.4043 -0.0945
    3loPI   C2A   40   6.874  13.551   9.713  0.0642 -0.1643  0.0948
    3loPI   C3A   41   6.816  13.514   9.270 -0.1873  0.0982 -0.0328
    3loPI   C4A   42   6.827  13.484   8.819  0.4181 -0.0557 -0.1627
    3loPI   C5A   43   6.953  13.319   8.440 -0.1437 -0.0766  0.0828
    3loPI   C6A   44   6.781  13.578   8.066 -0.2462 -0.1295  0.1669
    3loPI   C1B   45   7.204  13.045  10.091  0.0914 -0.0110 -0.2518
    3loPI   C2B   46   7.122  13.148   9.622 -0.1240  0.0450 -0.0167
    3loPI   C3B   47   7.048  13.058   9.146 -0.2866  0.1289  0.0735
    3loPI   C4B   48   7.206  13.016   8.745  0.0886 -0.1041 -0.4575
    4loPI    C1   49   1.004   5.006   9.904  0.2147 -0.0294 -0.1130
    4loPI    C2   50   0.917   5.234  10.221 -0.1601 -0.0546 -0.1940
    4loPI    C3   51   1.129   5.386   9.918  0.0613  0.0179 -0.0057
    4loPI   PO4   52   0.802   4.831   9.897 -0.3418  0.3102 -0.1651
    4loPI   GL1   53   0.594   4.769   9.478  0.2267 -0.1993 -0.0190
    4loPI   GL2   54   0.719   5.039   9.172  0.1884  0.0297 -0.2185
    4loPI   C1A   55   0.761   4.578   9.147 -0.1561 -0.1031 -0.0250
    4loPI   C2A   56   0.851   4.557   8.679 -0.0729 -0.0296  0.2193
    4loPI   C3A   57   0.796   4.509   8.226 -0.0022  0.4820 -0.0776
    4loPI   C4A   58   0.841   4.366   7.905 -0.1305  0.0402  0.4332
    4loPI   C5A   59   0.937   4.262   7.563  0.0596 -0.2962  0.2101
    4loPI   C6A   60   1.004   4.411   7.227 -0.0617 -0.0765 -0.0248
    4loPI   C1B   61   0.728   4.998   8.773 -0.0621 -0.2129  0.0313
    4loPI   C2B   62   0.876   4.979   8.406  0.2867  0.0935  0.0690
    4loPI   C3B   63   0.823   4.955   7.967  0.0800 -0.3634 -0.0704
    4loPI   C4B   64   0.796   4.816   7.520 -0.1407 -0.0272 -0.0373
    5loPI    C1   65  10.546  12.400  11.386  0.0275  0.0598 -0.1167
    5loPI    C2   66  10.422  12.735  11.568  0.0711  0.1180 -0.1931
    5loPI    C3   67  10.177  12.420  11.540  0.1691 -0.0047  0.2422
    5loPI   PO4   68  10.563  12.431  11.093 -0.0480 -0.0925 -0.2333
    5loPI   GL1   69  10.356  12.481  10.699  0.0774  0.3428 -0.0709
    5loPI   GL2   70  10.360  12.372  10.489 -0.0448 -0.1412 -0.0271
    5loPI   C1A   71  10.063  12.831  10.496 -0.1416  0.7244 -0.0226
    5loPI   C2A   72  10.057  12.909  10.007 -0.1780 -0.0748 -0.3156
    5loPI   C3A   73  10.001  12.842   9.588 -0.1590 -0.2159  0.0038
    5loPI   C4A   74  10.044  12.922   9.111 -0.4293 -0.0471  0.3156
    5loPI   C5A   75  10.074  13.056   8.591 -0.4532 -0.0450 -0.0966
    5loPI   C6A   76  10.054  13.411   8.427 -0.1894  0.1461 -0.0398
    5loPI   C1B   77  10.346  12.427   9.969  0.3009 -0.0677  0.2839
    5loPI   C2B   78  10.300  12.487   9.538 -0.3060  0.2251 -0.2400
    5loPI   C3B   79  10.354  12.430   9.103 -0.3861 -0.0112 -0.0547
    5loPI   C4B   80  10.381  12.309   8.737  0.1421 -0.0441 -0.1033
    6loPI    C1   81   7.590   4.350  11.070  0.1028 -0.3682  0.0857
    6loPI    C2   82   7.550   4.545  11.416 -0.1074 -0.4120  0.0878
    6loPI    C3   83   7.824   4.256  11.380  0.1228 -0.2013  0.1216
    6loPI   PO4   84   7.597   4.616  10.893 -0.3928  0.2842 -0.0054
    6loPI   GL1   85   7.853   4.486  10.550  0.4311 -0.1925 -0.1778
    6loPI   GL2   86   8.092   4.601  10.524 -0.0718 -0.0896  0.0593
    6loPI   C1A   87   7.694   4.540  10.133 -0.1575 -0.1609  0.1526
    6loPI   C2A   88   7.641   4.587   9.750 -0.1614 -0.0140 -0.1929
    6loPI   C3A   89   7.563   4.522   9.351 -0.1790  0.1177 -0.0984
    6loPI   C4A   90   7.678   4.534   8.895 -0.1622  0.0810  0.0932
    6loPI   C5A   91   7.732   4.576   8.438 -0.0891 -0.3173 -0.3488
    6loPI   C6A   92   7.694   4.584   8.004 -0.2613 -0.3163 -0.1291
    6loPI   C1B   93   8.181   4.521  10.036  0.1078  0.0428  0.0426
    6loPI   C2B   94   8.100   4.596   9.658 -0.0714  0.0197 -0.0092
    6loPI   C3B   95   8.108   4.606   9.198  0.2695  0.0309 -0.0331
    6loPI   C4B   96   8.120   4.644   8.761 -0.3775 -0.0472 -0.1064
    7loPI    C1   97   3.597  13.765  11.490 -0.2751  0.2626  0.0839
    7loPI    C2   98   3.822  14.076  11.601  0.0279  0.0043  0.2117
    7loPI    C3   99   3.928  13.706  11.707 -0.2108 -0.1639 -0.1196
    7loPI   PO4  100   3.569  13.824  11.222 -0.2642 -0.1879 -0.0858
    7loPI   GL1  101   3.422  14.081  10.850  0.1046  0.0078  0.1710
    7loPI   GL2  102   3.194  13.882  10.724  0.2462 -0.1102 -0.0541
    7loPI   C1A  103   3.579  14.038  10.491  0.0374 -0.1496 -0.0565
    7loPI   C2A  104   3.605  14.081  10.091 -0.0233  0.2519 -0.0953
    7loPI   C3A  105   3.705  14.156   9.712 -0.0035  0.1801 -0.0241
    7loPI   C4A  106   3.607  14.273   9.306  0.1512 -0.0191 -0.1630
    7loPI   C5A  107   3.631  14.293   8.869 -0.1037  0.0988 -0.0983
    7loPI   C6A  108   3.646  14.081   8.428  0.1462  0.1719 -0.2221
    7loPI   C1B  109   3.344  13.660  10.363  0.1704 -0.1091 -0.4089
    7loPI   C2B  110   3.393  13.621   9.959 -0.1898 -0.2439  0.2109
    7loPI   C3B  111   3.495  13.696   9.575  0.0297  0.3501  0.0891
    7loPI   C4B  112   3.370  13.874   9.187  0.1321  0.1845 -0.1013
    8loPI    C1  113   9.635   7.786  11.313  0.0951 -0.1508  0.0801
    8loPI    C2  114   9.931   8.055  11.312  0.0148 -0.0621  0.0462
    8loPI    C3  115   9.563   8.163  11.426 -0.0625 -0.1080 -0.1558
    8loPI   PO4  116   9.631   7.651  11.014 -0.0739  0.1638 -0.1140
    8loPI   GL1  117   9.865   7.879  10.698 -0.1007  0.1143  0.1390
    8loPI   GL2  118  10.085   7.996  10.488  0.1109  0.1419 -0.0023
    8loPI   C1A  119   9.598   7.637  10.402 -0.3115 -0.2318 -0.1372
    8loPI   C2A  120   9.434   7.416   9.992 -0.1707  0.0489  0.1268
    8loPI   C3A  121   9.442   7.357   9.504 -0.3976  0.0829 -0.2914
    8loPI   C4A  122   9.380   7.329   9.148  0.3085  0.1097  0.2472
    8loPI   C5A  123   9.445   7.276   8.695 -0.0966 -0.2399  0.0376
    8loPI   C6A  124   9.330   7.436   8.373  0.2522 -0.2077 -0.2632
    8loPI   C1B  125  10.314   7.886  10.117  0.1843 -0.0788 -0.3869
    8loPI   C2B  126  10.263   7.793   9.733 -0.0699 -0.4945 -0.1037
    8loPI   C3B  127  10.197   7.818   9.294 -0.1907  0.1199 -0.2137
    8loPI   C4B  128  10.252   7.825   8.935 -0.0495  0.3200 -0.0611
    9loPI    C1  129  17.390  16.402  10.938 -0.1274 -0.0276  0.1109
    9loPI    C2  130  17.474  16.752  11.113  0.1916  0.2211 -0.5087
    9loPI    C3  131  17.690  16.427  11.200 -0.0682  0.1816  0.0255
    9loPI   PO4  132  17.439  16.423  10.681 -0.0031 -0.0226 -0.2762
    9loPI   GL1  133  17.625  16.244  10.272 -0.0874 -0.6389 -0.0163
    9loPI   GL2  134  17.811  16.584  10.161 -0.3173  0.2778 -0.0362
    9loPI   C1A  135  17.641  16.168   9.820 -0.1818 -0.0799 -0.0483
    9loPI   C2A  136  17.665  16.101   9.356  0.2939 -0.1531  0.1405
    9loPI   C3A  137  17.746  16.046   8.934 -0.1671  0.2212  0.0720
    9loPI   C4A  138  17.805  16.034   8.479 -0.0988  0.0754  0.2348
    9loPI   C5A  139  17.705  15.723   8.155  0.2649 -0.1722 -0.2791
    9loPI   C6A  140  18.027  15.554   7.894 -0.1231  0.0249 -0.0505
    9loPI   C1B  141  17.921  16.667   9.709 -0.0366 -0.1313  0.3318
    9loPI   C2B  142  17.898  16.579   9.157 -0.0999 -0.1455 -0.0430
    9loPI   C3B  143  17.959  16.505   8.748  0.1678 -0.3707 -0.1119
    9loPI   C4B  144  18.060  16.483   8.328 -0.3302 -0.0758  0.1596
   10loPI    C1  145  17.313   3.301   9.837 -0.2778 -0.0394 -0.2794
   10loPI    C2  146  17.463   3.562  10.100  0.1621 -0.4164 -0.1422
   10loPI    C3  147  17.102   3.401  10.162  0.0512 -0.1334 -0.0319
   10loPI   PO4  148  17.447   3.385   9.573 -0.1574  0.2037  0.2407
   10loPI   GL1  149  17.598   3.044   9.360  0.0272  0.0507  0.1347
   10loPI   GL2  150  17.670   3.317   9.133  0.1819 -0.0671  0.0718
   10loPI   C1A  151  17.788   2.714   9.237 -0.3863 -0.1433 -0.2837
   10loPI   C2A  152  17.821   2.500   8.891 -0.1598  0.1150  0.3631
   10loPI   C3A  153  17.882   2.390   8.495  0.4501 -0.3215  0.3897
   10loPI   C4A  154  17.800   2.280   8.051  0.0609 -0.0853 -0.2957
   10loPI   C5A  155  17.929   2.094   7.718  0.0004 -0.0008 -0.3197
   10loPI   C6A  156  18.278   2.221   7.357  0.1230  0.2215 -0.2201
   10loPI   C1B  157  17.540   3.020   8.843  0.2300 -0.1587  0.2232
   10loPI   C2B  158  17.488   2.865   8.504 -0.1204  0.0497  0.1966
   10loPI   C3B  159  17.695   2.768   8.167 -0.1001  0.1940 -0.4074
   10loPI   C4B  160  17.588   2.683   7.810  0.2995 -0.0322  0.3848
   11loPI    C1  161  14.434   9.298  10.592  0.0830  0.1661  0.0598
   11loPI    C2  162  14.286   9.315  10.963 -0.0630  0.0504  0.0082
   11loPI    C3  163  14.668   9.210  10.904 -0.2008 -0.5305  0.0945
   11loPI   PO4  164  14.477   9.543  10.474  0.4283  0.1689  0.0089
   11loPI   GL1  165  14.314   9.818  10.226 -0.0604  0.0402  0.0322
   11loPI   GL2  166  14.258  10.143  10.327 -0.1572 -0.0209 -0.0537
   11loPI   C1A  167  14.340   9.660   9.863  0.0962 -0.0042  0.1254
   11loPI   C2A  168  14.358   9.736   9.437  0.1606  0.3013  0.0217
   11loPI   C3A  169  14.341   9.909   9.022 -0.1350  0.2116 -0.0976
   11loPI   C4A  170  14.365   9.915   8.588 -0.1392 -0.1146  0.0579
   11loPI   C5A  171  14.490   9.763   8.180  0.3466 -0.2836 -0.0700
   11loPI   C6A  172  14.847   9.590   7.921  0.0930 -0.2297 -0.2996
   11loPI   C1B  173  14.456  10.133   9.802  0.2862  0.1307 -0.0806
   11loPI   C2B  174  14.499  10.265   9.421 -0.1251 -0.1908  0.2492
   11loPI   C3B  175  14.524  10.348   8.980 -0.0406 -0.2539  0.0986
   11loPI   C4B  176  14.593  10.345   8.536  0.0017  0.2056  0.2896
   12loPI    C1  177  16.886   6.011   9.864  0.0988  0.0780  0.0501
   12loPI    C2  178  17.134   5.855  10.136  0.1777  0.0247 -0.0516
   12loPI    C3  179  17.008   6.233  10.173  0.1196 -0.0093  0.1050
   12loPI   PO4  180  17.012   5.955   9.615  0.1927 -0.2588  0.0465
   12loPI   GL1  181  16.931   6.012   9.235 -0.2474  0.1497 -0.0497
   12loPI   GL2  182  17.319   6.002   9.266  0.0979  0.3945 -0.1257
   12loPI   C1A  183  16.760   6.060   8.778  0.1209  0.1154  0.1705
   12loPI   C2A  184  16.626   6.265   8.341 -0.0729  0.0354 -0.3545
   12loPI   C3A  185  16.787   6.529   8.193  0.1254 -0.1693  0.0515
   12loPI   C4A  186  16.988   6.798   7.998 -0.0639  0.0635  0.1527
   12loPI   C5A  187  17.416   6.736   7.730  0.0244  0.0307  0.0562
   12loPI   C6A  188  17.674   6.967   7.506  0.3241 -0.1909  0.2099
   12loPI   C1B  189  17.264   6.066   8.863 -0.0708 -0.0903  0.0711
   12loPI   C2B  190  17.154   5.974   8.443 -0.0713  0.2630  0.1597
   12loPI   C3B  191  16.839   5.884   8.032  0.1366  0.0224 -0.2763
   12loPI   C4B  192  16.778   6.023   7.627 -0.0095 -0.1307  0.0856
   13loPI    C1  193  10.196   5.525  11.271  0.1857  0.1871 -0.0796
   13loPI    C2  194  10.453   5.409  11.554 -0.2551 -0.2046  0.1756
   13loPI    C3  195  10.060   5.403  11.627 -0.3620  0.0062 -0.3398
   13loPI   PO4  196  10.206   5.300  11.017 -0.1725  0.0347  0.0898
   13loPI   GL1  197  10.284   5.175  10.552 -0.1572 -0.0627 -0.2079
   13loPI   GL2  198  10.271   4.821  10.538 -0.1323  0.3190 -0.2139
   13loPI   C1A  199  10.449   5.173  10.102 -0.0914  0.1637 -0.0474
   13loPI   C2A  200  10.450   5.097   9.659  0.1405 -0.0420  0.0803
   13loPI   C3A  201  10.530   5.125   9.263 -0.0323 -0.0270  0.3030
   13loPI   C4A  202  10.387   5.177   8.866 -0.0145 -0.2550 -0.2328
   13loPI   C5A  203  10.562   4.865   8.491 -0.0605 -0.2241  0.0404
   13loPI   C6A  204  10.598   4.590   8.074  0.0320  0.1488  0.1816
   13loPI   C1B  205  10.290   4.704  10.050 -0.0054  0.0772  0.2821
   13loPI   C2B  206  10.202   4.664   9.592  0.2910 -0.0211  0.0200
   13loPI   C3B  207  10.208   4.714   9.181 -0.0454 -0.0076  0.0310
   13loPI   C4B  208  10.127   4.802   8.768 -0.0174 -0.0831 -0.0791
   14loPI    C1  209   5.138  16.986  10.887 -0.0473  0.2533 -0.2601
   14loPI    C2  210   5.109  16.912  11.279 -0.1122  0.0736 -0.2980
   14loPI    C3  211   4.992  17.266  11.133 -0.4864 -0.0101 -0.2111
   14loPI   PO4  212   5.439  16.906  10.837 -0.0133  0.1133 -0.0375
   14loPI   GL1  213   5.785  16.907  10.601 -0.0586 -0.0941 -0.1323
   14loPI   GL2  214   5.815  16.646  10.567 -0.0633  0.1257  0.1642
   14loPI   C1A  215   5.584  17.161  10.235  0.3238 -0.1538 -0.2168
   14loPI   C2A  216   5.533  17.070   9.838  0.0448 -0.2869 -0.0467
   14loPI   C3A  217   5.512  17.037   9.360 -0.1448  0.0734  0.0119
   14loPI   C4A  218   5.564  17.079   8.948  0.0140 -0.0730  0.1752
   14loPI   C5A  219   5.509  17.130   8.508 -0.0218 -0.1297 -0.1531
   14loPI   C6A  220   5.349  16.947   8.066  0.0293 -0.0100 -0.0082
   14loPI   C1B  221   5.849  16.703  10.129  0.0866 -0.0494  0.1015
   14loPI   C2B  222   5.773  16.652   9.647 -0.3760  0.0163  0.0448
   14loPI   C3B  223   5.862  16.596   9.284  0.2404 -0.0822 -0.3923
   14loPI   C4B  224   5.784  16.584   8.807  0.3016 -0.0563 -0.2265
   15loPI    C1  225   9.568  12.508  11.300  0.0828 -0.4598 -0.0659
   15loPI    C2  226   9.808  12.748  11.512 -0.0673 -0.1055 -0.2890
   15loPI    C3  227   9.641  12.429  11.685  0.3093 -0.1780 -0.0474
   15loPI   PO4  228   9.759  12.449  11.120  0.1801  0.1427  0.2584
   15loPI   GL1  229   9.839  12.436  10.707 -0.3777  0.0721 -0.3696
   15loPI   GL2  230   9.783  12.241  10.582  0.1057 -0.0668 -0.0298
   15loPI   C1A  231   9.546  12.703  10.439  0.2218 -0.1301  0.1329
   15loPI   C2A  232   9.554  12.753  10.003  0.0345 -0.0732 -0.0439
   15loPI   C3A  233   9.496  12.882   9.606  0.0175 -0.1158  0.0100
   15loPI   C4A  234   9.523  12.871   9.230 -0.4004  0.2098  0.1587
   15loPI   C5A  235   9.469  12.798   8.755  0.2600  0.4299  0.1553
   15loPI   C6A  236   9.098  12.763   8.373 -0.1730 -0.3333 -0.1007
   15loPI   C1B  237   9.896  12.387  10.145  0.0280  0.1181  0.0282
   15loPI   C2B  238   9.861  12.332   9.676 -0.4035  0.2817 -0.2005
   15loPI   C3B  239   9.873  12.423   9.214  0.3748  0.0021 -0.1812
   15loPI   C4B  240   9.799  12.360   8.744  0.0065  0.1210 -0.2692
   16loPI    C1  241   5.251  10.410  11.327 -0.0285 -0.0006 -0.0285
   16loPI    C2  242   5.586  10.350  11.539  0.1673 -0.0686 -0.3498
   16loPI    C3  243   5.391  10.699  11.566  0.0473 -0.1657  0.1293
   16loPI   PO4  244   5.387  10.394  11.094 -0.0724  0.1331 -0.0832
   16loPI   GL1  245   5.377  10.528  10.700 -0.1488  0.3197  0.2914
   16loPI   GL2  246   5.590  10.773  10.633 -0.0183  0.0125  0.1702
   16loPI   C1A  247   5.709  10.370  10.380  0.1393 -0.1657  0.1311
   16loPI   C2A  248   5.775  10.242   9.991 -0.1196  0.1386 -0.0659
   16loPI   C3A  249   5.693  10.245   9.579 -0.1344 -0.2229 -0.4017
   16loPI   C4A  250   5.869  10.345   9.252 -0.1146  0.2431  0.1572
   16loPI   C5A  251   5.877  10.343   8.755  0.1387  0.1254 -0.0312
   16loPI   C6A  252   5.540  10.633   8.420 -0.0815 -0.0017  0.0801
   16loPI   C1B  253   5.395  10.696  10.177  0.1899  0.2173  0.1633
   16loPI   C2B  254   5.426  10.627   9.785 -0.1988  0.0348  0.1198
   16loPI   C3B  255   5.523  10.756   9.340 -0.1243 -0.0541  0.1187
   16loPI   C4B  256   5.622  10.674   9.005  0.1849 -0.0724  0.0275
   17loPI    C1  257   6.331  12.503  11.113  0.1333  0.2634  0.0674
   17loPI    C2  258   6.079  12.635  11.395 -0.3075 -0.0676 -0.1603
   17loPI    C3  259   6.376  12.385  11.493 -0.2804  0.0467  0.0541
   17loPI   PO4  260   6.372  12.730  10.950 -0.0373 -0.2698  0.4760
   17loPI   GL1  261   6.351  12.816  10.466  0.0358 -0.0822  0.2272
   17loPI   GL2  262   6.393  13.043  10.488  0.1390  0.1419  0.0413
   17loPI   C1A  263   6.398  12.596  10.127 -0.1216 -0.0717 -0.0303
   17loPI   C2A  264   6.399  12.670   9.708 -0.0366 -0.1967  0.3178
   17loPI   C3A  265   6.371  12.591   9.319  0.1669  0.2545  0.0258
   17loPI   C4A  266   6.344  12.509   8.910 -0.1201 -0.1381  0.0408
   17loPI   C5A  267   6.259  12.556   8.504  0.0407  0.1157 -0.0117
   17loPI   C6A  268   5.893  12.442   8.273  0.0244  0.3911  0.1622
   17loPI   C1B  269   6.649  13.018  10.117  0.3034 -0.1436  0.0371
   17loPI   C2B  270   6.634  13.158   9.572  0.1722  0.3758 -0.0141
   17loPI   C3B  271   6.556  13.034   9.160  0.1981 -0.0768  0.0155
   17loPI   C4B  272   6.583  13.046   8.723  0.0728  0.0694 -0.1214
   18loPI    C1  273   3.326   1.234  10.695 -0.0103 -0.0490 -0.0287
   18loPI    C2  274   3.643   1.266  10.454 -0.1012  0.1283 -0.1264
   18loPI    C3  275   3.625   0.970  10.722  0.2335  0.2266  0.0096
   18loPI   PO4  276   3.192   1.447  10.602 -0.1501 -0.2714 -0.2357
   18loPI   GL1  277   3.044   1.665  10.198 -0.0854 -0.1476  0.1566
   18loPI   GL2  278   3.470   1.642  10.207  0.0759 -0.0509 -0.0041
   18loPI   C1A  279   3.118   1.378   9.850  0.2734  0.0380 -0.1494
   18loPI   C2A  280   3.148   1.413   9.485 -0.4329 -0.0695 -0.0686
   18loPI   C3A  281   3.179   1.432   9.134  0.0363  0.1237  0.1168
   18loPI   C4A  282   3.284   1.398   8.676  0.4312  0.0623  0.0473
   18loPI   C5A  283   3.488   1.543   8.322  0.1923 -0.1541 -0.0469
   18loPI   C6A  284   3.704   1.895   8.039 -0.0351 -0.0797 -0.0447
   18loPI   C1B  285   3.629   1.405   9.818  0.1602 -0.1078 -0.4815
   18loPI   C2B  286   3.657   1.417   9.412  0.3971  0.0921 -0.3302
   18loPI   C3B  287   3.702   1.384   9.005  0.1803 -0.0596 -0.0684
   18loPI   C4B  288   3.769   1.587   8.689 -0.0298 -0.2249 -0.0944
   19loPI    C1  289  12.680   8.390  10.745  0.2618  0.2215  0.0410
   19loPI    C2  290  12.556   8.377  11.126  0.0110  0.2182 -0.0390
   19loPI    C3  291  12.922   8.247  11.030  0.0217  0.0836  0.1789
   19loPI   PO4  292  12.368   8.302  10.620  0.1353  0.1229 -0.3593
   19loPI   GL1  293  12.235   7.931  10.375  0.0136 -0.0157 -0.0094
   19loPI   GL2  294  12.498   7.858  10.188  0.1239  0.0985 -0.3465
   19loPI   C1A  295  11.891   7.863  10.147 -0.1396 -0.0629 -0.0174
   19loPI   C2A  296  11.865   7.897   9.723 -0.1359  0.0110  0.1683
   19loPI   C3A  297  11.782   7.830   9.217 -0.0997 -0.5337  0.0303
   19loPI   C4A  298  11.856   7.942   8.807  0.3912  0.0493 -0.3151
   19loPI   C5A  299  11.918   8.011   8.394 -0.1754 -0.1296  0.1410
   19loPI   C6A  300  12.125   8.391   8.172 -0.0643  0.1128  0.1491
   19loPI   C1B  301  12.349   7.949   9.860 -0.1513 -0.2747  0.2789
   19loPI   C2B  302  12.325   7.887   9.474 -0.1007 -0.1808 -0.1870
   19loPI   C3B  303  12.319   7.989   9.093 -0.0068  0.1591  0.0034
   19loPI   C4B  304  12.329   7.968   8.682  0.0590  0.2364  0.1193
   20loPI    C1  305  14.194   7.280  10.492  0.2400  0.0609  0.2541
   20loPI    C2  306  14.330   7.657  10.490  0.0633  0.1269 -0.0716
   20loPI    C3  307  14.563   7.360  10.624  0.2323  0.3400  0.1137
   20loPI   PO4  308  14.037   7.354  10.231  0.0252  0.0990 -0.0656
   20loPI   GL1  309  13.740   7.039  10.026 -0.1359  0.2456  0.1177
   20loPI   GL2  310  13.971   6.931   9.778  0.1961  0.1618 -0.1160
   20loPI   C1A  311  13.524   7.073   9.622  0.1575  0.1143 -0.1159
   20loPI   C2A  312  13.488   7.033   9.220  0.0440 -0.1932 -0.1951
   20loPI   C3A  313  13.423   7.053   8.806  0.2189  0.2592 -0.1202
   20loPI   C4A  314  13.478   7.060   8.355  0.1013 -0.1715  0.0503
   20loPI   C5A  315  13.044   7.226   8.020 -0.0071 -0.3183  0.0272
   20loPI   C6A  316  12.768   7.024   7.804  0.0472  0.0020 -0.4476
   20loPI   C1B  317  13.954   6.777   9.484 -0.2720 -0.1376 -0.1071
   20loPI   C2B  318  13.741   6.638   9.158  0.1225 -0.0741 -0.0228
   20loPI   C3B  319  13.680   6.662   8.715  0.2300 -0.2514  0.1880
   20loPI   C4B  320  13.509   6.584   8.247 -0.1497  0.0587 -0.2291
   21loPI    C1  321   9.731  17.069  11.043  0.3060 -0.2043  0.1637
   21loPI    C2  322   9.482  16.928  11.323 -0.0883 -0.0025 -0.0759
   21loPI    C3  323   9.501  17.321  11.252  0.3939 -0.0014  0.0187
   21loPI   PO4  324   9.681  17.006  10.776  0.0924 -0.3051 -0.1771
   21loPI   GL1  325   9.654  16.958  10.317  0.0500 -0.0780 -0.0114
   21loPI   GL2  326   9.728  16.636  10.133 -0.1459 -0.5035  0.4764
   21loPI   C1A  327   9.439  17.035   9.952 -0.5244 -0.3524  0.0837
   21loPI   C2A  328   9.457  17.150   9.647  0.0071 -0.1845 -0.2726
   21loPI   C3A  329   9.382  17.051   9.257  0.2952 -0.0573 -0.0985
   21loPI   C4A  330   9.476  16.946   8.893 -0.2093  0.2453  0.3176
   21loPI   C5A  331   9.472  17.006   8.361 -0.2249  0.0557  0.0433
   21loPI   C6A  332   9.620  16.652   8.010 -0.2073 -0.0471  0.0108
   21loPI   C1B  333   9.815  16.445   9.713  0.3404 -0.2360  0.3123
   21loPI   C2B  334   9.877  16.333   9.326  0.2500 -0.0318  0.0249
   21loPI   C3B  335   9.720  16.492   8.976 -0.2432  0.3480 -0.0674
   21loPI   C4B  336   9.651  16.611   8.544  0.1626 -0.0351  0.0325
   22loPI    C1  337   6.564   2.157  11.337 -0.0216 -0.2943  0.0965
   22loPI    C2  338   6.825   1.933  11.134  0.1235 -0.1742  0.1487
   22loPI    C3  339   6.950   2.155  11.442 -0.0178 -0.0189  0.0954
   22loPI   PO4  340   6.411   2.277  11.087  0.0221  0.3664  0.1007
   22loPI   GL1  341   6.585   2.207  10.702 -0.0707 -0.1425 -0.2117
   22loPI   GL2  342   6.869   2.058  10.661  0.2588 -0.0883 -0.1559
   22loPI   C1A  343   6.490   2.204  10.281  0.2974 -0.2231 -0.0046
   22loPI   C2A  344   6.579   2.152   9.844  0.0710  0.2482 -0.1118
   22loPI   C3A  345   6.543   2.187   9.370  0.0704 -0.0801 -0.1090
   22loPI   C4A  346   6.541   2.133   9.045 -0.1906 -0.1101 -0.0419
   22loPI   C5A  347   6.685   2.287   8.740 -0.1452  0.6783 -0.0127
   22loPI   C6A  348   6.592   2.092   8.330 -0.0484  0.2703 -0.0249
   22loPI   C1B  349   6.971   2.075  10.266 -0.2658  0.0024 -0.2870
   22loPI   C2B  350   7.035   2.204   9.745  0.2293  0.1659 -0.1437
   22loPI   C3B  351   7.044   2.180   9.357 -0.1192 -0.0789  0.0424
   22loPI   C4B  352   7.157   2.213   8.972  0.0434 -0.0373  0.3720
   23loPI    C1  353  14.791  16.512  10.941 -0.1217 -0.0943  0.0449
   23loPI    C2  354  15.013  16.326  11.216 -0.0938  0.0590  0.1268
   23loPI    C3  355  14.914  16.711  11.265  0.0744  0.1432 -0.1706
   23loPI   PO4  356  14.925  16.483  10.763 -0.0668 -0.0610 -0.1650
   23loPI   GL1  357  15.092  16.714  10.364 -0.2228  0.1783  0.1571
   23loPI   GL2  358  14.816  16.761  10.245 -0.2612  0.1005  0.1031
   23loPI   C1A  359  15.488  16.766  10.009 -0.2444  0.0466  0.1041
   23loPI   C2A  360  15.561  16.766   9.548 -0.0211 -0.1942  0.0839
   23loPI   C3A  361  15.608  16.853   9.082 -0.1764  0.3210  0.2877
   23loPI   C4A  362  15.673  16.771   8.688 -0.0368 -0.0157  0.2741
   23loPI   C5A  363  15.684  16.747   8.233  0.1883  0.1024 -0.1609
   23loPI   C6A  364  15.413  16.656   7.819  0.3547  0.1024  0.0486
   23loPI   C1B  365  15.031  16.894   9.892  0.1768 -0.2399 -0.3840
   23loPI   C2B  366  14.965  16.846   9.503  0.3154 -0.0381  0.1804
   23loPI   C3B  367  15.082  16.937   9.173  0.0367 -0.1776  0.0410
   23loPI   C4B  368  14.911  16.792   8.755  0.2297  0.3357  0.0264
   24loPI    C1  369  17.258   7.314  10.231 -0.0023  0.0148 -0.0183
   24loPI    C2  370  17.084   6.970  10.338  0.1505  0.0236  0.2692
   24loPI    C3  371  17.095   7.276  10.594  0.1267  0.2020  0.0604
   24loPI   PO4  372  17.412   7.134   9.922  0.0621 -0.0728  0.1687
   24loPI   GL1  373  17.160   7.165   9.636  0.1511  0.0430  0.3133
   24loPI   GL2  374  16.955   6.932   9.563  0.1284  0.1262  0.0261
   24loPI   C1A  375  17.141   7.454   9.378 -0.3052 -0.1410  0.0128
   24loPI   C2A  376  17.287   7.500   8.961  0.0462 -0.1183  0.0192
   24loPI   C3A  377  17.510   7.351   8.582 -0.3456  0.1124 -0.2494
   24loPI   C4A  378  17.721   7.652   8.195 -0.1873 -0.1310 -0.1010
   24loPI   C5A  379  17.806   7.765   7.799  0.4928 -0.1640  0.3306
   24loPI   C6A  380  18.071   7.997   7.551  0.1512 -0.1236 -0.0174
   24loPI   C1B  381  16.979   6.948   9.068  0.3229  0.1632  0.0087
   24loPI   C2B  382  17.057   7.207   8.656  0.2128 -0.1389  0.0095
   24loPI   C3B  383  17.230   7.234   8.193 -0.0201  0.1980 -0.0516
   24loPI   C4B  384  17.534   7.319   7.797  0.0093  0.2184 -0.2128
   25loPI    C1  385  10.546   1.139  10.991  0.0954 -0.2029 -0.1586
   25loPI    C2  386  10.910   1.227  11.132 -0.0237 -0.0259  0.0457
   25loPI    C3  387  10.604   1.178  11.385 -0.1137 -0.3193 -0.1145
   25loPI   PO4  388  10.562   0.964  10.860  0.1969 -0.3906 -0.3648
   25loPI   GL1  389  10.399   0.808  10.509  0.0901  0.0221 -0.0205
   25loPI   GL2  390  10.126   0.665  10.499 -0.0481 -0.1478 -0.0304
   25loPI   C1A  391  10.367   0.695  10.084  0.1417  0.1028  0.1637
   25loPI   C2A  392  10.258   0.688   9.711  0.3881  0.1556  0.2527
   25loPI   C3A  393  10.232   0.635   9.288  0.0815  0.4158  0.3165
   25loPI   C4A  394  10.257   0.597   8.800  0.0737  0.0621 -0.1191
   25loPI   C5A  395  10.213   0.464   8.416 -0.0372  0.1726 -0.2046
   25loPI   C6A  396  10.041   0.234   8.012 -0.1425  0.1224  0.0677
   25loPI   C1B  397   9.858   0.662  10.098  0.0975 -0.0900  0.1325
   25loPI   C2B  398   9.740   0.613   9.718  0.1089 -0.0339  0.1670
   25loPI   C3B  399   9.701   0.642   9.178 -0.0849  0.1103 -0.0307
   25loPI   C4B  400   9.720   0.603   8.711 -0.1192 -0.0543  0.1603
   26loPI    C1  401  12.457   2.911  11.114  0.2796  0.0736  0.0477
   26loPI    C2  402  12.328   2.924  11.493 -0.0318 -0.1703 -0.0454
   26loPI    C3  403  12.314   2.580  11.288 -0.0642  0.0062 -0.3458
   26loPI   PO4  404  12.427   3.144  11.018 -0.0573  0.2113 -0.0367
   26loPI   GL1  405  12.226   3.294  10.671 -0.2871  0.0283  0.0612
   26loPI   GL2  406  11.943   3.499  10.617 -0.0460 -0.1773  0.3537
   26loPI   C1A  407  12.072   3.123  10.229  0.3058  0.3038  0.3648
   26loPI   C2A  408  11.993   3.084   9.766 -0.4152 -0.2048 -0.0669
   26loPI   C3A  409  11.932   3.142   9.370  0.0716 -0.0681  0.2082
   26loPI   C4A  410  11.990   3.037   8.947 -0.0053  0.1515  0.0514
   26loPI   C5A  411  12.043   2.901   8.443  0.0052 -0.0196  0.0863
   26loPI   C6A  412  12.053   2.612   8.129  0.0404  0.1402  0.3164
   26loPI   C1B  413  11.646   3.478  10.344 -0.0559  0.0924 -0.0635
   26loPI   C2B  414  11.747   3.509   9.944  0.2129 -0.2870 -0.1882
   26loPI   C3B  415  11.701   3.525   9.493  0.3097  0.3685  0.1341
   26loPI   C4B  416  11.706   3.453   8.989  0.0388 -0.1353 -0.3529
   27loPI    C1  417   6.703  14.244  11.464 -0.0083 -0.3726 -0.0641
   27loPI    C2  418   6.830  13.870  11.404  0.1373 -0.3406  0.0381
   27loPI    C3  419   6.867  14.038  11.765  0.0063 -0.2523  0.0112
   27loPI   PO4  420   6.514  14.259  11.323  0.2764 -0.1741 -0.1622
   27loPI   GL1  421   6.422  14.406  10.829  0.0925 -0.0804 -0.1040
   27loPI   GL2  422   6.595  14.042  10.813 -0.0453 -0.0112 -0.0716
   27loPI   C1A  423   6.292  14.353  10.367  0.2253  0.2356 -0.2200
   27loPI   C2A  424   6.189  14.320   9.891 -0.4145 -0.2104  0.0039
   27loPI   C3A  425   6.316  14.423   9.529  0.0824  0.2242  0.3356
   27loPI   C4A  426   6.261  14.408   9.098  0.0162 -0.1175 -0.0870
   27loPI   C5A  427   6.250  14.379   8.705 -0.0281 -0.1140  0.0066
   27loPI   C6A  428   6.602  14.456   8.536 -0.0927 -0.0104 -0.2056
   27loPI   C1B  429   6.562  13.940  10.337 -0.0241 -0.3318 -0.2629
   27loPI   C2B  430   6.626  13.896   9.926 -0.0387  0.3649  0.0480
   27loPI   C3B  431   6.549  13.927   9.520  0.0384 -0.1586 -0.0424
   27loPI   C4B  432   6.571  13.966   9.075 -0.2778  0.3593  0.0104
   28loPI    C1  433  14.479   5.615  10.244 -0.0321 -0.0503  0.0500
   28loPI    C2  434  14.313   5.251  10.237  0.1521 -0.1323 -0.2405
   28loPI    C3  435  14.557   5.354  10.537 -0.1778 -0.1181  0.0295
   28loPI   PO4  436  14.484   5.618   9.916  0.1428  0.1852  0.1160
   28loPI   GL1  437  14.454   5.672   9.537 -0.5427  0.0542  0.1512
   28loPI   GL2  438  14.513   5.975   9.277 -0.0809 -0.0330 -0.1124
   28loPI   C1A  439  14.374   5.449   9.067 -0.0378  0.0008  0.3481
   28loPI   C2A  440  14.113   5.555   8.638 -0.0153 -0.3915 -0.0320
   28loPI   C3A  441  13.765   5.564   8.448  0.2863  0.0158  0.1740
   28loPI   C4A  442  13.631   5.482   7.902  0.1541 -0.0001  0.0013
   28loPI   C5A  443  13.226   5.480   7.813  0.3212 -0.0520  0.1096
   28loPI   C6A  444  12.872   5.350   7.995 -0.1866 -0.2473 -0.0023
   28loPI   C1B  445  14.479   5.954   8.889 -0.2130 -0.1500 -0.1629
   28loPI   C2B  446  14.500   5.811   8.500 -0.0873 -0.1400  0.2405
   28loPI   C3B  447  14.641   5.531   8.279 -0.2120  0.1444 -0.0319
   28loPI   C4B  448  14.815   5.142   8.028  0.0800  0.1129 -0.1723
   29loPI    C1  449  17.159   0.604  10.531  0.1423 -0.1389 -0.0449
   29loPI    C2  450  17.225   0.638  10.924 -0.2625  0.1568  0.0038
   29loPI    C3  451  17.005   0.335  10.784 -0.0063 -0.0244 -0.0115
   29loPI   PO4  452  17.478   0.641  10.307  0.0464 -0.2521 -0.1679
   29loPI   GL1  453  17.647   0.693   9.920  0.0578 -0.2092 -0.0077
   29loPI   GL2  454  17.413   0.810   9.772  0.4023  0.1217 -0.0421
   29loPI   C1A  455  17.574   0.289   9.599  0.0547  0.0502 -0.3086
   29loPI   C2A  456  17.463   0.196   9.175 -0.3705  0.1695  0.3667
   29loPI   C3A  457  17.466   0.067   8.795  0.3073  0.0758  0.0549
   29loPI   C4A  458  17.652   0.009   8.325  0.0499  0.0144  0.1877
   29loPI   C5A  459  17.493   0.007   7.888  0.2292  0.2254 -0.2192
   29loPI   C6A  460  17.231   0.120   7.527  0.1335  0.0373  0.0120
   29loPI   C1B  461  17.640   0.786   9.469  0.2227  0.0938  0.1639
   29loPI   C2B  462  17.798   0.536   9.026  0.0353  0.0990  0.6448
   29loPI   C3B  463  17.770   0.512   8.650  0.2378  0.3346 -0.0027
   29loPI   C4B  464  17.845   0.434   8.171 -0.0628 -0.0254 -0.3743
   30loPI    C1  465  15.395  16.456  10.884 -0.0238 -0.0086  0.0453
   30loPI    C2  466  15.671  16.742  10.841 -0.1013  0.1066  0.2957
   30loPI    C3  467  15.710  16.468  11.130  0.0510 -0.2310 -0.0379
   30loPI   PO4  468  15.401  16.286  10.589 -0.0691 -0.0595 -0.1525
   30loPI   GL1  469  15.362  16.285  10.156  0.1006 -0.2346 -0.0635
   30loPI   GL2  470  15.335  15.985  10.118  0.0074  0.2937 -0.1102
   30loPI   C1A  471  15.241  16.446   9.700 -0.1410  0.0431  0.0416
   30loPI   C2A  472  15.348  16.452   9.223 -0.2551  0.2013 -0.2836
   30loPI   C3A  473  15.305  16.380   8.774 -0.0494 -0.0764  0.2009
   30loPI   C4A  474  15.221  16.626   8.408  0.2954 -0.1595  0.2102
   30loPI   C5A  475  15.231  16.967   8.220 -0.0522  0.0520  0.0280
   30loPI   C6A  476  15.173  17.365   8.084 -0.1386  0.0557 -0.1995
   30loPI   C1B  477  15.108  15.872   9.719 -0.0037 -0.2884  0.0619
   30loPI   C2B  478  15.034  15.953   9.305  0.1137 -0.1468 -0.1920
   30loPI   C3B  479  15.109  15.911   8.869 -0.0133 -0.0594  0.0106
   30loPI   C4B  480  15.087  16.076   8.434 -0.2116 -0.3391  0.3715
   31loPI    C1  481  13.794  10.603  10.657 -0.2042 -0.0026 -0.3165
   31loPI    C2  482  13.996  10.376  10.917  0.2190  0.2548 -0.4098
   31loPI    C3  483  13.782  10.687  11.048  0.0847  0.1315 -0.3335
   31loPI   PO4  484  13.791  10.427  10.487 -0.3669 -0.0346  0.0163
   31loPI   GL1  485  13.800  10.257  10.127 -0.0885  0.1402  0.3030
   31loPI   GL2  486  13.801   9.884  10.103 -0.3422  0.2422  0.3064
   31loPI   C1A  487  13.941  10.263   9.633  0.4822  0.1651  0.1811
   31loPI   C2A  488  14.050  10.260   9.163  0.3435  0.2668 -0.4021
   31loPI   C3A  489  14.063  10.273   8.757  0.0857  0.0799 -0.1417
   31loPI   C4A  490  14.108  10.229   8.342  0.2325 -0.1375  0.0493
   31loPI   C5A  491  14.478  10.267   8.091  0.1154 -0.0528  0.1192
   31loPI   C6A  492  14.617  10.463   7.625 -0.1871  0.2086  0.1516
   31loPI   C1B  493  13.759   9.762   9.734  0.2116 -0.2846  0.0214
   31loPI   C2B  494  13.730   9.822   9.245 -0.2263  0.0463  0.0498
   31loPI   C3B  495  13.726   9.781   8.765 -0.1607 -0.2097 -0.0702
   31loPI   C4B  496  13.848   9.761   8.281 -0.2781  0.0920  0.1458
   32loPI    C1  497   7.350   9.023  11.444  0.3836  0.0469  0.0069
   32loPI    C2  498   7.327   9.415  11.520 -0.1569  0.0201  0.0207
   32loPI    C3  499   7.168   9.152  11.776  0.1495 -0.2085 -0.0184
   32loPI   PO4  500   7.258   9.015  11.194  0.1777 -0.1648  0.1347
   32loPI   GL1  501   7.393   9.249  10.957 -0.2556 -0.3123  0.3523
   32loPI   GL2  502   7.480   8.989  10.707 -0.1887  0.0671 -0.1244
   32loPI   C1A  503   7.220   9.440  10.578 -0.0412  0.0622 -0.0458
   32loPI   C2A  504   7.341   9.475  10.146 -0.0875 -0.0036  0.0015
   32loPI   C3A  505   7.429   9.469   9.736  0.2290 -0.1960 -0.1119
   32loPI   C4A  506   7.500   9.615   9.290  0.1317  0.0984 -0.2274
   32loPI   C5A  507   7.562   9.397   8.887 -0.1671 -0.3859 -0.1477
   32loPI   C6A  508   7.410   9.096   8.751 -0.0061  0.2086 -0.0589
   32loPI   C1B  509   7.551   9.072  10.210 -0.3610 -0.0079  0.1325
   32loPI   C2B  510   7.791   9.084   9.759 -0.2215 -0.1003  0.1276
   32loPI   C3B  511   7.864   9.125   9.239  0.1478 -0.1345 -0.3358
   32loPI   C4B  512   7.878   9.027   8.866 -0.2673 -0.2313  0.1077
   33loPI    C1  513   9.060  14.056  11.195  0.1234 -0.2630 -0.2221
   33loPI    C2  514   8.676  13.985  11.285  0.1075 -0.1807 -0.2240
   33loPI    C3  515   8.954  13.975  11.572  0.0520  0.1135 -0.1570
   33loPI   PO4  516   9.198  13.883  10.929 -0.3263  0.1267 -0.0703
   33loPI   GL1  517   9.064  13.996  10.490  0.0379 -0.2445 -0.4652
   33loPI   GL2  518   8.788  14.035  10.730 -0.3997 -0.1111 -0.1141
   33loPI   C1A  519   9.116  14.246  10.196 -0.2870  0.0272  0.3925
   33loPI   C2A  520   9.063  14.200   9.695  0.1373  0.1137 -0.0046
   33loPI   C3A  521   9.135  14.183   9.282 -0.2288 -0.0108 -0.0154
   33loPI   C4A  522   9.181  14.240   8.854  0.0784  0.0389  0.0539
   33loPI   C5A  523   9.127  14.456   8.535 -0.1801  0.1091 -0.2850
   33loPI   C6A  524   9.180  14.276   8.142  0.2036 -0.1973  0.0820
   33loPI   C1B  525   8.636  14.076  10.308 -0.0149  0.0154  0.4565
   33loPI   C2B  526   8.579  14.189   9.824 -0.0262  0.1296  0.1839
   33loPI   C3B  527   8.644  14.152   9.403  0.2925  0.0878  0.1700
   33loPI   C4B  528   8.609  14.059   8.906  0.0230 -0.0778 -0.1720
   34loPI    C1  529   8.365  10.503  11.291 -0.0773 -0.0917 -0.0268
   34loPI    C2  530   8.555  10.224  11.505  0.1104  0.0249 -0.0392
   34loPI    C3  531   8.541  10.602  11.636 -0.0577  0.0309 -0.0715
   34loPI   PO4  532   8.497  10.473  11.046  0.0355 -0.0048 -0.3217
   34loPI   GL1  533   8.428  10.581  10.631 -0.0121 -0.1234 -0.4134
   34loPI   GL2  534   8.608  10.851  10.478 -0.1637  0.0192 -0.1864
   34loPI   C1A  535   8.294  10.411  10.289 -0.1327  0.1113  0.2481
   34loPI   C2A  536   8.354  10.513   9.759  0.2171 -0.1714  0.3242
   34loPI   C3A  537   8.479  10.491   9.304  0.1322  0.1681  0.0788
   34loPI   C4A  538   8.523  10.523   8.826 -0.0122 -0.0122 -0.0618
   34loPI   C5A  539   8.521  10.951   8.568  0.0327 -0.4341  0.3928
   34loPI   C6A  540   8.470  11.268   8.069 -0.2733  0.1996 -0.4551
   34loPI   C1B  541   8.552  10.930  10.053 -0.1792 -0.1264 -0.1145
   34loPI   C2B  542   8.620  10.916   9.574  0.1149  0.2507  0.0484
   34loPI   C3B  543   8.673  10.930   9.089  0.0265 -0.1820 -0.1800
   34loPI   C4B  544   8.813  11.248   8.835 -0.0295  0.2221  0.0600
   35loPI    C1  545  12.956   4.949  10.691 -0.0504 -0.0264 -0.0485
   35loPI    C2  546  13.094   4.715  10.985  0.3233  0.0610 -0.1482
   35loPI    C3  547  13.024   5.103  11.054 -0.1742 -0.0450 -0.0173
   35loPI   PO4  548  12.971   4.814  10.428  0.1416  0.0529  0.1017
   35loPI   GL1  549  12.788   5.028  10.126 -0.0272 -0.0887 -0.2530
   35loPI   GL2  550  12.966   4.979   9.824 -0.2423 -0.0652  0.2201
   35loPI   C1A  551  12.435   4.962   9.858 -0.0731 -0.1085 -0.1594
   35loPI   C2A  552  12.346   4.992   9.506 -0.0048 -0.1133  0.0056
   35loPI   C3A  553  12.286   4.967   9.085 -0.0432  0.1762 -0.1060
   35loPI   C4A  554  12.283   4.706   8.661  0.0394  0.2565 -0.2182
   35loPI   C5A  555  12.524   4.860   8.338  0.0139 -0.0842 -0.3271
   35loPI   C6A  556  12.551   4.894   7.884 -0.0778  0.1563  0.1721
   35loPI   C1B  557  12.780   5.150   9.362  0.0964  0.4156  0.2255
   35loPI   C2B  558  12.535   5.358   9.138 -0.1029  0.1699  0.0310
   35loPI   C3B  559  12.638   5.692   8.922  0.0526  0.3681  0.2920
   35loPI   C4B  560  12.842   5.706   8.571  0.1058  0.0076 -0.0082
   36loPI    C1  561  12.455   9.732  11.113  0.0887  0.0454 -0.0795
   36loPI    C2  562  12.669  10.039  11.253  0.1276 -0.0773  0.1345
   36loPI    C3  563  12.270  10.047  11.276  0.1388 -0.1601  0.3915
   36loPI   PO4  564  12.461   9.676  10.812 -0.0705 -0.2801  0.3646
   36loPI   GL1  565  12.254   9.483  10.471  0.2386  0.3164 -0.0328
   36loPI   GL2  566  12.079   9.710  10.327  0.3232 -0.0825 -0.4332
   36loPI   C1A  567  12.384   9.336  10.182  0.1937 -0.3082 -0.0497
   36loPI   C2A  568  12.491   9.410   9.731  0.0327 -0.0501  0.0622
   36loPI   C3A  569  12.519   9.380   9.304 -0.1688  0.3899  0.0991
   36loPI   C4A  570  12.491   9.295   8.902  0.0971  0.1093 -0.0101
   36loPI   C5A  571  12.567   9.297   8.396  0.1482  0.4178  0.0097
   36loPI   C6A  572  12.595   9.251   7.908  0.2645 -0.2563  0.1778
   36loPI   C1B  573  12.258   9.817  10.016 -0.0370 -0.0756  0.1190
   36loPI   C2B  574  12.258   9.822   9.540  0.0230 -0.0020  0.1450
   36loPI   C3B  575  12.258   9.735   9.110 -0.2843 -0.1419  0.0268
   36loPI   C4B  576  12.157   9.839   8.751  0.4082  0.1661 -0.0367
   37loPI    C1  577   3.933   4.169  10.398  0.0863 -0.0278  0.0870
   37loPI    C2  578   3.542   4.091  10.433  0.0653  0.0607  0.0525
   37loPI    C3  579   3.782   4.060  10.752  0.0362 -0.0261  0.0663
   37loPI   PO4  580   3.965   4.339  10.194 -0.0379  0.0106 -0.0175
   37loPI   GL1  581   3.778   4.427   9.765 -0.0732 -0.1432  0.0653
   37loPI   GL2  582   4.010   4.246   9.667 -0.2734 -0.2291  0.1571
   37loPI   C1A  583   3.814   4.849   9.425 -0.2549  0.1309 -0.2136
   37loPI   C2A  584   3.968   4.800   9.007  0.1661  0.1206  0.3270
   37loPI   C3A  585   4.216   4.777   8.568  0.1520  0.1735 -0.2085
   37loPI   C4A  586   4.320   4.903   8.154 -0.1925 -0.1872  0.0678
   37loPI   C5A  587   4.127   4.817   7.730 -0.1448  0.1589 -0.0132
   37loPI   C6A  588   3.913   4.534   7.589 -0.0557  0.2092  0.3618
   37loPI   C1B  589   4.006   4.329   9.297  0.0929  0.2221 -0.4176
   37loPI   C2B  590   4.209   4.384   8.920  0.3302  0.1661  0.1079
   37loPI   C3B  591   4.209   4.228   8.604  0.0038  0.4473  0.0061
   37loPI   C4B  592   4.057   4.392   8.233 -0.3521  0.0686  0.0373
   38loPI    C1  593  13.858   9.986  10.646 -0.0251 -0.2167 -0.1021
   38loPI    C2  594  13.909   9.760  10.972  0.1142  0.1039  0.1046
   38loPI    C3  595  14.227   9.894  10.770  0.0277 -0.2693 -0.2953
   38loPI   PO4  596  13.584   9.825  10.544 -0.0149  0.2680  0.3127
   38loPI   GL1  597  13.207   9.887  10.300 -0.3014 -0.1992  0.3284
   38loPI   GL2  598  13.145  10.232  10.166 -0.0080  0.2984  0.1430
   38loPI   C1A  599  13.264   9.814   9.797  0.0890  0.3675 -0.0002
   38loPI   C2A  600  13.225   9.783   9.353  0.2716  0.1147  0.2259
   38loPI   C3A  601  13.258   9.811   8.884  0.2700 -0.2597  0.2611
   38loPI   C4A  602  13.386   9.595   8.370 -0.0991  0.1167 -0.1829
   38loPI   C5A  603  13.627   9.299   8.183  0.1326  0.1583 -0.0648
   38loPI   C6A  604  13.827   9.470   7.816  0.2638  0.0829  0.0003
   38loPI   C1B  605  13.411  10.291   9.774  0.2241  0.0577  0.0473
   38loPI   C2B  606  13.480  10.235   9.332 -0.2772 -0.1897  0.0903
   38loPI   C3B  607  13.565  10.229   8.912 -0.1743  0.3193  0.0543
   38loPI   C4B  608  13.579  10.181   8.491 -0.1360 -0.2323 -0.4502
   39loPI    C1  609   0.668   9.726  11.050  0.1057  0.0647  0.2131
   39loPI    C2  610   0.315   9.886  11.148  0.0025 -0.0431  0.0213
   39loPI    C3  611   0.365   9.489  11.159  0.0674 -0.0390 -0.1091
   39loPI   PO4  612   0.718   9.852  10.770 -0.1948 -0.1565  0.2247
   39loPI   GL1  613   0.665   9.750  10.298  0.0358  0.0326 -0.0550
   39loPI   GL2  614   0.959   9.591  10.187  0.1402 -0.2127 -0.0121
   39loPI   C1A  615   0.521   9.764   9.866  0.2175 -0.2513  0.1458
   39loPI   C2A  616   0.632   9.876   9.527 -0.1719 -0.2976 -0.3987
   39loPI   C3A  617   0.549  10.039   9.112 -0.0388 -0.1086 -0.0165
   39loPI   C4A  618   0.658  10.047   8.760  0.1403  0.0567  0.2483
   39loPI   C5A  619   0.736  10.021   8.305  0.0488 -0.5124  0.0062
   39loPI   C6A  620   0.920  10.146   8.047  0.2264 -0.1750  0.0069
   39loPI   C1B  621   1.034   9.812   9.780  0.2808  0.1149  0.3360
   39loPI   C2B  622   1.062   9.895   9.275  0.0725 -0.3888  0.1277
   39loPI   C3B  623   1.169   9.957   8.808  0.1970 -0.0110  0.1143
   39loPI   C4B  624   1.087   9.702   8.405  0.3593  0.0377  0.3735
   40loPI    C1  625  14.155   2.088  10.804 -0.0966  0.1976  0.0053
   40loPI    C2  626  13.837   1.866  10.706  0.0595 -0.0400  0.0295
   40loPI    C3  627  13.891   1.982  11.085 -0.0031  0.0091  0.0235
   40loPI   PO4  628  14.199   2.300  10.703  0.0381 -0.2321 -0.1488
   40loPI   GL1  629  14.230   2.461  10.270 -0.2024 -0.1589  0.0672
   40loPI   GL2  630  14.365   2.233  10.088  0.4246 -0.1330 -0.4291
   40loPI   C1A  631  14.246   2.522   9.744  0.4767 -0.0506  0.0946
   40loPI   C2A  632  14.184   2.404   9.361 -0.0657  0.0100  0.0382
   40loPI   C3A  633  14.073   2.198   8.903 -0.0827 -0.2234  0.1024
   40loPI   C4A  634  14.155   2.138   8.402 -0.2172  0.1199 -0.2415
   40loPI   C5A  635  14.327   1.980   8.096 -0.1209 -0.0548 -0.0238
   40loPI   C6A  636  14.693   2.000   7.774  0.1099 -0.1173  0.3452
   40loPI   C1B  637  14.056   2.052   9.799  0.1744  0.2819 -0.1221
   40loPI   C2B  638  13.907   1.929   9.364 -0.1201  0.6013 -0.0992
   40loPI   C3B  639  13.831   1.763   8.955  0.1113 -0.1717 -0.0210
   40loPI   C4B  640  13.847   1.706   8.585  0.0158  0.0081 -0.0979
   41loPI    C1  641  15.909  11.596  10.952 -0.1180  0.2133 -0.0870
   41loPI    C2  642  15.824  11.287  11.191  0.1599  0.0955 -0.1368
   41loPI    C3  643  15.684  11.651  11.278  0.2124  0.0439  0.1764
   41loPI   PO4  644  15.847  11.436  10.750 -0.0105 -0.0011  0.3733
   41loPI   GL1  645  15.957  11.104  10.482 -0.1706 -0.1675 -0.0877
   41loPI   GL2  646  16.242  11.072  10.456 -0.0353 -0.0797  0.0241
   41loPI   C1A  647  15.935  11.303  10.080  0.7088  0.3607  0.1145
   41loPI   C2A  648  16.028  11.357   9.685 -0.3331  0.0981 -0.0583
   41loPI   C3A  649  16.039  11.466   9.246  0.1727  0.0079  0.1873
   41loPI   C4A  650  15.916  11.496   8.840  0.2361  0.0521  0.1218
   41loPI   C5A  651  15.750  11.427   8.369 -0.0724  0.1200 -0.0950
   41loPI   C6A  652  15.850  11.761   8.034  0.0171  0.2223  0.0993
   41loPI   C1B  653  16.515  11.359  10.096  0.2168 -0.1008  0.2542
   41loPI   C2B  654  16.538  11.407   9.669  0.0328  0.0817 -0.0301
   41loPI   C3B  655  16.559  11.378   9.251 -0.1290 -0.0675  0.2589
   41loPI   C4B  656  16.451  11.499   8.823  0.2510  0.4992 -0.1274
   42loPI    C1  657  13.215   3.513  10.812 -0.0491 -0.1657 -0.1138
   42loPI    C2  658  13.098   3.162  10.963 -0.2510 -0.0982 -0.1113
   42loPI    C3  659  13.270   3.434  11.200 -0.1050 -0.1901 -0.1109
   42loPI   PO4  660  13.262   3.531  10.624 -0.2937 -0.2181 -0.0516
   42loPI   GL1  661  13.228   3.440  10.128  0.0363 -0.0380  0.0242
   42loPI   GL2  662  13.280   3.648   9.846  0.4387  0.0025  0.0289
   42loPI   C1A  663  13.063   3.209   9.782 -0.1583  0.2355  0.1999
   42loPI   C2A  664  13.022   3.186   9.327 -0.0631  0.0077  0.0504
   42loPI   C3A  665  12.850   3.017   8.977 -0.0032  0.3420 -0.0955
   42loPI   C4A  666  12.718   2.937   8.590 -0.1896  0.2785  0.0069
   42loPI   C5A  667  12.560   2.721   8.302  0.0597 -0.0365  0.2990
   42loPI   C6A  668  12.706   2.469   7.929 -0.2015  0.0265  0.1428
   42loPI   C1B  669  13.209   3.654   9.492  0.2481 -0.3625 -0.1739
   42loPI   C2B  670  13.370   3.604   9.059  0.3453 -0.1890 -0.0478
   42loPI   C3B  671  13.444   3.509   8.648 -0.0869  0.0456  0.0615
   42loPI   C4B  672  13.701   3.525   8.329  0.0119  0.1305  0.3574
   43loPI    C1  673   7.819   5.878  11.136  0.1460  0.2013  0.0439
   43loPI    C2  674   7.670   6.233  11.243 -0.2637  0.0740 -0.0834
   43loPI    C3  675   7.679   5.933  11.507 -0.0430  0.1372 -0.0166
   43loPI   PO4  676   7.696   5.754  10.949 -0.2058  0.3217  0.0737
   43loPI   GL1  677   7.638   5.669  10.495  0.0636 -0.0614  0.3635
   43loPI   GL2  678   7.346   5.432  10.369 -0.1072  0.1128 -0.0883
   43loPI   C1A  679   7.740   5.837  10.071 -0.4151  0.0687  0.0304
   43loPI   C2A  680   7.761   5.838   9.638 -0.0595  0.1386  0.0045
   43loPI   C3A  681   7.789   5.854   9.196  0.1542 -0.1086  0.2022
   43loPI   C4A  682   7.815   5.987   8.779  0.1481  0.1597  0.3853
   43loPI   C5A  683   7.721   5.936   8.418  0.0998 -0.1589 -0.2744
   43loPI   C6A  684   7.509   5.950   8.057 -0.2465 -0.1489 -0.1355
   43loPI   C1B  685   7.537   5.445   9.912  0.4680 -0.0371  0.3305
   43loPI   C2B  686   7.506   5.514   9.371  0.3907  0.3064  0.1638
   43loPI   C3B  687   7.540   5.497   8.907  0.2068  0.1532  0.1686
   43loPI   C4B  688   7.438   5.448   8.428  0.0883  0.0675 -0.1052
   44loPI    C1  689   6.364   5.419  11.259 -0.0570  0.1280  0.2016
   44loPI    C2  690   6.481   5.037  11.233  0.0591  0.1901 -0.2861
   44loPI    C3  691   6.093   5.129  11.210  0.0253  0.0980 -0.0987
   44loPI   PO4  692   6.538   5.583  10.950  0.0905 -0.0938  0.1347
   44loPI   GL1  693   6.761   5.591  10.636  0.0751  0.0778  0.0600
   44loPI   GL2  694   6.799   5.444  10.407 -0.3549 -0.1170  0.2435
   44loPI   C1A  695   6.609   5.838  10.217  0.2129  0.0745  0.1082
   44loPI   C2A  696   6.621   5.834   9.787 -0.1986 -0.3242 -0.0047
   44loPI   C3A  697   6.755   5.902   9.346  0.1459  0.1284  0.2979
   44loPI   C4A  698   6.780   5.846   8.853 -0.2187 -0.4066  0.1558
   44loPI   C5A  699   6.639   5.833   8.436  0.3183  0.0131  0.0680
   44loPI   C6A  700   6.623   5.556   7.990  0.2277 -0.4321  0.0665
   44loPI   C1B  701   6.902   5.470  10.001  0.0492 -0.2168 -0.0279
   44loPI   C2B  702   6.972   5.342   9.579 -0.1630  0.0574  0.2179
   44loPI   C3B  703   6.991   5.482   9.164 -0.4476 -0.1760  0.1873
   44loPI   C4B  704   6.966   5.391   8.696  0.1378 -0.2425 -0.1276
   45loPI    C1  705   3.613  17.174  11.016  0.1703 -0.1451  0.0288
   45loPI    C2  706   3.585  17.498  11.249  0.2741 -0.0792 -0.0496
   45loPI    C3  707   3.643  17.138  11.413 -0.0015 -0.0812  0.0484
   45loPI   PO4  708   3.828  17.231  10.904  0.0245  0.0355 -0.0446
   45loPI   GL1  709   3.930  17.214  10.536  0.1619 -0.0665  0.2448
   45loPI   GL2  710   4.072  17.459  10.245 -0.0445  0.1620 -0.0704
   45loPI   C1A  711   3.898  16.921  10.178  0.0438  0.1236  0.1880
   45loPI   C2A  712   3.973  16.950   9.735  0.0082 -0.0011 -0.4722
   45loPI   C3A  713   3.945  16.897   9.236 -0.3074 -0.0026 -0.2444
   45loPI   C4A  714   3.908  16.880   8.774 -0.1315 -0.2879  0.0948
   45loPI   C5A  715   3.725  17.105   8.465 -0.3776 -0.1285  0.2083
   45loPI   C6A  716   3.515  17.223   8.180 -0.1710  0.0433 -0.0566
   45loPI   C1B  717   4.138  17.457   9.812 -0.1907 -0.1378  0.1965
   45loPI   C2B  718   4.165  17.334   9.463 -0.0622 -0.0137 -0.0256
   45loPI   C3B  719   4.177  17.284   9.052  0.2944 -0.2178 -0.0626
   45loPI   C4B  720   4.234  17.412   8.594 -0.1210  0.0375 -0.3912
   46loPI    C1  721   5.984   9.416  11.463 -0.1775 -0.0483  0.0397
   46loPI    C2  722   6.229   9.103  11.503 -0.1709 -0.0412  0.0539
   46loPI    C3  723   5.912   9.140  11.744 -0.0777  0.0508  0.1644
   46loPI   PO4  724   5.999   9.533  11.249 -0.2501 -0.0776  0.0861
   46loPI   GL1  725   5.951   9.607  10.790 -0.1327 -0.0606  0.0871
   46loPI   GL2  726   5.794   9.473  10.519  0.3965 -0.1524 -0.2293
   46loPI   C1A  727   6.228   9.505  10.431 -0.2491  0.1222 -0.0517
   46loPI   C2A  728   6.289   9.426   9.999  0.0601 -0.1303 -0.0457
   46loPI   C3A  729   6.403   9.409   9.547 -0.0947  0.0583  0.3180
   46loPI   C4A  730   6.486   9.409   9.082 -0.2719 -0.0766 -0.0803
   46loPI   C5A  731   6.558   9.440   8.652  0.0599  0.0081 -0.0176
   46loPI   C6A  732   6.460   9.396   8.322 -0.1489 -0.1795  0.0572
   46loPI   C1B  733   5.725   9.397  10.097 -0.1401  0.0233  0.0209
   46loPI   C2B  734   5.882   9.437   9.653 -0.0863  0.0804  0.0354
   46loPI   C3B  735   5.973   9.412   9.192  0.1500 -0.0772  0.2156
   46loPI   C4B  736   6.048   9.429   8.699  0.5236  0.2740  0.1633
   47loPI    C1  737   7.241  16.181  10.935  0.0509  0.0070  0.0421
   47loPI    C2  738   7.621  16.298  10.977  0.0424  0.0826 -0.0839
   47loPI    C3  739   7.420  16.153  11.291  0.1792  0.0301 -0.0199
   47loPI   PO4  740   7.194  16.252  10.729  0.0046  0.1334 -0.0208
   47loPI   GL1  741   7.071  16.327  10.283 -0.2568 -0.1172 -0.1985
   47loPI   GL2  742   6.817  16.395  10.438 -0.3261 -0.0000 -0.0356
   47loPI   C1A  743   7.159  16.328   9.863  0.1584  0.1452  0.3524
   47loPI   C2A  744   7.103  16.289   9.336  0.1254  0.0544 -0.0921
   47loPI   C3A  745   7.147  16.191   8.897  0.3635  0.0982 -0.2326
   47loPI   C4A  746   7.187  16.476   8.554  0.0133  0.1256 -0.2651
   47loPI   C5A  747   6.797  16.430   8.369 -0.0753  0.1134 -0.0305
   47loPI   C6A  748   6.376  16.360   8.186  0.1541 -0.1692 -0.1820
   47loPI   C1B  749   6.646  16.378   9.998 -0.4421 -0.2326 -0.0802
   47loPI   C2B  750   6.602  16.284   9.588  0.0427 -0.0614  0.2759
   47loPI   C3B  751   6.639  16.184   9.138  0.0215  0.0560  0.0921
   47loPI   C4B  752   6.596  16.308   8.779 -0.0412 -0.4547 -0.2013
   48loPI    C1  753   4.057   8.398  10.860 -0.0416 -0.1985  0.0549
   48loPI    C2  754   4.108   8.653  11.164 -0.0876 -0.0401 -0.0686
   48loPI    C3  755   4.204   8.267  11.208 -0.1525 -0.0310  0.1666
   48loPI   PO4  756   4.091   8.446  10.570  0.1316 -0.1377  0.1097
   48loPI   GL1  757   4.276   8.212  10.198  0.3264  0.3406  0.2056
   48loPI   GL2  758   4.445   8.523  10.265 -0.0208 -0.1507 -0.3562
   48loPI   C1A  759   4.337   8.188   9.808 -0.0059  0.0861 -0.3743
   48loPI   C2A  760   4.396   8.321   9.457 -0.1521  0.2927 -0.1090
   48loPI   C3A  761   4.495   8.439   9.103 -0.1374  0.2132 -0.0869
   48loPI   C4A  762   4.479   8.493   8.806  0.0720  0.1647  0.1660
   48loPI   C5A  763   4.533   8.550   8.451 -0.4576 -0.2325 -0.0848
   48loPI   C6A  764   4.725   8.300   8.132 -0.2206 -0.0190  0.2210
   48loPI   C1B  765   4.526   8.723   9.907  0.1004 -0.1750  0.1801
   48loPI   C2B  766   4.646   8.757   9.476 -0.0827 -0.3045  0.3518
   48loPI   C3B  767   4.660   8.940   9.118 -0.0699  0.2207  0.3151
   48loPI   C4B  768   4.774   8.908   8.753  0.2780  0.0028 -0.0537
   49loPI    C1  769  14.201  11.427  11.009  0.1283  0.2075  0.1998
   49loPI    C2  770  13.995  11.127  11.175  0.1584  0.0464 -0.0485
   49loPI    C3  771  14.209  11.375  11.406  0.0892 -0.0884  0.1638
   49loPI   PO4  772  14.041  11.440  10.837  0.0994 -0.3790 -0.0959
   49loPI   GL1  773  13.947  11.354  10.528 -0.2995 -0.1032  0.0465
   49loPI   GL2  774  14.000  11.034  10.316 -0.2246 -0.0597 -0.1060
   49loPI   C1A  775  14.096  11.581  10.149  0.2251  0.0298  0.2525
   49loPI   C2A  776  14.053  11.764   9.797 -0.0374  0.1181 -0.3157
   49loPI   C3A  777  14.067  11.631   9.405 -0.1350  0.0827 -0.1283
   49loPI   C4A  778  14.064  11.729   8.929  0.1299  0.3848 -0.2477
   49loPI   C5A  779  14.055  11.918   8.513 -0.0314 -0.0950 -0.0898
   49loPI   C6A  780  13.621  12.075   8.274 -0.0849  0.1129 -0.4192
   49loPI   C1B  781  13.785  11.204  10.004  0.3054 -0.2069  0.0595
   49loPI   C2B  782  13.794  11.183   9.556 -0.0663  0.0493  0.0345
   49loPI   C3B  783  13.918  11.268   9.079 -0.1772  0.1921  0.1564
   49loPI   C4B  784  13.941  11.182   8.635  0.2516 -0.0253 -0.1959
   50loPI    C1  785   9.193   4.646  11.255 -0.2054  0.0831  0.1054
   50loPI    C2  786   9.292   4.547  11.630  0.2061 -0.0769 -0.0387
   50loPI    C3  787   9.279   4.266  11.346  0.1093  0.0784 -0.1904
   50loPI   PO4  788   8.945   4.803  11.252 -0.2049  0.0497  0.0450
   50loPI   GL1  789   8.847   4.767  10.823  0.3356 -0.0466 -0.0656
   50loPI   GL2  790   8.458   4.899  10.616 -0.3178  0.0089  0.0718
   50loPI   C1A  791   8.944   4.847  10.484  0.1718  0.1172  0.0438
   50loPI   C2A  792   8.932   5.016  10.017 -0.0415 -0.4377 -0.0880
   50loPI   C3A  793   8.853   5.073   9.587 -0.1332  0.0873 -0.1039
   50loPI   C4A  794   8.818   5.112   9.179 -0.1106 -0.0063 -0.0803
   50loPI   C5A  795   8.831   5.113   8.740  0.1923 -0.0175 -0.1358
   50loPI   C6A  796   8.802   5.201   8.220  0.0710 -0.2062 -0.0314
   50loPI   C1B  797   8.309   5.020  10.229 -0.1625  0.0018 -0.0234
   50loPI   C2B  798   8.402   5.022   9.880  0.5000 -0.2633  0.0683
   50loPI   C3B  799   8.352   5.022   9.512  0.5200  0.0058 -0.0137
   50loPI   C4B  800   8.294   5.112   9.086  0.0370  0.3424  0.2140
   51loPI    C1  801  15.173  11.592  11.160  0.1279  0.1734 -0.0786
   51loPI    C2  802  14.960  11.897  11.307 -0.2414 -0.0806 -0.0737
   51loPI    C3  803  15.198  11.685  11.549 -0.1130  0.0959 -0.0430
   51loPI   PO4  804  15.292  11.709  10.948  0.0898  0.0293  0.0971
   51loPI   GL1  805  15.408  11.886  10.537  0.1499 -0.0446 -0.2622
   51loPI   GL2  806  15.203  12.139  10.490 -0.1515 -0.2065  0.1013
   51loPI   C1A  807  15.274  11.717  10.147  0.0071  0.1436 -0.1323
   51loPI   C2A  808  15.127  11.763   9.802  0.1472 -0.1178  0.1772
   51loPI   C3A  809  15.217  11.775   9.356  0.3166  0.1573  0.0440
   51loPI   C4A  810  15.152  11.771   8.980  0.1446  0.3344  0.3615
   51loPI   C5A  811  15.011  11.845   8.672 -0.0860  0.1539  0.0530
   51loPI   C6A  812  14.958  12.086   8.320  0.2361 -0.4751  0.0939
   51loPI   C1B  813  15.427  12.202  10.074  0.1621 -0.0096  0.0166
   51loPI   C2B  814  15.392  12.157   9.619 -0.1631 -0.1846 -0.0767
   51loPI   C3B  815  15.425  12.263   9.207  0.0982 -0.1779 -0.2317
   51loPI   C4B  816  15.277  12.320   8.743  0.1582  0.0969 -0.1163
   52loPI    C1  817   0.796   0.720  10.590 -0.2157 -0.0159  0.0123
   52loPI    C2  818   0.465   0.767  10.810 -0.0974  0.1899  0.1497
   52loPI    C3  819   0.745   0.506  10.924  0.0127  0.3735  0.3049
   52loPI   PO4  820   0.696   0.942  10.432 -0.3439 -0.0132 -0.0253
   52loPI   GL1  821   0.466   0.971   9.995 -0.0735  0.0982  0.0896
   52loPI   GL2  822   0.154   0.940   9.915 -0.0043  0.0482 -0.3558
   52loPI   C1A  823   0.792   0.872   9.773  0.0491  0.0902  0.3485
   52loPI   C2A  824   0.876   0.734   9.391  0.0118  0.1761  0.0802
   52loPI   C3A  825   0.902   0.711   9.009  0.1032 -0.1021 -0.1152
   52loPI   C4A  826   0.979   0.831   8.520  0.6845  0.0018 -0.1435
   52loPI   C5A  827   0.953   0.967   8.151  0.0889 -0.0861  0.0735
   52loPI   C6A  828   0.676   1.120   7.883  0.1779  0.1661  0.0216
   52loPI   C1B  829   0.350   0.754   9.590  0.2600  0.1206 -0.0188
   52loPI   C2B  830   0.411   0.638   9.178  0.2598  0.0161  0.0905
   52loPI   C3B  831   0.522   0.679   8.728  0.0484 -0.1044 -0.3566
   52loPI   C4B  832   0.574   0.736   8.261  0.1728  0.0946  0.2275
   53loPI    C1  833  16.800   7.934  10.335  0.1353  0.0983 -0.1158
   53loPI    C2  834  16.427   7.823  10.427  0.1041  0.1089 -0.2274
   53loPI    C3  835  16.739   7.613  10.565  0.0577  0.1105 -0.1194
   53loPI   PO4  836  16.795   7.913  10.071  0.1286 -0.0450  0.0507
   53loPI   GL1  837  16.811   7.646   9.670  0.0005 -0.2888 -0.2196
   53loPI   GL2  838  16.646   7.306   9.600 -0.0461 -0.1230  0.0485
   53loPI   C1A  839  16.558   7.752   9.403  0.2002 -0.2448  0.1950
   53loPI   C2A  840  16.552   7.961   9.008 -0.3787  0.3797  0.2784
   53loPI   C3A  841  16.243   8.175   8.696 -0.0276  0.0904  0.1221
   53loPI   C4A  842  16.287   8.262   8.300 -0.3186 -0.1580 -0.4009
   53loPI   C5A  843  16.249   8.408   7.893 -0.2695 -0.1809 -0.0067
   53loPI   C6A  844  16.004   8.657   7.840  0.2019 -0.1643 -0.0309
   53loPI   C1B  845  16.707   7.359   9.117  0.1424 -0.2326 -0.1856
   53loPI   C2B  846  16.720   7.609   8.727 -0.0132 -0.2936 -0.1333
   53loPI   C3B  847  16.829   7.536   8.283 -0.1489  0.2667  0.4335
   53loPI   C4B  848  16.861   7.283   7.900  0.2189 -0.0524 -0.1036
   54loPI    C1  849   8.931  16.527  10.833  0.0065  0.0657 -0.1627
   54loPI    C2  850   8.885  16.883  10.656 -0.1814  0.1233 -0.0009
   54loPI    C3  851   9.114  16.850  10.982 -0.0055  0.0571 -0.1296
   54loPI   PO4  852   8.969  16.351  10.684 -0.0101 -0.0689  0.1896
   54loPI   GL1  853   8.975  16.429  10.271 -0.2237 -0.0892  0.1259
   54loPI   GL2  854   8.787  16.337  10.225  0.2013  0.0090 -0.0730
   54loPI   C1A  855   9.273  16.469   9.961 -0.1280  0.0566  0.3724
   54loPI   C2A  856   9.418  16.656   9.567  0.0116  0.0745 -0.2142
   54loPI   C3A  857   9.221  16.459   9.180 -0.0922  0.1202  0.2647
   54loPI   C4A  858   9.183  16.505   8.761 -0.1579  0.0683  0.2798
   54loPI   C5A  859   9.159  16.476   8.391  0.2398 -0.1497 -0.1090
   54loPI   C6A  860   9.088  16.743   7.992 -0.0055 -0.0076 -0.0780
   54loPI   C1B  861   8.749  16.414   9.710  0.0729  0.0704 -0.5140
   54loPI   C2B  862   8.776  16.403   9.298 -0.0627  0.0944 -0.0579
   54loPI   C3B  863   8.736  16.447   8.938  0.1552  0.1673 -0.2157
   54loPI   C4B  864   8.639  16.437   8.587 -0.0483  0.0318  0.0958
   55loPI    C1  865   9.569  11.174  11.226 -0.1565 -0.0321 -0.0366
   55loPI    C2  866   9.188  11.244  11.325 -0.1402  0.0764 -0.0491
   55loPI    C3  867   9.431  11.058  11.583 -0.1842  0.0648 -0.0157
   55loPI   PO4  868   9.590  11.494  11.012  0.2910 -0.1344  0.2402
   55loPI   GL1  869   9.515  11.539  10.638  0.1239  0.5590 -0.0333
   55loPI   GL2  870   9.340  11.384  10.419 -0.2107 -0.0778 -0.0331
   55loPI   C1A  871   9.632  11.803  10.369 -0.1076 -0.0986 -0.0146
   55loPI   C2A  872   9.563  11.881   9.904 -0.1459  0.0358  0.1795
   55loPI   C3A  873   9.636  11.893   9.371 -0.3209 -0.1343 -0.2442
   55loPI   C4A  874   9.625  11.855   8.952  0.0039 -0.0661  0.0393
   55loPI   C5A  875   9.872  11.820   8.578 -0.3799 -0.1923  0.0610
   55loPI   C6A  876   9.826  12.117   8.237 -0.2253 -0.2465 -0.0392
   55loPI   C1B  877   9.373  11.396  10.066 -0.1059  0.0670  0.1337
   55loPI   C2B  878   9.337  11.469   9.683  0.2820  0.1638  0.3201
   55loPI   C3B  879   9.477  11.431   9.278  0.0858  0.0717 -0.0722
   55loPI   C4B  880   9.501  11.396   8.766 -0.2396  0.1317 -0.3065
   56loPI    C1  881   5.660  12.972  11.260  0.0934  0.2244  0.1445
   56loPI    C2  882   5.457  13.313  11.313  0.0618  0.2427 -0.0840
   56loPI    C3  883   5.345  12.981  11.506 -0.1360  0.2726 -0.1448
   56loPI   PO4  884   5.648  12.960  10.971  0.1591 -0.0685  0.3207
   56loPI   GL1  885   5.862  13.069  10.615 -0.1875  0.2081  0.1884
   56loPI   GL2  886   5.558  13.197  10.514 -0.1563 -0.0580 -0.0289
   56loPI   C1A  887   5.992  13.071  10.170 -0.0954  0.1368 -0.1681
   56loPI   C2A  888   6.083  13.047   9.767  0.1475 -0.1744 -0.2991
   56loPI   C3A  889   6.120  12.993   9.320  0.4150 -0.1344 -0.1439
   56loPI   C4A  890   6.115  13.046   8.874 -0.1172  0.0737  0.1619
   56loPI   C5A  891   6.054  13.071   8.413 -0.1056 -0.0984 -0.0604
   56loPI   C6A  892   6.097  13.388   8.018  0.1128 -0.3309 -0.0116
   56loPI   C1B  893   5.477  13.044  10.013  0.0955  0.0618  0.0365
   56loPI   C2B  894   5.568  13.068   9.596  0.0114  0.2279  0.0131
   56loPI   C3B  895   5.625  12.983   9.201  0.1874 -0.0452  0.0420
   56loPI   C4B  896   5.590  13.029   8.708  0.2443  0.1408 -0.1613
   57loPI    C1  897   2.593   8.269  10.943  0.0995 -0.1413  0.0201
   57loPI    C2  898   2.234   8.171  11.088 -0.0313  0.1407 -0.1049
   57loPI    C3  899   2.422   8.497  11.223  0.2586 -0.0996  0.0842
   57loPI   PO4  900   2.574   8.192  10.639 -0.2254 -0.1236  0.2419
   57loPI   GL1  901   2.738   8.419  10.258 -0.0337  0.0739  0.1681
   57loPI   GL2  902   2.454   8.384  10.136  0.1085  0.2455  0.2237
   57loPI   C1A  903   2.966   8.489   9.958 -0.2438 -0.1045 -0.0781
   57loPI   C2A  904   2.997   8.661   9.636  0.0873 -0.0023 -0.0943
   57loPI   C3A  905   3.053   8.718   9.219 -0.3622 -0.0548 -0.1129
   57loPI   C4A  906   3.196   8.848   8.863 -0.1093  0.0806  0.2107
   57loPI   C5A  907   3.213   9.051   8.462 -0.3004  0.0727 -0.0603
   57loPI   C6A  908   3.214   9.419   8.313  0.1668  0.0702 -0.4344
   57loPI   C1B  909   2.476   8.578   9.724 -0.1129 -0.2303  0.0192
   57loPI   C2B  910   2.593   8.683   9.303 -0.3965  0.3473  0.4679
   57loPI   C3B  911   2.593   8.754   8.923  0.2988 -0.0459  0.0736
   57loPI   C4B  912   2.580   8.914   8.480 -0.1290 -0.2406 -0.1729
   58loPI    C1  913  17.274   2.314  10.283 -0.0147 -0.2106  0.0914
   58loPI    C2  914  17.033   2.391   9.973 -0.0274 -0.1764  0.1097
   58loPI    C3  915  16.890   2.407  10.347  0.0301 -0.0465  0.1269
   58loPI   PO4  916  17.475   2.142  10.217 -0.0503 -0.0778  0.0554
   58loPI   GL1  917  17.599   2.012   9.875 -0.3761  0.3071 -0.2352
   58loPI   GL2  918  17.784   1.676   9.943  0.1592 -0.0426  0.0840
   58loPI   C1A  919  17.560   2.204   9.533 -0.0917  0.0033  0.6212
   58loPI   C2A  920  17.462   2.180   9.079 -0.1979 -0.2717  0.0422
   58loPI   C3A  921  17.615   1.995   8.694 -0.0401 -0.0743  0.0132
   58loPI   C4A  922  17.481   1.978   8.344 -0.2629 -0.0212 -0.0760
   58loPI   C5A  923  17.590   1.771   7.978 -0.0091 -0.0374  0.4611
   58loPI   C6A  924  17.931   1.582   7.775  0.1660 -0.2127 -0.0984
   58loPI   C1B  925  17.864   1.839   9.515 -0.1853 -0.0539 -0.1670
   58loPI   C2B  926  17.646   1.715   9.163  0.2419  0.0169 -0.0413
   58loPI   C3B  927  17.552   1.516   8.818 -0.3569 -0.0477  0.0597
   58loPI   C4B  928  17.329   1.498   8.480 -0.0286 -0.1097 -0.0289
   59loPI    C1  929  11.542  14.652  11.037  0.1337  0.1082 -0.1632
   59loPI    C2  930  11.188  14.606  11.217  0.2063 -0.2277 -0.0980
   59loPI    C3  931  11.491  14.777  11.414  0.1717 -0.2305 -0.0421
   59loPI   PO4  932  11.568  14.442  10.856  0.0188 -0.0164 -0.0503
   59loPI   GL1  933  11.358  14.368  10.483 -0.2419 -0.0234  0.1092
   59loPI   GL2  934  11.113  14.642  10.490 -0.3273 -0.0148 -0.1301
   59loPI   C1A  935  11.283  14.181  10.130  0.0011 -0.1430 -0.3181
   59loPI   C2A  936  11.212  14.261   9.770 -0.1621 -0.0161  0.1359
   59loPI   C3A  937  11.222  14.324   9.333  0.3230 -0.1744 -0.1028
   59loPI   C4A  938  11.166  14.322   8.940 -0.1130  0.2680  0.0394
   59loPI   C5A  939  11.048  14.010   8.591  0.2515 -0.0351  0.2054
   59loPI   C6A  940  11.024  13.572   8.415  0.0692  0.1062 -0.1467
   59loPI   C1B  941  11.009  14.612  10.044 -0.0926 -0.2037  0.2715
   59loPI   C2B  942  11.009  14.733   9.738  0.1618  0.2417  0.1069
   59loPI   C3B  943  10.898  14.745   9.401  0.0082  0.1195  0.1107
   59loPI   C4B  944  11.006  14.773   8.927  0.2804 -0.1620  0.1177
   60loPI    C1  945   3.100   3.176  10.186 -0.0488  0.0713  0.0041
   60loPI    C2  946   2.886   3.002  10.476 -0.0920 -0.0247 -0.0851
   60loPI    C3  947   2.898   3.400  10.448  0.1593 -0.0063  0.2351
   60loPI   PO4  948   3.377   3.181  10.147  0.1971 -0.2287 -0.0465
   60loPI   GL1  949   3.600   3.194   9.828 -0.1909  0.2062 -0.1996
   60loPI   GL2  950   3.467   3.515   9.800  0.1604  0.2234  0.2579
   60loPI   C1A  951   3.944   3.325   9.601 -0.0921  0.0970 -0.2084
   60loPI   C2A  952   4.182   3.336   9.250 -0.2052 -0.2357  0.1673
   60loPI   C3A  953   4.236   3.385   8.782  0.0740 -0.1647  0.4542
   60loPI   C4A  954   4.245   3.470   8.323  0.2723  0.1434  0.0261
   60loPI   C5A  955   4.007   3.528   7.844  0.0563  0.2496 -0.2107
   60loPI   C6A  956   4.182   3.627   7.490  0.3242 -0.0485  0.0452
   60loPI   C1B  957   3.560   3.310   9.365  0.4522 -0.3090  0.0250
   60loPI   C2B  958   3.624   3.358   8.946  0.1360  0.0208 -0.0931
   60loPI   C3B  959   3.709   3.409   8.441 -0.0096 -0.1239  0.2439
   60loPI   C4B  960   3.552   3.567   8.189 -0.2358  0.0897  0.1067
   61loPI    C1  961  13.205   2.224  11.048  0.0496 -0.2456 -0.3200
   61loPI    C2  962  13.463   2.064  11.309 -0.0456  0.1181  0.0059
   61loPI    C3  963  13.071   1.992  11.345 -0.0596  0.1731 -0.0336
   61loPI   PO4  964  13.290   2.083  10.823  0.0031  0.1284 -0.2213
   61loPI   GL1  965  13.435   1.753  10.513  0.0386 -0.0394 -0.1728
   61loPI   GL2  966  13.428   1.603  10.314 -0.1304 -0.0655 -0.2414
   61loPI   C1A  967  13.478   1.934  10.022  0.0987  0.0818  0.1249
   61loPI   C2A  968  13.444   1.847   9.590  0.0573 -0.1525  0.0182
   61loPI   C3A  969  13.331   1.727   9.196  0.2510 -0.3690  0.0325
   61loPI   C4A  970  13.359   1.703   8.787 -0.1980 -0.2864 -0.1398
   61loPI   C5A  971  13.451   1.703   8.349 -0.1890  0.3335  0.2107
   61loPI   C6A  972  13.784   1.970   8.001  0.1222  0.0279 -0.0310
   61loPI   C1B  973  13.276   1.449   9.880 -0.1313  0.1865  0.0501
   61loPI   C2B  974  13.160   1.294   9.401 -0.0852  0.0144  0.0430
   61loPI   C3B  975  13.116   1.184   8.915 -0.1547 -0.0229  0.2361
   61loPI   C4B  976  12.956   1.414   8.480  0.2372 -0.0920  0.4854
   62loPI    C1  977   2.042   7.322  10.415  0.0265 -0.1716 -0.2294
   62loPI    C2  978   2.169   6.944  10.386 -0.0123 -0.2078  0.0450
   62loPI    C3  979   1.787   7.021  10.476 -0.0225 -0.1021 -0.0853
   62loPI   PO4  980   2.140   7.435  10.180  0.0766  0.0523 -0.3229
   62loPI   GL1  981   2.088   7.574   9.758  0.0308  0.2198 -0.0883
   62loPI   GL2  982   2.128   7.267   9.591 -0.1542 -0.1063 -0.1399
   62loPI   C1A  983   2.077   7.715   9.398  0.0512 -0.0279 -0.2983
   62loPI   C2A  984   2.197   7.846   8.985  0.2021  0.0512 -0.0002
   62loPI   C3A  985   2.259   7.792   8.578  0.1319 -0.0663  0.1542
   62loPI   C4A  986   2.262   8.040   8.275 -0.0444 -0.0348  0.2358
   62loPI   C5A  987   2.270   8.201   7.855  0.1753 -0.0329  0.0801
   62loPI   C6A  988   2.450   8.425   7.518 -0.2820 -0.2508 -0.0129
   62loPI   C1B  989   2.082   7.144   9.259  0.0294  0.0330  0.0141
   62loPI   C2B  990   2.188   7.340   8.918 -0.2501  0.3809  0.0275
   62loPI   C3B  991   2.504   7.423   8.684 -0.0384  0.0986  0.1438
   62loPI   C4B  992   2.436   7.496   8.208  0.1617 -0.0672 -0.0526
   63loPI    C1  993   8.066   1.785  11.008  0.3141 -0.0824 -0.0150
   63loPI    C2  994   8.244   1.461  11.162 -0.1164 -0.1844  0.2876
   63loPI    C3  995   8.040   1.710  11.400  0.0648  0.2211  0.0310
   63loPI   PO4  996   7.976   1.714  10.835 -0.0454  0.0422 -0.1195
   63loPI   GL1  997   8.033   1.821  10.406  0.1712 -0.0281  0.0047
   63loPI   GL2  998   7.950   2.045  10.264 -0.4306 -0.1320  0.0938
   63loPI   C1A  999   8.229   1.400  10.140 -0.0120 -0.2377 -0.1227
   63loPI   C2A 1000   8.199   1.356   9.645 -0.2264 -0.0614 -0.1323
   63loPI   C3A 1001   8.111   1.436   9.235 -0.2234  0.0210 -0.0422
   63loPI   C4A 1002   8.214   1.489   8.727 -0.1825  0.0408  0.0073
   63loPI   C5A 1003   8.201   1.241   8.411  0.1579 -0.0569  0.0386
   63loPI   C6A 1004   7.959   0.822   8.427 -0.1267 -0.4321 -0.0578
   63loPI   C1B 1005   7.907   1.838   9.863  0.1632 -0.0282  0.1776
   63loPI   C2B 1006   7.865   1.859   9.373  0.2000  0.2443 -0.0035
   63loPI   C3B 1007   7.918   1.850   8.998 -0.1773  0.0475  0.1349
   63loPI   C4B 1008   7.834   1.789   8.592 -0.1288 -0.1622  0.2353
   64loPI    C1 1009   3.184  16.409  11.414  0.1914 -0.1856 -0.0944
   64loPI    C2 1010   3.449  16.630  11.616  0.0681 -0.1194 -0.0045
   64loPI    C3 1011   3.098  16.535  11.783  0.0079 -0.1520 -0.1475
   64loPI   PO4 1012   3.333  16.300  11.191  0.1205 -0.1006 -0.1841
   64loPI   GL1 1013   3.539  16.236  10.815 -0.1539 -0.1076 -0.5192
   64loPI   GL2 1014   3.305  16.553  10.670 -0.3231 -0.0050 -0.0789
   64loPI   C1A 1015   3.597  15.981  10.467  0.0426  0.2227  0.4430
   64loPI   C2A 1016   3.486  15.939  10.028 -0.0278 -0.0588 -0.3510
   64loPI   C3A 1017   3.484  15.994   9.592 -0.1665 -0.1909  0.0161
   64loPI   C4A 1018   3.455  15.972   9.143  0.4719  0.2076 -0.2093
   64loPI   C5A 1019   3.678  15.987   8.747  0.1398 -0.0463  0.0254
   64loPI   C6A 1020   3.526  16.091   8.283  0.1670 -0.2042  0.1190
   64loPI   C1B 1021   3.188  16.318  10.312  0.2257  0.0795  0.1226
   64loPI   C2B 1022   3.170  16.321   9.854 -0.4715  0.2255 -0.0687
   64loPI   C3B 1023   3.204  16.437   9.419 -0.0564  0.0970 -0.0454
   64loPI   C4B 1024   3.207  16.422   9.028 -0.2123  0.3210 -0.2260
   65loPI    C1 1025   9.791  10.680  11.305  0.1537  0.3576 -0.2344
   65loPI    C2 1026  10.162  10.736  11.445  0.0356  0.0458  0.2265
   65loPI    C3 1027   9.848  10.770  11.691 -0.2141 -0.0934 -0.0652
   65loPI   PO4 1028   9.818  10.769  11.103  0.4836  0.2749  0.0230
   65loPI   GL1 1029   9.708  10.969  10.778 -0.1133  0.0298  0.5437
   65loPI   GL2 1030   9.394  10.715  10.684 -0.0113 -0.0503  0.1168
   65loPI   C1A 1031   9.628  10.925  10.272  0.0324  0.1139  0.3031
   65loPI   C2A 1032   9.759  10.950   9.904 -0.1188  0.4453  0.1268
   65loPI   C3A 1033   9.785  11.000   9.473 -0.1494 -0.0034  0.0627
   65loPI   C4A 1034   9.814  11.033   9.026  0.1943  0.0075 -0.3907
   65loPI   C5A 1035   9.576  10.817   8.648  0.0150  0.1587 -0.2190
   65loPI   C6A 1036   9.602  10.772   8.227 -0.1250  0.0021  0.0864
   65loPI   C1B 1037   9.370  10.465  10.327 -0.1589  0.0096 -0.1386
   65loPI   C2B 1038   9.525  10.528   9.922  0.0126 -0.1526 -0.0947
   65loPI   C3B 1039   9.561  10.481   9.437 -0.1844  0.3557  0.1900
   65loPI   C4B 1040   9.589  10.510   9.064  0.1796  0.2629  0.1431
   66loPI    C1 1041  14.317   6.259  10.415 -0.1642 -0.2864 -0.0634
   66loPI    C2 1042  14.635   6.094  10.238  0.1996  0.0860  0.2244
   66loPI    C3 1043  14.597   6.078  10.636 -0.1601  0.0209  0.1908
   66loPI   PO4 1044  14.150   6.096  10.277  0.1537 -0.0269 -0.4090
   66loPI   GL1 1045  14.069   6.051   9.885  0.1762  0.0990  0.3170
   66loPI   GL2 1046  14.302   6.204   9.761  0.0384  0.0182  0.2094
   66loPI   C1A 1047  13.981   5.857   9.506 -0.1029  0.1625 -0.1772
   66loPI   C2A 1048  14.021   5.865   9.049 -0.0773  0.1496 -0.3067
   66loPI   C3A 1049  13.897   6.022   8.614 -0.0502 -0.1045 -0.1510
   66loPI   C4A 1050  14.068   5.975   8.216 -0.1255  0.0830 -0.1220
   66loPI   C5A 1051  14.570   6.074   8.092 -0.1670  0.2972  0.0755
   66loPI   C6A 1052  14.777   5.846   7.913  0.2153 -0.0173  0.2028
   66loPI   C1B 1053  14.187   6.375   9.331  0.0107 -0.1356  0.3190
   66loPI   C2B 1054  14.171   6.472   8.908  0.0630  0.2475  0.2582
   66loPI   C3B 1055  14.089   6.584   8.452 -0.3719  0.2503  0.4181
   66loPI   C4B 1056  14.152   6.436   8.002  0.1181  0.1157  0.1482
   67loPI    C1 1057   8.093  10.847  11.070 -0.0098 -0.1254 -0.1464
   67loPI    C2 1058   8.460  10.994  11.013  0.0383 -0.1851  0.0060
   67loPI    C3 1059   8.293  11.009  11.376 -0.3162  0.3098 -0.1664
   67loPI   PO4 1060   8.011  10.579  10.910  0.1394 -0.2601 -0.1560
   67loPI   GL1 1061   7.902  10.744  10.601  0.0891  0.1881 -0.1247
   67loPI   GL2 1062   7.554  10.747  10.484  0.1061  0.0427 -0.2109
   67loPI   C1A 1063   8.067  10.860  10.336  0.1077  0.1013 -0.0298
   67loPI   C2A 1064   8.063  10.879   9.844  0.3517 -0.2531 -0.1006
   67loPI   C3A 1065   8.160  10.967   9.335 -0.1844  0.1296  0.2790
   67loPI   C4A 1066   8.100  10.910   8.842 -0.1865 -0.0355 -0.2821
   67loPI   C5A 1067   8.074  11.082   8.428  0.4288 -0.0954  0.1137
   67loPI   C6A 1068   7.868  11.166   8.085 -0.2863 -0.1440  0.0434
   67loPI   C1B 1069   7.631  10.822  10.081 -0.1010 -0.2917 -0.4617
   67loPI   C2B 1070   7.553  10.874   9.719 -0.2434  0.0356  0.1365
   67loPI   C3B 1071   7.601  10.972   9.305 -0.2064 -0.0665 -0.1145
   67loPI   C4B 1072   7.607  10.903   8.843 -0.2157 -0.1623 -0.1562
   68loPI    C1 1073  13.521  14.315  11.253  0.0942  0.2652  0.0802
   68loPI    C2 1074  13.636  14.016  11.493  0.0973  0.0124 -0.2290
   68loPI    C3 1075  13.363  14.280  11.618 -0.0650 -0.2460 -0.0295
   68loPI   PO4 1076  13.390  14.202  11.047  0.1090 -0.2233 -0.1167
   68loPI   GL1 1077  13.595  14.250  10.634 -0.1070  0.1742  0.1373
   68loPI   GL2 1078  13.421  14.535  10.596  0.0776 -0.1801  0.1315
   68loPI   C1A 1079  13.227  14.010  10.329  0.2612  0.0441 -0.1774
   68loPI   C2A 1080  13.270  13.980   9.916 -0.1161  0.0144  0.1176
   68loPI   C3A 1081  13.105  13.911   9.500 -0.0315  0.0349  0.1422
   68loPI   C4A 1082  13.121  14.003   9.027  0.0689  0.3088  0.2896
   68loPI   C5A 1083  13.158  14.104   8.612 -0.2153 -0.0823 -0.0436
   68loPI   C6A 1084  13.276  14.465   8.437  0.5353 -0.2230 -0.0119
   68loPI   C1B 1085  13.328  14.425  10.151  0.2004 -0.0577  0.3074
   68loPI   C2B 1086  13.293  14.481   9.744  0.2864 -0.0495  0.0485
   68loPI   C3B 1087  13.413  14.509   9.341  0.0952 -0.0524 -0.0383
   68loPI   C4B 1088  13.515  14.455   8.840 -0.0373  0.0234 -0.1105
   69loPI    C1 1089   5.126  13.671  11.087  0.0380 -0.0308  0.0855
   69loPI    C2 1090   5.047  13.904  11.402  0.1286  0.1359 -0.0137
   69loPI    C3 1091   4.983  13.510  11.424 -0.0473  0.1720  0.1477
   69loPI   PO4 1092   4.978  13.875  10.896  0.1073  0.0564  0.1864
   69loPI   GL1 1093   5.067  14.266  10.656 -0.1440 -0.0445  0.1018
   69loPI   GL2 1094   4.726  14.297  10.721  0.1851  0.1429  0.2786
   69loPI   C1A 1095   5.153  14.328  10.133 -0.2774  0.0004  0.1096
   69loPI   C2A 1096   5.288  14.437   9.791  0.0154  0.1326  0.0929
   69loPI   C3A 1097   5.296  14.358   9.400 -0.0177  0.0051 -0.5870
   69loPI   C4A 1098   5.288  14.345   9.009  0.0280  0.1357 -0.1986
   69loPI   C5A 1099   5.556  13.962   8.696  0.0700  0.1217  0.1353
   69loPI   C6A 1100   5.546  14.011   8.219 -0.0245  0.0851  0.0073
   69loPI   C1B 1101   4.580  14.229  10.271  0.0193  0.1054 -0.1732
   69loPI   C2B 1102   4.704  14.271   9.923 -0.1120  0.3744  0.0925
   69loPI   C3B 1103   4.728  14.314   9.457  0.1074  0.1977  0.2274
   69loPI   C4B 1104   4.592  14.381   9.034 -0.1583 -0.1174 -0.0570
   70loPI    C1 1105   6.701   1.037  10.948 -0.0196 -0.3279  0.1193
   70loPI    C2 1106   6.387   1.056  11.195  0.0960 -0.2516  0.2620
   70loPI    C3 1107   6.640   1.365  11.168 -0.0000 -0.1975 -0.0669
   70loPI   PO4 1108   6.686   0.905  10.775 -0.0048  0.1942  0.0923
   70loPI   GL1 1109   6.354   0.807  10.391  0.1963 -0.0210 -0.2284
   70loPI   GL2 1110   6.568   0.535  10.318 -0.2079  0.0862 -0.2367
   70loPI   C1A 1111   6.475   0.807   9.906 -0.0952  0.0656 -0.1384
   70loPI   C2A 1112   6.449   0.729   9.402  0.0452 -0.0711 -0.3508
   70loPI   C3A 1113   6.377   0.786   8.905 -0.1449 -0.0076  0.1027
   70loPI   C4A 1114   6.267   0.681   8.446 -0.0352  0.1357  0.3227
   70loPI   C5A 1115   6.094   0.473   8.078 -0.2148  0.0735  0.0609
   70loPI   C6A 1116   5.957   0.380   7.621 -0.0665 -0.4864 -0.2305
   70loPI   C1B 1117   6.773   0.312   9.887 -0.0569  0.0371  0.2271
   70loPI   C2B 1118   6.821   0.299   9.415 -0.1358  0.2365 -0.0456
   70loPI   C3B 1119   6.797   0.454   9.087  0.2401  0.1499 -0.0503
   70loPI   C4B 1120   6.714   0.586   8.569  0.1839  0.0839 -0.0437
   71loPI    C1 1121   1.809  11.347  11.140  0.0224  0.1844  0.1710
   71loPI    C2 1122   2.074  11.548  11.363  0.1620 -0.0789  0.2458
   71loPI    C3 1123   1.968  11.176  11.464 -0.0817 -0.0515  0.0993
   71loPI   PO4 1124   1.845  11.463  10.870  0.2368  0.2757 -0.0577
   71loPI   GL1 1125   2.025  11.549  10.608 -0.1805  0.1584  0.0949
   71loPI   GL2 1126   2.335  11.458  10.507 -0.1755 -0.3531  0.0019
   71loPI   C1A 1127   2.087  11.848  10.302  0.1436  0.4021 -0.1449
   71loPI   C2A 1128   2.007  11.896   9.872  0.0855  0.1468 -0.2272
   71loPI   C3A 1129   2.017  11.853   9.480  0.1673 -0.1770 -0.0241
   71loPI   C4A 1130   2.118  11.890   9.056  0.1643  0.1941  0.0385
   71loPI   C5A 1131   2.135  11.943   8.635 -0.0281 -0.0449 -0.0973
   71loPI   C6A 1132   1.965  12.122   8.328  0.3290 -0.1955 -0.2523
   71loPI   C1B 1133   2.335  11.488  10.098 -0.0133  0.0473 -0.0241
   71loPI   C2B 1134   2.370  11.449   9.684  0.0275 -0.1467 -0.0480
   71loPI   C3B 1135   2.229  11.400   9.210  0.0580  0.0002  0.0534
   71loPI   C4B 1136   2.244  11.448   8.810 -0.0870  0.2791 -0.2952
   72loPI    C1 1137  14.218  15.251  10.962  0.0295  0.0296 -0.0037
   72loPI    C2 1138  14.056  15.064  11.276  0.1676  0.0428  0.0765
   72loPI    C3 1139  14.362  15.315  11.330  0.0171  0.2539 -0.0368
   72loPI   PO4 1140  14.129  15.049  10.791 -0.0881  0.1752  0.0927
   72loPI   GL1 1141  13.954  15.062  10.401  0.1787  0.0182 -0.2164
   72loPI   GL2 1142  13.642  15.000  10.546  0.4778  0.0169  0.1194
   72loPI   C1A 1143  14.158  14.956  10.078 -0.1134 -0.0282  0.1198
   72loPI   C2A 1144  14.114  14.903   9.706  0.1820 -0.1028  0.2419
   72loPI   C3A 1145  14.192  15.007   9.187 -0.0936  0.0624 -0.0594
   72loPI   C4A 1146  14.143  14.818   8.856 -0.1025 -0.0846 -0.1214
   72loPI   C5A 1147  13.987  14.635   8.558 -0.0617  0.1738  0.0318
   72loPI   C6A 1148  13.661  14.733   8.216 -0.1122 -0.0094  0.1879
   72loPI   C1B 1149  13.574  14.885  10.106  0.0979 -0.0497  0.2664
   72loPI   C2B 1150  13.622  14.911   9.657 -0.1661 -0.2116  0.3516
   72loPI   C3B 1151  13.640  14.989   9.206  0.3869 -0.0978  0.1421
   72loPI   C4B 1152  13.653  15.003   8.717  0.2074 -0.3275 -0.1356
   73loPI    C1 1153   8.092   4.867  11.029  0.0313 -0.0874  0.0742
   73loPI    C2 1154   8.110   4.471  10.976 -0.2085 -0.0727 -0.1354
   73loPI    C3 1155   8.428   4.669  11.116 -0.1844 -0.3801  0.2610
   73loPI   PO4 1156   8.008   4.947  10.837  0.3461 -0.1076 -0.0750
   73loPI   GL1 1157   7.738   4.965  10.407  0.0437  0.2993  0.3314
   73loPI   GL2 1158   7.470   4.844  10.487 -0.2083  0.0757 -0.0532
   73loPI   C1A 1159   7.915   4.940   9.950  0.0726  0.1878 -0.1092
   73loPI   C2A 1160   7.811   4.988   9.498  0.3023  0.1384  0.0603
   73loPI   C3A 1161   7.817   4.975   9.123  0.1123  0.4588 -0.0962
   73loPI   C4A 1162   7.894   5.050   8.698 -0.3055 -0.1850  0.2440
   73loPI   C5A 1163   8.330   5.135   8.597 -0.1786  0.0223 -0.1269
   73loPI   C6A 1164   8.511   5.516   8.550  0.5427 -0.3121  0.1008
   73loPI   C1B 1165   7.364   4.970  10.080  0.2022 -0.1432  0.4120
   73loPI   C2B 1166   7.269   4.915   9.567  0.3527  0.1018 -0.3691
   73loPI   C3B 1167   7.311   5.070   9.180 -0.1723 -0.0794 -0.0952
   73loPI   C4B 1168   7.424   4.944   8.732  0.2502 -0.0226 -0.2166
   74loPI    C1 1169  14.950   1.753  10.726  0.0906 -0.0599  0.3346
   74loPI    C2 1170  14.650   1.975  10.870 -0.2282 -0.0454 -0.3140
   74loPI    C3 1171  14.660   1.581  10.940 -0.1797  0.0149  0.0366
   74loPI   PO4 1172  14.984   1.859  10.459  0.1295  0.0418 -0.2092
   74loPI   GL1 1173  14.775   1.966  10.100 -0.2521 -0.1652  0.0092
   74loPI   GL2 1174  14.906   1.759   9.965  0.2268 -0.0467 -0.1529
   74loPI   C1A 1175  14.591   2.081   9.649  0.1196  0.1123  0.0094
   74loPI   C2A 1176  14.413   1.941   9.323 -0.0111  0.1047 -0.0124
   74loPI   C3A 1177  14.411   1.828   8.912 -0.4968 -0.4292  0.1511
   74loPI   C4A 1178  14.359   1.645   8.445 -0.2388  0.0679 -0.0975
   74loPI   C5A 1179  14.116   1.528   8.147 -0.3879 -0.2688 -0.2572
   74loPI   C6A 1180  14.153   1.643   7.759 -0.2067  0.1233 -0.1632
   74loPI   C1B 1181  14.863   1.651   9.496 -0.2752 -0.1228 -0.0117
   74loPI   C2B 1182  14.757   1.542   9.083 -0.0003  0.3824 -0.1956
   74loPI   C3B 1183  14.621   1.321   8.747 -0.0184 -0.0310  0.3149
   74loPI   C4B 1184  14.768   1.360   8.395 -0.0814 -0.0139 -0.0793
   75loPI    C1 1185   7.010   8.633  11.278  0.2046 -0.1433  0.0654
   75loPI    C2 1186   6.646   8.604  11.439  0.2030  0.2990  0.1534
   75loPI    C3 1187   6.962   8.683  11.671  0.3286  0.1063  0.0509
   75loPI   PO4 1188   7.127   8.445  11.056  0.1186  0.3251 -0.2342
   75loPI   GL1 1189   7.282   8.420  10.717 -0.1310 -0.1761 -0.0559
   75loPI   GL2 1190   6.958   8.476  10.589 -0.0068  0.0286 -0.1677
   75loPI   C1A 1191   7.466   8.521  10.238  0.1464 -0.1082  0.2157
   75loPI   C2A 1192   7.510   8.687   9.892 -0.2371  0.1681  0.3239
   75loPI   C3A 1193   7.651   8.683   9.436  0.1311 -0.0167 -0.2724
   75loPI   C4A 1194   7.601   8.676   9.055 -0.1552  0.1689 -0.0086
   75loPI   C5A 1195   7.659   8.659   8.561 -0.4347 -0.1413 -0.1893
   75loPI   C6A 1196   7.912   8.505   8.209  0.0580 -0.3366  0.1158
   75loPI   C1B 1197   6.986   8.501  10.102  0.1836 -0.1923 -0.2470
   75loPI   C2B 1198   6.900   8.600   9.656 -0.1884 -0.1971  0.0424
   75loPI   C3B 1199   7.032   8.637   9.218 -0.0739  0.0422 -0.2431
   75loPI   C4B 1200   7.104   8.672   8.823  0.2399 -0.0539  0.0057
   76loPI    C1 1201  10.238   2.867  10.886  0.0530 -0.2803 -0.0773
   76loPI    C2 1202   9.898   2.821  11.092  0.1270 -0.1874  0.0680
   76loPI    C3 1203  10.251   2.783  11.277  0.1945 -0.0594 -0.0323
   76loPI   PO4 1204  10.128   2.944  10.671  0.1191 -0.1180  0.1670
   76loPI   GL1 1205  10.198   3.182  10.361  0.0472  0.2931 -0.0418
   76loPI   GL2 1206   9.980   2.890  10.172  0.2198 -0.1095  0.2396
   76loPI   C1A 1207  10.112   3.389   9.944  0.2352  0.2032  0.0033
   76loPI   C2A 1208  10.050   3.275   9.529 -0.0937 -0.2706  0.0407
   76loPI   C3A 1209  10.099   3.335   9.093  0.0849 -0.0017  0.0576
   76loPI   C4A 1210  10.324   3.315   8.771  0.1724  0.0899 -0.0005
   76loPI   C5A 1211  10.537   3.464   8.329 -0.0070 -0.0073  0.0721
   76loPI   C6A 1212  10.531   3.547   7.978 -0.0666  0.0275 -0.3340
   76loPI   C1B 1213   9.912   2.825   9.731  0.0221  0.3121 -0.0610
   76loPI   C2B 1214   9.945   2.752   9.273 -0.0958  0.3057 -0.1185
   76loPI   C3B 1215  10.021   2.863   8.899  0.3896 -0.0655 -0.0155
   76loPI   C4B 1216  10.029   2.931   8.482  0.2710 -0.2196  0.2472
   77loPI    C1 1217   7.427  17.655  11.051  0.0148  0.0195 -0.0401
   77loPI    C2 1218   7.715  17.931  11.090 -0.0594  0.0893  0.0172
   77loPI    C3 1219   7.633  17.683  11.393 -0.1406  0.1490  0.0445
   77loPI   PO4 1220   7.569  17.598  10.749 -0.0376 -0.0817 -0.2007
   77loPI   GL1 1221   7.447  17.680  10.433 -0.1193 -0.1054  0.1090
   77loPI   GL2 1222   7.852  17.678  10.317 -0.1406 -0.0366 -0.1939
   77loPI   C1A 1223   7.396  17.634   9.988 -0.0275  0.0433  0.0657
   77loPI   C2A 1224   7.277  17.637   9.541  0.0702  0.0399 -0.3676
   77loPI   C3A 1225   7.279  17.634   9.107  0.0552 -0.2326  0.2129
   77loPI   C4A 1226   7.352  17.549   8.695  0.2511 -0.1774 -0.0682
   77loPI   C5A 1227   7.471  17.365   8.348  0.1771  0.0759 -0.3624
   77loPI   C6A 1228   7.776  17.350   8.090  0.0941 -0.2694  0.0949
   77loPI   C1B 1229   7.903  17.702   9.949  0.2097  0.2079  0.3363
   77loPI   C2B 1230   7.869  17.667   9.585 -0.2069  0.3150  0.1939
   77loPI   C3B 1231   7.903  17.600   9.067  0.0442  0.2565 -0.1290
   77loPI   C4B 1232   7.845  17.613   8.597 -0.1169  0.0479  0.1196
   78loPI    C1 1233   5.182  12.541  11.167 -0.1849  0.0619 -0.0191
   78loPI    C2 1234   4.806  12.517  11.302 -0.2135 -0.0198 -0.1124
   78loPI    C3 1235   5.110  12.534  11.561 -0.2719 -0.1104 -0.0369
   78loPI   PO4 1236   5.230  12.687  10.995  0.1557  0.0247  0.5100
   78loPI   GL1 1237   5.175  12.839  10.660 -0.4167 -0.0448  0.0721
   78loPI   GL2 1238   5.399  12.659  10.483 -0.3944 -0.2968 -0.1725
   78loPI   C1A 1239   5.011  12.839  10.203 -0.0869  0.0981 -0.0175
   78loPI   C2A 1240   5.042  12.906   9.751  0.3110 -0.0076 -0.1926
   78loPI   C3A 1241   5.143  12.926   9.314 -0.1534 -0.1359 -0.0942
   78loPI   C4A 1242   5.115  13.056   8.916  0.0653 -0.2867 -0.0675
   78loPI   C5A 1243   5.142  13.013   8.504 -0.2247 -0.3484  0.1240
   78loPI   C6A 1244   5.211  13.079   8.068 -0.3668 -0.1144  0.0983
   78loPI   C1B 1245   5.344  12.503  10.115 -0.0082  0.0373 -0.4154
   78loPI   C2B 1246   5.448  12.612   9.751  0.0803  0.0335 -0.3588
   78loPI   C3B 1247   5.363  12.438   9.343 -0.0233  0.0163 -0.3024
   78loPI   C4B 1248   5.378  12.498   8.918  0.0458 -0.4151 -0.0498
   79loPI    C1 1249  16.627  10.994  11.015 -0.0523 -0.0101 -0.0987
   79loPI    C2 1250  16.816  10.642  11.000 -0.0649 -0.0197 -0.0320
   79loPI    C3 1251  16.760  10.825  11.352  0.0776  0.1233 -0.0819
   79loPI   PO4 1252  16.715  11.096  10.743  0.1054  0.0133  0.1010
   79loPI   GL1 1253  17.132  11.190  10.485  0.2315 -0.0851 -0.2362
   79loPI   GL2 1254  16.955  11.479  10.485  0.0897 -0.1512  0.1698
   79loPI   C1A 1255  17.327  10.987  10.116 -0.3857 -0.1876  0.0125
   79loPI   C2A 1256  17.354  10.978   9.668  0.1967  0.0068  0.0407
   79loPI   C3A 1257  17.346  11.074   9.216  0.2652 -0.2230 -0.0920
   79loPI   C4A 1258  17.433  11.122   8.784  0.0659  0.0964  0.1221
   79loPI   C5A 1259  17.414  10.999   8.356  0.0013  0.1428  0.0115
   79loPI   C6A 1260  17.049  11.237   8.048  0.1281  0.1488 -0.0708
   79loPI   C1B 1261  17.028  11.321  10.009  0.0844  0.2033 -0.0439
   79loPI   C2B 1262  17.043  11.365   9.495 -0.0044 -0.5566 -0.0398
   79loPI   C3B 1263  17.179  11.460   8.965  0.0754 -0.2318 -0.1760
   79loPI   C4B 1264  17.292  11.502   8.519 -0.0643  0.2660  0.1642
   80loPI    C1 1265   2.306  13.300  11.534  0.1363  0.2445  0.1461
   80loPI    C2 1266   2.609  13.041  11.507 -0.0822 -0.0008 -0.0010
   80loPI    C3 1267   2.284  12.946  11.719 -0.2436  0.0739 -0.2116
   80loPI   PO4 1268   2.362  13.382  11.153  0.1578  0.0087  0.5369
   80loPI   GL1 1269   2.695  13.332  10.855 -0.1683 -0.0542  0.0515
   80loPI   GL2 1270   2.566  13.233  10.558  0.0870 -0.1047  0.1587
   80loPI   C1A 1271   2.816  13.630  10.439  0.0049 -0.0552 -0.2456
   80loPI   C2A 1272   2.875  13.703  10.069  0.0508 -0.4136  0.0148
   80loPI   C3A 1273   3.017  13.742   9.633 -0.2179  0.2128  0.0545
   80loPI   C4A 1274   2.941  13.710   9.190  0.0762 -0.2867  0.1094
   80loPI   C5A 1275   3.062  13.677   8.728 -0.3072 -0.0819  0.0249
   80loPI   C6A 1276   3.172  13.537   8.307  0.1140 -0.4837 -0.1758
   80loPI   C1B 1277   2.617  13.241  10.121 -0.1316 -0.0667  0.0630
   80loPI   C2B 1278   2.624  13.226   9.608 -0.0768  0.0782  0.0993
   80loPI   C3B 1279   2.691  13.315   9.215  0.1408 -0.0353  0.0613
   80loPI   C4B 1280   2.777  13.307   8.825 -0.0485 -0.2407  0.1517
   81loPI    C1 1281  18.159   7.315  10.243 -0.0718 -0.0415  0.0709
   81loPI    C2 1282  18.365   7.538  10.503 -0.1856  0.0332  0.0973
   81loPI    C3 1283  18.427   7.143  10.486 -0.0013  0.0626  0.0674
   81loPI   PO4 1284  18.179   7.480  10.059 -0.2201  0.0830 -0.1816
   81loPI   GL1 1285  18.091   7.471   9.658 -0.0051  0.1428  0.2090
   81loPI   GL2 1286  18.255   7.785   9.689 -0.4005  0.1821 -0.0842
   81loPI   C1A 1287  18.096   7.678   9.238  0.3952 -0.2386  0.0033
   81loPI   C2A 1288  18.071   7.958   8.878  0.1527  0.2063  0.4441
   81loPI   C3A 1289  17.892   8.200   8.582  0.0529 -0.1895 -0.0120
   81loPI   C4A 1290  17.626   8.193   8.256  0.2109 -0.1153 -0.3036
   81loPI   C5A 1291  17.160   8.202   8.311 -0.3591 -0.3007 -0.0648
   81loPI   C6A 1292  16.760   8.406   8.155  0.4124 -0.0631 -0.0124
   81loPI   C1B 1293  18.438   8.013   9.438  0.0526  0.1844  0.2705
   81loPI   C2B 1294  18.476   8.094   9.075  0.1349 -0.3859  0.0269
   81loPI   C3B 1295  18.551   8.169   8.670 -0.2633 -0.0719 -0.0785
   81loPI   C4B 1296  18.669   8.075   8.274  0.3224  0.0927  0.0619
   82loPI    C1 1297  16.207   0.958  10.418 -0.0506  0.1777 -0.2039
   82loPI    C2 1298  15.960   1.193  10.628 -0.0251  0.0637 -0.0448
   82loPI    C3 1299  16.312   1.084  10.783  0.0232  0.0328 -0.1747
   82loPI   PO4 1300  16.055   1.086  10.129  0.1213 -0.1187  0.0338
   82loPI   GL1 1301  16.156   1.275   9.775  0.1703  0.2090  0.0425
   82loPI   GL2 1302  16.296   0.942   9.610 -0.0266  0.0831  0.2217
   82loPI   C1A 1303  16.233   1.363   9.333 -0.5295  0.1135 -0.0363
   82loPI   C2A 1304  16.203   1.247   8.920  0.0743 -0.2715  0.0886
   82loPI   C3A 1305  16.289   1.047   8.472  0.2264  0.0171  0.1863
   82loPI   C4A 1306  16.438   1.101   7.992  0.1517 -0.3240 -0.0801
   82loPI   C5A 1307  16.710   0.947   7.711  0.0198  0.2935 -0.0604
   82loPI   C6A 1308  16.377   0.655   7.537 -0.0368 -0.0098 -0.0500
   82loPI   C1B 1309  16.191   0.859   9.173 -0.1580 -0.1782 -0.0826
   82loPI   C2B 1310  16.201   0.623   8.779  0.0528  0.2089 -0.1413
   82loPI   C3B 1311  16.370   0.504   8.386 -0.0451  0.1757  0.2239
   82loPI   C4B 1312  16.589   0.365   8.048  0.4024  0.1514  0.1913
   83loPI    C1 1313  14.717  17.541  10.904  0.0756 -0.0207  0.0764
   83loPI    C2 1314  14.542  17.298  11.169  0.0219  0.1607  0.2095
   83loPI    C3 1315  14.931  17.257  11.086 -0.0049 -0.0213  0.1710
   83loPI   PO4 1316  14.526  17.466  10.642 -0.3629  0.0938  0.0358
   83loPI   GL1 1317  14.303  17.448  10.309  0.0173 -0.2782 -0.3378
   83loPI   GL2 1318  14.442  17.048  10.172 -0.0191  0.1091 -0.1977
   83loPI   C1A 1319  14.180  17.404   9.860 -0.2458 -0.0533  0.1757
   83loPI   C2A 1320  14.205  17.263   9.514 -0.0925 -0.3608 -0.1260
   83loPI   C3A 1321  14.212  17.260   9.122 -0.1281 -0.0178  0.3524
   83loPI   C4A 1322  14.136  17.231   8.753  0.1395 -0.1028 -0.1665
   83loPI   C5A 1323  14.188  17.154   8.292 -0.1671  0.3250 -0.1933
   83loPI   C6A 1324  14.335  16.916   7.978  0.0283 -0.0452 -0.0131
   83loPI   C1B 1325  14.542  16.857   9.848 -0.3252 -0.1341  0.2468
   83loPI   C2B 1326  14.525  16.918   9.378 -0.1974  0.3439 -0.2877
   83loPI   C3B 1327  14.486  16.785   9.085 -0.0555  0.2149 -0.0341
   83loPI   C4B 1328  14.408  16.724   8.612 -0.0155 -0.0641  0.1028
   84loPI    C1 1329  10.369  16.662  11.242 -0.0957 -0.2121 -0.0040
   84loPI    C2 1330   9.999  16.690  11.092 -0.0827 -0.0716 -0.0118
   84loPI    C3 1331  10.119  16.351  11.269 -0.1408 -0.1944 -0.2043
   84loPI   PO4 1332  10.492  16.711  10.900 -0.1548  0.3064 -0.0944
   84loPI   GL1 1333  10.734  16.819  10.415  0.2051  0.0536 -0.2919
   84loPI   GL2 1334  11.009  16.744  10.355 -0.0808 -0.0896  0.1206
   84loPI   C1A 1335  10.613  16.996  10.031  0.1687 -0.0435 -0.3683
   84loPI   C2A 1336  10.540  17.064   9.554 -0.3431 -0.1612  0.3166
   84loPI   C3A 1337  10.483  16.958   9.166  0.0067  0.0582  0.2565
   84loPI   C4A 1338  10.472  16.958   8.789 -0.1884 -0.1522  0.0380
   84loPI   C5A 1339  10.471  17.148   8.401  0.3570  0.0878  0.1706
   84loPI   C6A 1340  10.294  17.363   8.079 -0.1320  0.0560 -0.2336
   84loPI   C1B 1341  10.865  16.493   9.922  0.1873  0.0504  0.0080
   84loPI   C2B 1342  10.902  16.600   9.506 -0.2057 -0.0826  0.0009
   84loPI   C3B 1343  10.864  16.484   9.148 -0.0109  0.2262  0.0604
   84loPI   C4B 1344  10.769  16.601   8.710 -0.3379  0.1182 -0.1283
   85loPI    C1 1345   1.824   3.547  10.419  0.2402 -0.0062  0.0606
   85loPI    C2 1346   1.966   3.337  10.729 -0.0561 -0.0497  0.1703
   85loPI    C3 1347   1.616   3.528  10.761  0.0059  0.1086 -0.0732
   85loPI   PO4 1348   1.890   3.366  10.234 -0.1468 -0.1675  0.2735
   85loPI   GL1 1349   1.690   3.224   9.763 -0.1684 -0.1219 -0.1081
   85loPI   GL2 1350   1.639   3.509   9.504  0.0587  0.0320 -0.1695
   85loPI   C1A 1351   1.915   3.129   9.387  0.0220 -0.3060  0.1303
   85loPI   C2A 1352   1.998   3.081   8.966  0.0006 -0.2768  0.1028
   85loPI   C3A 1353   2.047   3.137   8.548 -0.1810 -0.1226  0.0807
   85loPI   C4A 1354   2.088   3.066   8.063 -0.1753 -0.0599 -0.0111
   85loPI   C5A 1355   2.267   2.775   7.680 -0.1784  0.0697 -0.1537
   85loPI   C6A 1356   2.294   2.856   7.259  0.1142  0.0646 -0.0099
   85loPI   C1B 1357   1.702   3.441   9.013  0.1217  0.0551  0.0504
   85loPI   C2B 1358   1.675   3.576   8.592  0.0861 -0.0282 -0.3780
   85loPI   C3B 1359   1.866   3.517   8.217 -0.2967 -0.0498  0.1951
   85loPI   C4B 1360   1.672   3.512   7.774 -0.0425  0.0658 -0.0936
   86loPI    C1 1361   8.799   1.296  11.026 -0.0007  0.1841 -0.0090
   86loPI    C2 1362   8.714   1.656  11.179 -0.1036  0.0799  0.1823
   86loPI    C3 1363   8.770   1.343  11.422  0.1331 -0.0032  0.0239
   86loPI   PO4 1364   8.644   1.292  10.856  0.1997  0.1467  0.0762
   86loPI   GL1 1365   8.595   1.140  10.456 -0.1769 -0.2129 -0.1652
   86loPI   GL2 1366   8.708   1.413  10.343  0.0943 -0.1258 -0.0959
   86loPI   C1A 1367   8.503   1.024  10.010  0.0104  0.0364  0.0493
   86loPI   C2A 1368   8.494   0.911   9.566  0.0083  0.0711 -0.1567
   86loPI   C3A 1369   8.450   0.885   9.239  0.1887 -0.2351  0.2973
   86loPI   C4A 1370   8.471   0.881   8.732  0.1397  0.0201 -0.0956
   86loPI   C5A 1371   8.413   0.766   8.291 -0.1104 -0.1120 -0.1717
   86loPI   C6A 1372   8.322   0.770   7.823 -0.0023  0.0982  0.2163
   86loPI   C1B 1373   8.787   1.426   9.869 -0.0915 -0.3043  0.2156
   86loPI   C2B 1374   8.658   1.325   9.385 -0.1159 -0.2071 -0.1068
   86loPI   C3B 1375   8.630   1.365   8.920  0.0753 -0.0381 -0.0060
   86loPI   C4B 1376   8.844   1.514   8.633  0.2720  0.2624  0.1712
   87loPI    C1 1377  11.975  14.118  11.224 -0.2413 -0.1440  0.1575
   87loPI    C2 1378  11.622  14.270  11.336 -0.1064  0.2186  0.1054
   87loPI    C3 1379  11.953  14.493  11.362  0.1141 -0.1018  0.1088
   87loPI   PO4 1380  11.932  14.030  10.940  0.2189  0.0220 -0.1108
   87loPI   GL1 1381  12.045  13.996  10.482 -0.0005 -0.1285  0.1082
   87loPI   GL2 1382  11.833  14.314  10.410 -0.3643 -0.1389  0.1808
   87loPI   C1A 1383  12.100  13.901  10.089  0.3800 -0.0122 -0.0540
   87loPI   C2A 1384  12.066  13.863   9.588 -0.3737  0.3011 -0.3219
   87loPI   C3A 1385  12.079  13.989   9.239 -0.0486  0.0721  0.2148
   87loPI   C4A 1386  12.232  14.011   8.754  0.2246 -0.2003 -0.1222
   87loPI   C5A 1387  12.072  13.664   8.384 -0.0412 -0.2911  0.1087
   87loPI   C6A 1388  11.575  13.553   8.283  0.1787  0.0782  0.1005
   87loPI   C1B 1389  11.702  14.347  10.040 -0.0242  0.0891 -0.3282
   87loPI   C2B 1390  11.745  14.220   9.617  0.3370  0.0696 -0.1217
   87loPI   C3B 1391  11.720  14.418   9.215  0.0543 -0.2103 -0.0805
   87loPI   C4B 1392  11.720  14.616   8.807 -0.0804  0.0594  0.0788
   88loPI    C1 1393   5.117   2.752  11.048 -0.0381 -0.2283 -0.1140
   88loPI    C2 1394   5.456   2.555  11.128 -0.0475 -0.2041 -0.0135
   88loPI    C3 1395   5.132   2.497  11.355  0.1055  0.3307  0.3623
   88loPI   PO4 1396   5.161   2.756  10.729 -0.1419  0.0413  0.2638
   88loPI   GL1 1397   5.202   2.481  10.398 -0.1270  0.1682 -0.3398
   88loPI   GL2 1398   4.921   2.434  10.382 -0.1251  0.0496  0.1392
   88loPI   C1A 1399   5.178   2.495   9.880 -0.0156 -0.3332  0.1158
   88loPI   C2A 1400   5.188   2.542   9.479 -0.1106 -0.1687  0.0282
   88loPI   C3A 1401   5.281   2.577   9.030 -0.0135  0.2476  0.2966
   88loPI   C4A 1402   5.354   2.472   8.650  0.1396 -0.1970  0.0660
   88loPI   C5A 1403   5.171   2.609   8.262 -0.4357 -0.3934 -0.2773
   88loPI   C6A 1404   4.814   2.729   8.123  0.0531  0.1861 -0.2152
   88loPI   C1B 1405   4.682   2.382  10.053 -0.1438  0.0631 -0.2515
   88loPI   C2B 1406   4.664   2.394   9.581 -0.2129  0.3702  0.3183
   88loPI   C3B 1407   4.757   2.499   9.259 -0.0879 -0.1079 -0.3182
   88loPI   C4B 1408   4.821   2.426   8.795  0.3517 -0.3192 -0.0881
   89loPI    C1 1409   8.654   3.286  10.894  0.0571 -0.0287 -0.0331
   89loPI    C2 1410   9.011   3.410  11.026  0.0373  0.0235 -0.0280
   89loPI    C3 1411   8.680   3.499  11.232 -0.0016  0.1698 -0.1517
   89loPI   PO4 1412   8.722   3.169  10.654 -0.1420  0.0983 -0.1693
   89loPI   GL1 1413   8.498   3.227  10.208 -0.0396 -0.1771 -0.0724
   89loPI   GL2 1414   8.787   3.440  10.228 -0.2397  0.2025  0.2038
   89loPI   C1A 1415   8.334   3.688  10.019 -0.0384  0.1816 -0.1040
   89loPI   C2A 1416   8.208   3.737   9.627  0.1124  0.4504  0.0145
   89loPI   C3A 1417   8.198   3.790   9.152 -0.2641 -0.0796  0.1805
   89loPI   C4A 1418   8.299   3.738   8.646  0.0356 -0.4445  0.2923
   89loPI   C5A 1419   8.006   3.589   8.282 -0.5735 -0.0572  0.0109
   89loPI   C6A 1420   7.607   3.279   8.165 -0.0295  0.2575  0.0590
   89loPI   C1B 1421   8.789   3.647   9.865  0.1153  0.1096  0.0730
   89loPI   C2B 1422   8.692   3.780   9.420  0.1825 -0.2297  0.0291
   89loPI   C3B 1423   8.742   3.705   9.012  0.0820 -0.3547  0.0381
   89loPI   C4B 1424   8.763   3.808   8.546  0.3208  0.0373 -0.1687
   90loPI    C1 1425  16.406   5.503   9.942  0.0931 -0.0512  0.2004
   90loPI    C2 1426  16.659   5.692  10.188  0.0114  0.0547  0.2039
   90loPI    C3 1427  16.645   5.292  10.184  0.4373  0.0371 -0.0560
   90loPI   PO4 1428  16.435   5.603   9.669  0.2768  0.0807 -0.3729
   90loPI   GL1 1429  16.615   5.678   9.312  0.1434  0.2957  0.0653
   90loPI   GL2 1430  16.937   5.518   9.344  0.1060  0.0449 -0.0953
   90loPI   C1A 1431  16.541   5.591   8.907  0.1390 -0.2999 -0.3670
   90loPI   C2A 1432  16.582   5.715   8.515 -0.2141  0.0445  0.0638
   90loPI   C3A 1433  16.378   5.727   8.087  0.0729  0.1230 -0.1097
   90loPI   C4A 1434  16.401   5.548   7.634  0.0545 -0.0719  0.2869
   90loPI   C5A 1435  16.459   5.277   7.337  0.5370  0.0526  0.2810
   90loPI   C6A 1436  16.350   5.216   6.887 -0.0279  0.1774 -0.0451
   90loPI   C1B 1437  17.112   5.609   8.999  0.0971 -0.0054 -0.0289
   90loPI   C2B 1438  17.053   5.503   8.622 -0.3042  0.0451 -0.1492
   90loPI   C3B 1439  16.995   5.403   8.205 -0.0244 -0.0738  0.0474
   90loPI   C4B 1440  16.919   5.349   7.714 -0.0642 -0.0165 -0.1563
   91loPI    C1 1441  14.913   3.694  10.262 -0.0570 -0.2536  0.0672
   91loPI    C2 1442  15.250   3.540  10.413  0.1568  0.2433  0.1177
   91loPI    C3 1443  14.937   3.609  10.652  0.0866 -0.0323  0.1088
   91loPI   PO4 1444  14.842   3.591  10.059  0.0382 -0.0479 -0.1252
   91loPI   GL1 1445  14.706   3.682   9.677  0.0727  0.1671 -0.3647
   91loPI   GL2 1446  14.799   3.891   9.611 -0.2101  0.0650  0.1398
   91loPI   C1A 1447  14.558   3.465   9.280  0.1964 -0.1036  0.3836
   91loPI   C2A 1448  14.529   3.366   8.940 -0.4678  0.0292 -0.2503
   91loPI   C3A 1449  14.526   3.210   8.472 -0.3789 -0.1724 -0.2556
   91loPI   C4A 1450  14.406   3.084   8.053  0.1639  0.1600 -0.0137
   91loPI   C5A 1451  14.050   2.943   7.785  0.1035  0.2997 -0.2321
   91loPI   C6A 1452  13.593   2.899   7.861  0.0679  0.0149  0.1406
   91loPI   C1B 1453  14.765   3.959   9.164 -0.2968  0.1107  0.1027
   91loPI   C2B 1454  14.775   3.819   8.807  0.0621  0.1428 -0.1571
   91loPI   C3B 1455  14.710   3.677   8.400 -0.0473  0.2201  0.1726
   91loPI   C4B 1456  14.701   3.481   7.974  0.2678  0.0904  0.0804
   92loPI    C1 1457  15.459   9.799  10.733 -0.3274 -0.2097  0.0867
   92loPI    C2 1458  15.566   9.985  11.071  0.1495 -0.0677 -0.1334
   92loPI    C3 1459  15.462   9.599  11.080  0.1339 -0.0591  0.1772
   92loPI   PO4 1460  15.286  10.010  10.587 -0.0385 -0.0552  0.3759
   92loPI   GL1 1461  15.042   9.825  10.271 -0.1893  0.0409 -0.3024
   92loPI   GL2 1462  14.773   9.707  10.121  0.3422 -0.1222  0.1408
   92loPI   C1A 1463  15.242   9.821   9.908 -0.1440  0.1776  0.2041
   92loPI   C2A 1464  15.282   9.788   9.443 -0.2387  0.2813 -0.3413
   92loPI   C3A 1465  15.291   9.823   8.990  0.1585 -0.1646 -0.2614
   92loPI   C4A 1466  15.326  10.078   8.613  0.0253 -0.0362 -0.1072
   92loPI   C5A 1467  15.032  10.280   8.273 -0.0441 -0.3650  0.0702
   92loPI   C6A 1468  14.972  10.194   7.823  0.2379  0.0664  0.0652
   92loPI   C1B 1469  14.801   9.743   9.724 -0.1376 -0.0511  0.0435
   92loPI   C2B 1470  14.812   9.872   9.282 -0.2207  0.3477  0.1525
   92loPI   C3B 1471  14.826   9.945   8.861 -0.0860 -0.0746  0.1125
   92loPI   C4B 1472  14.911   9.746   8.487 -0.3401 -0.1879  0.0981
   93loPI    C1 1473   0.043   5.943  10.147 -0.1549  0.0784 -0.1259
   93loPI    C2 1474  -0.123   6.277  10.293 -0.1030 -0.0811  0.3133
   93loPI    C3 1475  -0.318   6.059  10.019 -0.2659  0.1507  0.2418
   93loPI   PO4 1476   0.245   5.968   9.983 -0.2512  0.2164 -0.1855
   93loPI   GL1 1477   0.078   6.087   9.582 -0.1148 -0.0812 -0.3872
   93loPI   GL2 1478   0.283   6.292   9.468  0.0349 -0.2262 -0.2025
   93loPI   C1A 1479   0.038   6.035   9.151  0.4142  0.1069  0.0261
   93loPI   C2A 1480   0.039   6.093   8.690 -0.1878  0.4579  0.0781
   93loPI   C3A 1481   0.173   6.124   8.241  0.0617 -0.1435 -0.6926
   93loPI   C4A 1482   0.305   6.304   7.953 -0.1588 -0.2164 -0.1634
   93loPI   C5A 1483   0.516   6.298   7.548  0.1632  0.3167  0.1851
   93loPI   C6A 1484   0.420   6.152   7.150 -0.0312  0.0481 -0.2636
   93loPI   C1B 1485   0.205   6.574   9.066 -0.0049 -0.1944  0.2230
   93loPI   C2B 1486   0.157   6.584   8.657 -0.1666 -0.1991 -0.0019
   93loPI   C3B 1487   0.115   6.813   8.262  0.2480  0.1325 -0.1886
   93loPI   C4B 1488   0.041   6.694   7.735 -0.2769 -0.0326 -0.1169
   94loPI    C1 1489   6.089   8.285  11.235  0.1801 -0.0023  0.1595
   94loPI    C2 1490   6.364   8.100  11.459 -0.0048 -0.2058  0.2223
   94loPI    C3 1491   6.153   8.404  11.611  0.0388 -0.1856  0.2428
   94loPI   PO4 1492   6.188   8.232  10.950 -0.2294 -0.0885 -0.0447
   94loPI   GL1 1493   6.152   8.591  10.603  0.0197 -0.1327 -0.0780
   94loPI   GL2 1494   6.454   8.472  10.560 -0.0445  0.1741 -0.1938
   94loPI   C1A 1495   5.930   8.501  10.215 -0.2115  0.3611  0.0885
   94loPI   C2A 1496   5.905   8.444   9.846  0.2605  0.1250 -0.0764
   94loPI   C3A 1497   5.981   8.465   9.478 -0.0571 -0.0263 -0.0013
   94loPI   C4A 1498   5.979   8.530   9.003  0.2846 -0.1384 -0.1179
   94loPI   C5A 1499   5.941   8.473   8.556  0.1218  0.3166  0.1156
   94loPI   C6A 1500   6.089   8.506   8.167 -0.0435  0.0014 -0.2871
   94loPI   C1B 1501   6.450   8.526  10.126 -0.2794  0.0199 -0.2501
   94loPI   C2B 1502   6.419   8.564   9.685 -0.1281  0.3005  0.2327
   94loPI   C3B 1503   6.530   8.533   9.239 -0.2243 -0.2538  0.2055
   94loPI   C4B 1504   6.493   8.570   8.806 -0.0392 -0.3540 -0.0564
   95loPI    C1 1505  16.158   6.472  10.194 -0.1183 -0.0229 -0.1300
   95loPI    C2 1506  15.781   6.600  10.230 -0.0868  0.0649 -0.1104
   95loPI    C3 1507  16.080   6.814  10.387 -0.0449 -0.0966  0.0328
   95loPI   PO4 1508  16.188   6.443   9.917 -0.0053 -0.0898 -0.1415
   95loPI   GL1 1509  16.021   6.286   9.497 -0.0393 -0.2931  0.3061
   95loPI   GL2 1510  15.779   6.514   9.574 -0.2198 -0.0540  0.0937
   95loPI   C1A 1511  16.109   6.480   9.066  0.0664  0.0659 -0.1775
   95loPI   C2A 1512  15.948   6.693   8.715 -0.0210  0.2281  0.1482
   95loPI   C3A 1513  16.014   7.053   8.467  0.1502 -0.1053  0.3435
   95loPI   C4A 1514  16.146   7.033   8.070 -0.1836  0.2685 -0.0850
   95loPI   C5A 1515  16.161   7.047   7.620 -0.1234 -0.0658 -0.1141
   95loPI   C6A 1516  16.009   6.926   7.173 -0.0357 -0.2767 -0.1384
   95loPI   C1B 1517  15.646   6.660   9.197  0.0703  0.0960 -0.2029
   95loPI   C2B 1518  15.482   6.843   8.818  0.0681  0.3879  0.2408
   95loPI   C3B 1519  15.482   6.912   8.421  0.0791  0.0820  0.0443
   95loPI   C4B 1520  15.396   7.003   8.054  0.1992  0.2155  0.1447
   96loPI    C1 1521  10.924   6.481  10.980 -0.1325  0.1200 -0.0364
   96loPI    C2 1522  10.621   6.291  11.159 -0.0865  0.0971  0.0175
   96loPI    C3 1523  10.977   6.313  11.339 -0.0126 -0.0097 -0.1136
   96loPI   PO4 1524  10.805   6.560  10.706 -0.1444  0.2091  0.1821
   96loPI   GL1 1525  10.590   6.478  10.385  0.2950 -0.1545  0.1752
   96loPI   GL2 1526  10.563   6.798  10.347  0.0757 -0.2074 -0.0170
   96loPI   C1A 1527  10.578   6.515   9.993 -0.0837  0.0916  0.3122
   96loPI   C2A 1528  10.553   6.540   9.603 -0.2788  0.0627 -0.1275
   96loPI   C3A 1529  10.537   6.505   9.187 -0.0222 -0.0325 -0.0975
   96loPI   C4A 1530  10.560   6.461   8.811 -0.1729  0.1815  0.2770
   96loPI   C5A 1531  10.454   6.268   8.514  0.1936 -0.2639  0.1852
   96loPI   C6A 1532  10.403   5.999   8.138  0.2303 -0.1739  0.0088
   96loPI   C1B 1533  10.758   6.987  10.077  0.0004  0.0381 -0.1157
   96loPI   C2B 1534  10.821   6.972   9.560  0.1142 -0.2450  0.0522
   96loPI   C3B 1535  10.778   6.931   9.091 -0.2109 -0.2143 -0.1290
   96loPI   C4B 1536  10.806   7.009   8.694 -0.0132 -0.1485 -0.1343
   97loPI    C1 1537  14.682  13.896  11.526 -0.1686  0.0580  0.1224
   97loPI    C2 1538  14.721  13.561  11.741 -0.1729 -0.0864 -0.0986
   97loPI    C3 1539  15.031  13.810  11.700 -0.0899 -0.1982 -0.1537
   97loPI   PO4 1540  14.584  13.764  11.235 -0.0603  0.0316  0.0878
   97loPI   GL1 1541  14.779  13.816  10.836 -0.1223  0.1861 -0.2360
   97loPI   GL2 1542  15.056  13.587  10.713 -0.2847  0.0264  0.0821
   97loPI   C1A 1543  14.666  13.737  10.475 -0.2263  0.1366  0.1646
   97loPI   C2A 1544  14.555  13.653  10.012 -0.3784 -0.0666 -0.2206
   97loPI   C3A 1545  14.464  13.610   9.629 -0.0421 -0.1999  0.3664
   97loPI   C4A 1546  14.561  13.474   9.168  0.1116  0.0951  0.3318
   97loPI   C5A 1547  14.472  13.176   8.758 -0.2183 -0.0903  0.2317
   97loPI   C6A 1548  14.210  13.156   8.447  0.1758  0.2136 -0.1613
   97loPI   C1B 1549  15.099  13.755  10.226  0.0768  0.2149 -0.3731
   97loPI   C2B 1550  14.981  13.672   9.711  0.0485  0.1171  0.1031
   97loPI   C3B 1551  15.054  13.587   9.244 -0.2613  0.1692 -0.2963
   97loPI   C4B 1552  15.014  13.445   8.899  0.0404  0.0556 -0.0950
   98loPI    C1 1553  14.111   1.494  11.034  0.0081  0.2068  0.1560
   98loPI    C2 1554  14.313   1.771  11.241 -0.0384  0.2980  0.0800
   98loPI    C3 1555  14.370   1.382  11.318  0.0816  0.3265  0.1368
   98loPI   PO4 1556  14.183   1.497  10.766  0.0730  0.1336  0.0783
   98loPI   GL1 1557  13.912   1.568  10.268 -0.2226  0.2184 -0.1431
   98loPI   GL2 1558  14.085   1.328  10.239 -0.1720  0.0472 -0.1443
   98loPI   C1A 1559  13.802   1.554   9.853  0.3060  0.2273  0.1241
   98loPI   C2A 1560  13.741   1.454   9.443  0.4891 -0.0259  0.3029
   98loPI   C3A 1561  13.636   1.269   8.990 -0.4226 -0.3805 -0.0917
   98loPI   C4A 1562  13.606   1.279   8.544 -0.2371 -0.1074  0.1907
   98loPI   C5A 1563  13.317   1.103   8.272 -0.1528 -0.0122 -0.0436
   98loPI   C6A 1564  13.129   0.915   7.941 -0.3734  0.1088 -0.0586
   98loPI   C1B 1565  14.097   1.137   9.805  0.1760 -0.3619  0.0128
   98loPI   C2B 1566  13.987   0.990   9.383  0.1433 -0.0283 -0.0624
   98loPI   C3B 1567  13.934   0.841   8.905  0.1867 -0.1779 -0.1667
   98loPI   C4B 1568  13.921   0.804   8.506  0.0984  0.1550  0.0048
   99loPI    C1 1569  15.058  15.910  10.770 -0.0739  0.0040  0.2251
   99loPI    C2 1570  15.170  15.615  11.016  0.2879 -0.1580 -0.1236
   99loPI    C3 1571  15.367  15.963  11.018  0.0167 -0.0012  0.1137
   99loPI   PO4 1572  15.048  15.766  10.525  0.2334  0.2547 -0.2802
   99loPI   GL1 1573  14.802  15.494  10.261 -0.0654  0.4226 -0.3759
   99loPI   GL2 1574  14.646  15.793  10.195 -0.1069  0.0987 -0.1172
   99loPI   C1A 1575  14.850  15.450   9.865 -0.2746  0.0757  0.1158
   99loPI   C2A 1576  14.938  15.421   9.467  0.0623 -0.1445  0.2482
   99loPI   C3A 1577  14.906  15.417   9.010  0.0239 -0.1637 -0.3279
   99loPI   C4A 1578  14.989  15.342   8.676 -0.0632 -0.1166  0.0693
   99loPI   C5A 1579  14.939  15.074   8.410 -0.1182  0.0431 -0.1113
   99loPI   C6A 1580  14.747  14.683   8.360 -0.2189  0.2061 -0.0984
   99loPI   C1B 1581  14.533  15.849   9.807 -0.6048 -0.1379  0.0131
   99loPI   C2B 1582  14.525  15.868   9.470  0.3184  0.0328  0.2161
   99loPI   C3B 1583  14.610  15.966   9.063 -0.1690  0.0235 -0.0510
   99loPI   C4B 1584  14.696  15.755   8.654  0.2270  0.2676 -0.1574
  100loPI    C1 1585  18.134  13.533  10.639  0.0879 -0.0775 -0.0625
  100loPI    C2 1586  18.158  13.340  10.989 -0.1987  0.2332  0.1342
  100loPI    C3 1587  17.877  13.619  10.933 -0.0292  0.3290 -0.2770
  100loPI   PO4 1588  18.154  13.287  10.502  0.0593  0.0314 -0.1441
  100loPI   GL1 1589  18.339  13.332  10.207 -0.2570 -0.0563 -0.2821
  100loPI   GL2 1590  18.529  13.656  10.287  0.2104 -0.0036 -0.1485
  100loPI   C1A 1591  18.437  13.374   9.767 -0.3555 -0.0002 -0.2081
  100loPI   C2A 1592  18.468  13.496   9.309  0.0224 -0.0649  0.1139
  100loPI   C3A 1593  18.577  13.383   8.881  0.2435  0.1005  0.0801
  100loPI   C4A 1594  18.885  13.272   8.528  0.2040  0.2175 -0.0646
  100loPI   C5A 1595  19.049  13.342   8.134 -0.1096 -0.1233  0.0083
  100loPI   C6A 1596  19.422  13.276   8.065  0.3122 -0.0050  0.0466
  100loPI   C1B 1597  18.181  13.764  10.098  0.2557  0.0990 -0.0329
  100loPI   C2B 1598  18.200  13.836   9.735 -0.1788 -0.0512  0.3800
  100loPI   C3B 1599  18.167  13.903   9.284  0.0702 -0.0426 -0.2832
  100loPI   C4B 1600  18.123  13.890   8.952 -0.1009 -0.2037  0.0677
  101loPI    C1 1601  15.538   5.183   9.665 -0.1016 -0.0147 -0.0725
  101loPI    C2 1602  15.606   5.077  10.045  0.3173  0.0219 -0.1326
  101loPI    C3 1603  15.244   5.208   9.935  0.1369 -0.1787  0.2078
  101loPI   PO4 1604  15.633   5.373   9.618  0.1916 -0.1939  0.0787
  101loPI   GL1 1605  15.832   5.401   9.219  0.0472  0.1316 -0.0463
  101loPI   GL2 1606  15.762   5.115   9.163  0.1099  0.0228  0.1757
  101loPI   C1A 1607  15.985   5.563   8.855  0.2112  0.0854  0.2139
  101loPI   C2A 1608  15.980   5.452   8.412  0.0298 -0.0249  0.1998
  101loPI   C3A 1609  16.018   5.463   7.885  0.0851  0.0921 -0.1741
  101loPI   C4A 1610  15.880   5.816   7.678 -0.2032  0.1214 -0.0786
  101loPI   C5A 1611  15.692   6.109   7.292  0.0595  0.1574 -0.4233
  101loPI   C6A 1612  15.785   5.976   6.947  0.0570 -0.1151  0.2966
  101loPI   C1B 1613  15.671   5.160   8.683 -0.1342 -0.0027 -0.0629
  101loPI   C2B 1614  15.507   5.055   8.210  0.1238  0.0131  0.0450
  101loPI   C3B 1615  15.297   4.955   7.890  0.4246  0.0072 -0.2102
  101loPI   C4B 1616  14.915   4.848   7.654  0.1911  0.3077  0.0685
  102loPI    C1 1617   4.850  10.778  11.340  0.1842 -0.0904 -0.0330
  102loPI    C2 1618   4.699  11.073  11.564 -0.1571 -0.0333 -0.3295
  102loPI    C3 1619   4.557  10.701  11.601  0.0732 -0.1072 -0.1619
  102loPI   PO4 1620   4.877  10.895  11.124  0.0415 -0.2531  0.0106
  102loPI   GL1 1621   4.722  10.975  10.687  0.0939 -0.0380  0.0360
  102loPI   GL2 1622   4.681  11.273  10.609  0.1349 -0.0884  0.0028
  102loPI   C1A 1623   4.964  10.647  10.419 -0.0066  0.0639 -0.3112
  102loPI   C2A 1624   4.910  10.726   9.932 -0.2975 -0.0750 -0.0034
  102loPI   C3A 1625   4.996  10.735   9.608  0.1925 -0.0878  0.4117
  102loPI   C4A 1626   5.077  10.653   9.223 -0.3290 -0.2688 -0.0679
  102loPI   C5A 1627   4.959  10.470   8.839 -0.0417 -0.0707  0.1417
  102loPI   C6A 1628   4.961  10.058   8.685  0.1538 -0.0368 -0.3090
  102loPI   C1B 1629   4.719  11.108  10.242 -0.1039 -0.2504  0.0576
  102loPI   C2B 1630   4.741  11.167   9.769  0.0718  0.1381 -0.2934
  102loPI   C3B 1631   4.730  11.085   9.303  0.2037 -0.0192 -0.0722
  102loPI   C4B 1632   4.780  10.978   8.946  0.1143  0.1028  0.2443
  103loPI    C1 1633  13.422   2.762  10.969  0.2408  0.2119 -0.0451
  103loPI    C2 1634  13.708   2.512  11.095  0.1644  0.1805  0.0680
  103loPI    C3 1635  13.388   2.581  11.324 -0.0340  0.0341 -0.1590
  103loPI   PO4 1636  13.368   2.683  10.727  0.0196  0.0349  0.0649
  103loPI   GL1 1637  13.434   2.688  10.306 -0.0671 -0.1152  0.0037
  103loPI   GL2 1638  13.468   2.991  10.113  0.0422 -0.0134  0.3702
  103loPI   C1A 1639  13.773   2.458   9.966  0.0986 -0.0438  0.1494
  103loPI   C2A 1640  13.716   2.343   9.520  0.0697  0.0927 -0.2583
  103loPI   C3A 1641  13.529   2.203   9.182  0.1472  0.0331 -0.1673
  103loPI   C4A 1642  13.618   2.174   8.683  0.0038 -0.1810 -0.0824
  103loPI   C5A 1643  13.432   2.217   8.307  0.0450 -0.0048  0.1891
  103loPI   C6A 1644  13.286   2.514   7.914 -0.0367  0.1566  0.1740
  103loPI   C1B 1645  13.460   2.764   9.704 -0.2124 -0.2483  0.1151
  103loPI   C2B 1646  13.289   2.720   9.298  0.1417  0.1840  0.0516
  103loPI   C3B 1647  13.332   2.587   8.857 -0.0697 -0.0428  0.1126
  103loPI   C4B 1648  13.087   2.566   8.453 -0.1380 -0.3930 -0.0409
  104loPI    C1 1649  15.370  14.734  11.299 -0.0793 -0.0124  0.0047
  104loPI    C2 1650  15.683  14.917  11.467 -0.0185 -0.1812  0.0781
  104loPI    C3 1651  15.593  14.542  11.571 -0.0855 -0.2262 -0.1390
  104loPI   PO4 1652  15.389  14.711  11.042  0.3961 -0.2261  0.2074
  104loPI   GL1 1653  15.310  14.758  10.653 -0.1804  0.1994 -0.1624
  104loPI   GL2 1654  15.520  14.659  10.360 -0.3861  0.0581 -0.3844
  104loPI   C1A 1655  15.004  14.629  10.313  0.0033  0.0364 -0.2803
  104loPI   C2A 1656  14.924  14.557   9.993  0.2522 -0.2174 -0.0229
  104loPI   C3A 1657  14.969  14.516   9.583  0.2774 -0.4291  0.0039
  104loPI   C4A 1658  14.999  14.460   9.183 -0.0140  0.0685 -0.2030
  104loPI   C5A 1659  15.017  14.427   8.670 -0.0515  0.6715 -0.0638
  104loPI   C6A 1660  14.914  14.193   8.244  0.0119  0.1881  0.2082
  104loPI   C1B 1661  15.445  14.601   9.845 -0.2530  0.0105 -0.2300
  104loPI   C2B 1662  15.454  14.588   9.486  0.2223 -0.0267 -0.0453
  104loPI   C3B 1663  15.476  14.519   9.058 -0.3831 -0.1085 -0.1598
  104loPI   C4B 1664  15.548  14.443   8.644 -0.1210  0.1836  0.1940
  105loPI    C1 1665   3.560   4.613  10.351 -0.0872 -0.1074 -0.0724
  105loPI    C2 1666   3.339   4.782  10.639  0.0656 -0.3348  0.1828
  105loPI    C3 1667   3.202   4.460  10.445  0.0815 -0.3483  0.1942
  105loPI   PO4 1668   3.565   4.833  10.204 -0.1295  0.1949  0.1145
  105loPI   GL1 1669   3.468   4.899   9.780  0.1203  0.1776 -0.0698
  105loPI   GL2 1670   3.484   5.229   9.613  0.0027  0.0632 -0.0971
  105loPI   C1A 1671   3.304   4.702   9.459  0.2841 -0.0180  0.1060
  105loPI   C2A 1672   3.335   4.655   9.083 -0.0782  0.0630  0.1299
  105loPI   C3A 1673   3.647   4.807   8.669  0.0473 -0.0266  0.0709
  105loPI   C4A 1674   3.669   4.665   8.205 -0.1000 -0.0043  0.3717
  105loPI   C5A 1675   3.667   4.910   7.850  0.0017  0.0903  0.2234
  105loPI   C6A 1676   3.767   5.199   7.512  0.0026  0.2041 -0.0555
  105loPI   C1B 1677   3.626   5.201   9.152  0.3927 -0.0493 -0.0340
  105loPI   C2B 1678   3.933   5.175   8.778 -0.0460 -0.2158 -0.1833
  105loPI   C3B 1679   3.886   5.142   8.279  0.0116 -0.0585  0.4120
  105loPI   C4B 1680   3.793   5.347   7.997  0.2195 -0.0274  0.1559
  106loPI    C1 1681   9.562  13.174  11.295 -0.0814 -0.0422  0.1362
  106loPI    C2 1682   9.320  12.948  11.518 -0.2371  0.2245  0.2432
  106loPI    C3 1683   9.477  13.282  11.670  0.0034  0.1826  0.0926
  106loPI   PO4 1684   9.433  13.248  11.045  0.4093  0.1020  0.0042
  106loPI   GL1 1685   9.235  13.024  10.697 -0.1560  0.0644 -0.1102
  106loPI   GL2 1686   9.057  13.357  10.702 -0.4213  0.1942 -0.1072
  106loPI   C1A 1687   9.219  13.127  10.243 -0.2272 -0.0733  0.2511
  106loPI   C2A 1688   9.183  13.260   9.797  0.0179 -0.2988  0.1608
  106loPI   C3A 1689   9.239  13.263   9.320 -0.0324  0.0828 -0.1978
  106loPI   C4A 1690   9.123  13.229   8.900 -0.0925 -0.0843 -0.0667
  106loPI   C5A 1691   9.028  13.243   8.489  0.0882  0.1455  0.2733
  106loPI   C6A 1692   8.662  13.259   8.287  0.1939  0.0941 -0.1089
  106loPI   C1B 1693   8.846  13.490  10.324  0.0788  0.3503  0.1724
  106loPI   C2B 1694   8.876  13.721   9.954 -0.1115 -0.0023  0.1880
  106loPI   C3B 1695   8.915  13.706   9.528  0.0987  0.0346  0.2318
  106loPI   C4B 1696   8.911  13.652   9.112 -0.0490  0.0297  0.0697
  107loPI    C1 1697   3.423  14.820  11.225 -0.3873  0.2014  0.1638
  107loPI    C2 1698   3.554  15.148  11.414  0.0071  0.2034 -0.1012
  107loPI    C3 1699   3.632  14.786  11.565  0.0571  0.2145 -0.1000
  107loPI   PO4 1700   3.471  14.926  10.966  0.0234 -0.0166 -0.0886
  107loPI   GL1 1701   3.418  15.063  10.577  0.0387  0.0008  0.3850
  107loPI   GL2 1702   3.117  14.984  10.347 -0.0085 -0.1677 -0.3471
  107loPI   C1A 1703   3.616  15.023  10.165 -0.1621 -0.0039  0.1615
  107loPI   C2A 1704   3.560  15.091   9.787 -0.1797  0.0066  0.1679
  107loPI   C3A 1705   3.567  15.157   9.364 -0.0746  0.0141  0.0738
  107loPI   C4A 1706   3.671  15.162   8.937 -0.0752  0.1818  0.1024
  107loPI   C5A 1707   3.489  14.946   8.602  0.0422  0.1190  0.0873
  107loPI   C6A 1708   3.428  14.530   8.505 -0.2189 -0.1303  0.1674
  107loPI   C1B 1709   3.099  15.051   9.905  0.3050  0.1090  0.0891
  107loPI   C2B 1710   3.051  15.165   9.537  0.2998  0.0081  0.0066
  107loPI   C3B 1711   3.134  15.106   9.149  0.0475 -0.0371 -0.3198
  107loPI   C4B 1712   3.006  15.127   8.699  0.1482 -0.2328  0.1624
  108loPI    C1 1713  14.496  10.524  10.937  0.2033  0.0408 -0.0090
  108loPI    C2 1714  14.487  10.176  11.133 -0.1643 -0.0334 -0.1486
  108loPI    C3 1715  14.682  10.488  11.289  0.0323 -0.2531  0.0548
  108loPI   PO4 1716  14.434  10.400  10.686  0.0506  0.0098  0.1555
  108loPI   GL1 1717  14.725  10.512  10.320  0.1019  0.0646 -0.1649
  108loPI   GL2 1718  15.019  10.371  10.403 -0.2175 -0.2376  0.1275
  108loPI   C1A 1719  14.620  10.740   9.967 -0.2261  0.0628 -0.0995
  108loPI   C2A 1720  14.765  10.722   9.578  0.0934 -0.1143 -0.0753
  108loPI   C3A 1721  14.697  10.791   9.161 -0.0851 -0.1865  0.1559
  108loPI   C4A 1722  14.760  10.785   8.711 -0.1820  0.0645 -0.2399
  108loPI   C5A 1723  14.522  11.062   8.377 -0.0611 -0.0206 -0.0380
  108loPI   C6A 1724  14.265  11.465   8.305  0.0518  0.3418 -0.1586
  108loPI   C1B 1725  14.908  10.214   9.977  0.1655 -0.0182  0.1722
  108loPI   C2B 1726  14.930  10.273   9.605  0.0841 -0.0245 -0.2724
  108loPI   C3B 1727  15.005  10.277   9.190  0.1142 -0.1459  0.3697
  108loPI   C4B 1728  15.019  10.420   8.782  0.1540  0.2068 -0.4590
  109loPI    C1 1729  13.557  11.220  11.001 -0.0895  0.2859  0.2229
  109loPI    C2 1730  13.168  11.280  10.931 -0.1223  0.0228  0.1695
  109loPI    C3 1731  13.298  11.225  11.306 -0.1463  0.0436  0.1808
  109loPI   PO4 1732  13.651  11.059  10.767 -0.0546 -0.0966  0.3223
  109loPI   GL1 1733  13.366  11.262  10.492 -0.1389  0.3251  0.0672
  109loPI   GL2 1734  13.553  11.516  10.283 -0.0809  0.2336 -0.4167
  109loPI   C1A 1735  13.176  11.220  10.071 -0.1274  0.0903 -0.0596
  109loPI   C2A 1736  13.320  11.343   9.700 -0.2182 -0.0809 -0.1725
  109loPI   C3A 1737  13.336  11.217   9.349 -0.1032  0.0341 -0.1173
  109loPI   C4A 1738  13.405  11.095   8.905  0.1652  0.1285 -0.1291
  109loPI   C5A 1739  13.468  11.142   8.517  0.0484  0.1242  0.0616
  109loPI   C6A 1740  13.408  11.121   8.072 -0.0099 -0.2541 -0.2372
  109loPI   C1B 1741  13.600  11.667  10.003 -0.0650  0.2270  0.1543
  109loPI   C2B 1742  13.431  11.779   9.514 -0.2375  0.1228  0.2411
  109loPI   C3B 1743  13.575  11.624   9.071 -0.1464  0.1643 -0.2534
  109loPI   C4B 1744  13.647  11.628   8.660 -0.1597 -0.0427  0.2631
  110loPI    C1 1745  16.936   9.270  10.515 -0.0478  0.0021  0.0861
  110loPI    C2 1746  16.671   9.398  10.244 -0.1525 -0.1933  0.0942
  110loPI    C3 1747  16.598   9.447  10.634  0.1602  0.4087  0.0885
  110loPI   PO4 1748  17.241   9.339  10.358 -0.0866 -0.0639 -0.0557
  110loPI   GL1 1749  17.339   9.274   9.988  0.3951  0.2652  0.3073
  110loPI   GL2 1750  17.268   9.047   9.737  0.0079 -0.1149 -0.2182
  110loPI   C1A 1751  17.222   9.598   9.701  0.0569 -0.1914  0.1666
  110loPI   C2A 1752  17.183   9.720   9.235 -0.1125  0.0648  0.1578
  110loPI   C3A 1753  17.143   9.725   8.758  0.1694 -0.0284  0.1222
  110loPI   C4A 1754  17.327   9.871   8.262  0.0265  0.1344  0.1892
  110loPI   C5A 1755  17.566  10.015   7.829 -0.4758  0.2816 -0.3518
  110loPI   C6A 1756  17.845  10.334   7.809 -0.0509 -0.0905 -0.1647
  110loPI   C1B 1757  17.440   9.230   9.375 -0.1405  0.2489 -0.1501
  110loPI   C2B 1758  17.312   9.273   9.045 -0.3875  0.1312 -0.0096
  110loPI   C3B 1759  17.339   9.135   8.540  0.1501 -0.1864 -0.0790
  110loPI   C4B 1760  17.431   9.286   8.163 -0.1687  0.1589  0.1084
  111loPI    C1 1761   8.067   9.741  11.217  0.1129  0.1771  0.0546
  111loPI    C2 1762   7.822   9.922  10.958  0.2444  0.1455 -0.0935
  111loPI    C3 1763   8.021  10.139  11.229  0.0403  0.1694  0.0403
  111loPI   PO4 1764   8.216   9.563  11.084 -0.2120 -0.1851  0.6981
  111loPI   GL1 1765   8.277   9.717  10.570  0.1037 -0.0560  0.2906
  111loPI   GL2 1766   8.071   9.878  10.385 -0.1087 -0.1727 -0.0991
  111loPI   C1A 1767   8.483   9.522  10.271 -0.1424 -0.0357  0.1247
  111loPI   C2A 1768   8.543   9.551   9.752  0.2350 -0.3048  0.0254
  111loPI   C3A 1769   8.654   9.488   9.362  0.0044 -0.0557 -0.1516
  111loPI   C4A 1770   8.576   9.657   8.992  0.2157 -0.0947  0.5056
  111loPI   C5A 1771   8.517   9.489   8.648 -0.1807 -0.2491  0.1504
  111loPI   C6A 1772   8.495   9.153   8.327 -0.2540 -0.0487 -0.0601
  111loPI   C1B 1773   8.189   9.983   9.955 -0.0541 -0.0663  0.2528
  111loPI   C2B 1774   8.280   9.996   9.487  0.0585 -0.1427  0.0804
  111loPI   C3B 1775   8.325  10.108   8.975 -0.4220 -0.0888 -0.0011
  111loPI   C4B 1776   8.339  10.031   8.553  0.0404 -0.0655  0.2098
  112loPI    C1 1777  16.523   0.573  10.643  0.0475  0.0009  0.2453
  112loPI    C2 1778  16.739   0.719  10.947  0.0003  0.0623  0.2498
  112loPI    C3 1779  16.363   0.598  11.009 -0.0953  0.3098  0.1655
  112loPI   PO4 1780  16.694   0.506  10.404 -0.1417 -0.1743 -0.1106
  112loPI   GL1 1781  16.637   0.317  10.124 -0.1158  0.0388 -0.0135
  112loPI   GL2 1782  16.409   0.462   9.867 -0.0767 -0.3905 -0.1385
  112loPI   C1A 1783  16.828  -0.068  10.101  0.2931 -0.0085 -0.0103
  112loPI   C2A 1784  16.784  -0.316   9.742 -0.1752 -0.1475 -0.1191
  112loPI   C3A 1785  16.908  -0.369   9.371 -0.1359 -0.0700 -0.1184
  112loPI   C4A 1786  17.019  -0.217   8.888  0.0048 -0.1779  0.4021
  112loPI   C5A 1787  16.955  -0.267   8.488  0.1189  0.1490  0.0692
  112loPI   C6A 1788  17.002  -0.491   8.009 -0.2797 -0.4055  0.0889
  112loPI   C1B 1789  16.312   0.353   9.464  0.1870 -0.0329  0.0261
  112loPI   C2B 1790  16.356   0.328   9.138  0.5595  0.1704  0.0535
  112loPI   C3B 1791  16.323   0.117   8.780  0.1038  0.2984  0.1690
  112loPI   C4B 1792  16.287   0.005   8.375  0.0585 -0.2642 -0.2812
  113loPI    C1 1793   8.964   2.822  11.056 -0.5444  0.0675 -0.0622
  113loPI    C2 1794   8.917   2.425  11.062  0.0550 -0.0125 -0.1007
  113loPI    C3 1795   9.051   2.615  11.387  0.0035  0.1261 -0.1598
  113loPI   PO4 1796   9.159   2.920  10.810  0.3000  0.1536  0.0311
  113loPI   GL1 1797   9.004   2.994  10.317 -0.4342 -0.1250 -0.3192
  113loPI   GL2 1798   8.866   2.800  10.146 -0.1082  0.2711 -0.1571
  113loPI   C1A 1799   9.167   3.229   9.961  0.1609  0.2636 -0.0550
  113loPI   C2A 1800   8.972   3.309   9.488  0.1085 -0.1031  0.0354
  113loPI   C3A 1801   9.081   3.314   9.023  0.0039 -0.2002 -0.2649
  113loPI   C4A 1802   9.192   3.358   8.618  0.1000 -0.0438 -0.3111
  113loPI   C5A 1803   9.203   3.354   8.234  0.0529 -0.1088 -0.0512
  113loPI   C6A 1804   9.145   3.171   7.949  0.1179 -0.1684  0.1467
  113loPI   C1B 1805   8.765   2.826   9.637 -0.4064 -0.0574 -0.1690
  113loPI   C2B 1806   8.760   2.840   9.221  0.0187  0.1491 -0.3489
  113loPI   C3B 1807   8.914   2.847   8.842 -0.1311  0.0599  0.1399
  113loPI   C4B 1808   9.044   2.901   8.431  0.3631  0.3081  0.0077
  114loPI    C1 1809  14.926  14.134  11.202 -0.2577  0.1574  0.0171
  114loPI    C2 1810  15.013  14.318  11.546 -0.3210  0.2940 -0.0391
  114loPI    C3 1811  14.652  14.365  11.380 -0.3566  0.0748 -0.0269
  114loPI   PO4 1812  15.109  14.095  10.967 -0.0595 -0.3529 -0.2197
  114loPI   GL1 1813  15.117  14.187  10.567 -0.1946  0.0235  0.0305
  114loPI   GL2 1814  14.760  14.299  10.592 -0.1069  0.0209 -0.1387
  114loPI   C1A 1815  15.341  14.187  10.204  0.1971 -0.1575  0.2057
  114loPI   C2A 1816  15.186  14.119   9.801  0.0479  0.0248 -0.2977
  114loPI   C3A 1817  15.310  14.099   9.446 -0.0775  0.0437  0.0590
  114loPI   C4A 1818  15.247  14.039   8.970 -0.3926  0.1078  0.2852
  114loPI   C5A 1819  15.295  14.003   8.552 -0.1993  0.0773 -0.0742
  114loPI   C6A 1820  15.407  13.785   8.116 -0.2204 -0.0331  0.3058
  114loPI   C1B 1821  14.786  14.116  10.195 -0.1164 -0.3437  0.0642
  114loPI   C2B 1822  14.673  14.128   9.795 -0.0609  0.1389 -0.2297
  114loPI   C3B 1823  14.774  14.058   9.411  0.0295  0.0759 -0.3487
  114loPI   C4B 1824  14.758  14.080   8.915  0.0435 -0.1438 -0.0051
  115loPI    C1 1825   9.234   0.842  11.161 -0.0011 -0.0212 -0.1106
  115loPI    C2 1826   9.252   1.152  11.413  0.3160 -0.0211 -0.1290
  115loPI    C3 1827   9.407   0.799  11.519 -0.1314 -0.2063 -0.0685
  115loPI   PO4 1828   9.256   1.093  10.931 -0.1981  0.3482 -0.1729
  115loPI   GL1 1829   9.105   1.043  10.459  0.0718 -0.5517 -0.0172
  115loPI   GL2 1830   9.244   1.402  10.295 -0.4244 -0.3281 -0.0027
  115loPI   C1A 1831   9.030   1.020  10.099  0.0758  0.1050  0.1262
  115loPI   C2A 1832   8.986   0.934   9.623  0.3577  0.2637  0.1010
  115loPI   C3A 1833   8.967   0.918   9.174  0.2065 -0.3371 -0.1582
  115loPI   C4A 1834   8.903   1.015   8.689 -0.1924  0.1745 -0.0267
  115loPI   C5A 1835   8.988   0.966   8.290 -0.0152  0.2437  0.0591
  115loPI   C6A 1836   9.047   0.989   7.918 -0.0421 -0.1833 -0.0337
  115loPI   C1B 1837   9.257   1.545   9.924 -0.2410  0.1824 -0.0477
  115loPI   C2B 1838   9.203   1.415   9.525  0.1289  0.1761  0.0360
  115loPI   C3B 1839   9.203   1.475   9.067 -0.2185 -0.1055 -0.1105
  115loPI   C4B 1840   9.331   1.514   8.692  0.0728 -0.2272  0.0442
  116loPI    C1 1841  14.517   1.109  10.854  0.0302 -0.1604 -0.0606
  116loPI    C2 1842  14.485   0.834  11.143  0.0326 -0.0354  0.0593
  116loPI    C3 1843  14.782   1.102  11.154  0.0526 -0.0514 -0.0775
  116loPI   PO4 1844  14.601   1.002  10.523  0.1639  0.2587  0.1757
  116loPI   GL1 1845  14.791   0.686  10.243 -0.1193 -0.0505  0.1890
  116loPI   GL2 1846  14.573   0.470  10.031  0.0817 -0.1546  0.2553
  116loPI   C1A 1847  14.920   0.724   9.702  0.0730 -0.2770 -0.1906
  116loPI   C2A 1848  14.908   0.564   9.295 -0.1307 -0.5220  0.0291
  116loPI   C3A 1849  14.791   0.426   8.840 -0.0188  0.0362  0.1585
  116loPI   C4A 1850  14.949   0.368   8.436 -0.1923 -0.1149 -0.0010
  116loPI   C5A 1851  14.947   0.257   8.058  0.0805  0.3571  0.0498
  116loPI   C6A 1852  14.947  -0.067   7.711 -0.0303  0.2074 -0.0085
  116loPI   C1B 1853  14.566   0.383   9.588  0.1635  0.3448 -0.1410
  116loPI   C2B 1854  14.370   0.358   9.167  0.0083 -0.4931  0.2965
  116loPI   C3B 1855  14.252   0.424   8.785  0.1768 -0.0326  0.0448
  116loPI   C4B 1856  14.451   0.342   8.438 -0.0398 -0.0581 -0.2652
  117loPI    C1 1857  13.096   9.090  10.895  0.0603  0.0778 -0.2081
  117loPI    C2 1858  12.877   8.769  10.989 -0.0551  0.1833 -0.1150
  117loPI    C3 1859  12.867   9.093  11.223  0.2916  0.1464 -0.0450
  117loPI   PO4 1860  13.068   9.087  10.642  0.1209 -0.1329  0.0279
  117loPI   GL1 1861  12.917   9.275  10.361 -0.2042 -0.2104 -0.0466
  117loPI   GL2 1862  12.785   9.550  10.419  0.3095 -0.2571 -0.2890
  117loPI   C1A 1863  12.970   9.360  10.018  0.1315  0.1646  0.0989
  117loPI   C2A 1864  12.963   9.385   9.508  0.1628 -0.1587 -0.0405
  117loPI   C3A 1865  13.003   9.338   9.038 -0.0935  0.2211  0.0465
  117loPI   C4A 1866  12.990   9.392   8.536  0.0448  0.1796 -0.1092
  117loPI   C5A 1867  13.023   9.243   8.134 -0.1595  0.0062 -0.3427
  117loPI   C6A 1868  13.121   9.021   7.800  0.1518  0.0126  0.0015
  117loPI   C1B 1869  12.802   9.821  10.027  0.2048 -0.1943  0.0691
  117loPI   C2B 1870  12.728   9.822   9.590 -0.0786 -0.0256 -0.4486
  117loPI   C3B 1871  12.806   9.765   9.126 -0.0855 -0.2851  0.0493
  117loPI   C4B 1872  12.783   9.789   8.769  0.1512  0.0918 -0.1091
  118loPI    C1 1873   5.605   8.051  11.259  0.1427  0.0118  0.0395
  118loPI    C2 1874   5.626   8.403  11.447 -0.2365 -0.0014  0.1144
  118loPI    C3 1875   5.350   8.135  11.555 -0.1700 -0.1878 -0.1673
  118loPI   PO4 1876   5.672   8.131  11.011  0.4968 -0.0240 -0.0838
  118loPI   GL1 1877   5.731   8.203  10.543  0.0121 -0.3166  0.0555
  118loPI   GL2 1878   5.452   8.343  10.579  0.0676 -0.2663  0.1143
  118loPI   C1A 1879   5.807   8.033  10.118  0.3054  0.0816 -0.0533
  118loPI   C2A 1880   5.754   7.980   9.688 -0.1041  0.3628  0.1685
  118loPI   C3A 1881   5.802   8.092   9.208 -0.4809  0.0139  0.0872
  118loPI   C4A 1882   5.783   8.067   8.870 -0.0074 -0.0138  0.1314
  118loPI   C5A 1883   5.835   7.997   8.399 -0.0883 -0.0208  0.1126
  118loPI   C6A 1884   5.969   7.988   7.946  0.0711  0.1089 -0.0436
  118loPI   C1B 1885   5.429   8.462  10.206  0.1625 -0.0426  0.3591
  118loPI   C2B 1886   5.410   8.434   9.691 -0.2829 -0.0050 -0.2580
  118loPI   C3B 1887   5.462   8.478   9.236  0.3301 -0.0899 -0.1293
  118loPI   C4B 1888   5.504   8.478   8.787 -0.0401  0.1579  0.0420
  119loPI    C1 1889   0.403  16.887  10.690  0.0146 -0.1100  0.1732
  119loPI    C2 1890   0.732  16.777  10.890 -0.0477 -0.3258  0.1599
  119loPI    C3 1891   0.762  17.022  10.575  0.0755 -0.1701  0.2908
  119loPI   PO4 1892   0.248  16.583  10.650  0.0930  0.0784 -0.2714
  119loPI   GL1 1893   0.168  16.469  10.313  0.0656 -0.0754  0.2618
  119loPI   GL2 1894  -0.007  16.263  10.294  0.2056 -0.0885  0.0426
  119loPI   C1A 1895   0.229  16.695   9.862  0.1197  0.1623  0.2017
  119loPI   C2A 1896   0.215  16.730   9.506 -0.1198 -0.1288 -0.0160
  119loPI   C3A 1897   0.241  16.577   9.036 -0.1336  0.0095  0.2007
  119loPI   C4A 1898   0.305  16.581   8.647 -0.1499  0.0958  0.0620
  119loPI   C5A 1899   0.412  16.217   8.371 -0.0472 -0.1706  0.4017
  119loPI   C6A 1900   0.631  15.942   8.025  0.2447 -0.1170  0.1010
  119loPI   C1B 1901   0.054  16.153   9.917 -0.1210 -0.0880  0.0242
  119loPI   C2B 1902  -0.030  16.211   9.519 -0.1557 -0.3099  0.0540
  119loPI   C3B 1903   0.014  16.145   9.078  0.1049  0.1111 -0.0013
  119loPI   C4B 1904   0.047  16.080   8.683 -0.0778  0.2465  0.0697
  120loPI    C1 1905   9.823   6.732  11.335  0.1459 -0.0589 -0.1081
  120loPI    C2 1906   9.633   6.395  11.440  0.0777 -0.0546 -0.2160
  120loPI    C3 1907   9.949   6.521  11.651  0.1247 -0.2047 -0.1957
  120loPI   PO4 1908   9.904   6.722  11.038  0.0143  0.0264  0.1817
  120loPI   GL1 1909   9.821   6.901  10.609 -0.1700  0.0557 -0.0285
  120loPI   GL2 1910   9.539   6.653  10.576 -0.0106  0.0589  0.0910
  120loPI   C1A 1911   9.519   7.130  10.474 -0.2277  0.0868 -0.2758
  120loPI   C2A 1912   9.664   6.993  10.071  0.3675  0.0267 -0.2065
  120loPI   C3A 1913   9.712   6.905   9.640  0.2179 -0.0985 -0.0692
  120loPI   C4A 1914   9.710   6.901   9.216  0.1941 -0.1694  0.0375
  120loPI   C5A 1915   9.827   6.908   8.791  0.1558  0.1943  0.1254
  120loPI   C6A 1916   9.766   6.958   8.370 -0.2729  0.0830 -0.2587
  120loPI   C1B 1917   9.485   6.436  10.166  0.2839 -0.2340  0.0281
  120loPI   C2B 1918   9.427   6.409   9.725  0.2184 -0.0137  0.1849
  120loPI   C3B 1919   9.479   6.430   9.239  0.0347  0.1957  0.2339
  120loPI   C4B 1920   9.607   6.485   8.895 -0.1590  0.1620  0.1911
  121loPI    C1 1921   0.636  17.901  10.691  0.3025  0.1049 -0.0086
  121loPI    C2 1922   0.836  17.561  10.760  0.2242  0.0051 -0.2647
  121loPI    C3 1923   0.713  17.786  11.067  0.3300 -0.1658 -0.0949
  121loPI   PO4 1924   0.611  17.900  10.496  0.2068 -0.0165  0.1748
  121loPI   GL1 1925   0.611  17.577  10.122  0.4006  0.0648  0.2348
  121loPI   GL2 1926   0.904  17.444  10.292 -0.0235  0.0911 -0.0685
  121loPI   C1A 1927   0.646  17.556   9.673  0.3949 -0.0814 -0.0531
  121loPI   C2A 1928   0.648  17.513   9.161  0.0164 -0.1569 -0.2708
  121loPI   C3A 1929   0.669  17.548   8.660 -0.0163 -0.0846 -0.1011
  121loPI   C4A 1930   0.333  17.497   8.358  0.0490 -0.1756 -0.1235
  121loPI   C5A 1931   0.133  17.558   7.945  0.1200 -0.5376 -0.1320
  121loPI   C6A 1932  -0.108  17.826   7.570 -0.0927  0.2219  0.2920
  121loPI   C1B 1933   0.899  17.244   9.938  0.3005 -0.1554 -0.1121
  121loPI   C2B 1934   1.025  17.217   9.519 -0.1287 -0.0022 -0.0991
  121loPI   C3B 1935   1.058  17.108   8.989  0.0940 -0.0193 -0.3542
  121loPI   C4B 1936   1.001  17.028   8.499 -0.0533 -0.1845 -0.0965
  122loPI    C1 1937   3.609  11.979  11.415  0.3348 -0.0857 -0.0732
  122loPI    C2 1938   3.757  11.692  11.650 -0.0496 -0.0752  0.1919
  122loPI    C3 1939   3.762  12.072  11.773  0.2571  0.0087 -0.0641
  122loPI   PO4 1940   3.350  12.042  11.270 -0.1744 -0.1941  0.1351
  122loPI   GL1 1941   3.489  12.057  10.774 -0.2307 -0.1199 -0.1187
  122loPI   GL2 1942   3.358  12.291  10.719  0.3527 -0.3042 -0.1174
  122loPI   C1A 1943   3.486  11.854  10.437 -0.0690  0.0801  0.1717
  122loPI   C2A 1944   3.555  11.812   9.953  0.2428  0.1948  0.4145
  122loPI   C3A 1945   3.558  11.984   9.475  0.1939 -0.0399 -0.1918
  122loPI   C4A 1946   3.502  12.076   9.100 -0.2288 -0.1322 -0.0761
  122loPI   C5A 1947   3.617  12.166   8.728 -0.1514 -0.3301 -0.1840
  122loPI   C6A 1948   3.440  12.507   8.442  0.1073  0.0117 -0.1891
  122loPI   C1B 1949   3.282  12.322  10.335  0.1066 -0.0673  0.3586
  122loPI   C2B 1950   3.355  12.323   9.881  0.0565 -0.2821  0.2018
  122loPI   C3B 1951   3.295  12.396   9.374  0.1868 -0.2453 -0.0849
  122loPI   C4B 1952   3.294  12.542   9.009 -0.0327  0.1372  0.0374
  123loPI    C1 1953  13.533   8.860  10.972  0.0231  0.0146  0.0342
  123loPI    C2 1954  13.301   8.786  11.289 -0.1223  0.0144 -0.0712
  123loPI    C3 1955  13.677   8.651  11.281 -0.0022  0.3148  0.2534
  123loPI   PO4 1956  13.540   8.804  10.676  0.1077  0.0850  0.4100
  123loPI   GL1 1957  13.646   9.124  10.375  0.2996 -0.1381  0.1155
  123loPI   GL2 1958  13.419   9.395  10.359  0.2947 -0.1150 -0.2841
  123loPI   C1A 1959  13.659   8.972   9.959 -0.0478 -0.0612 -0.1096
  123loPI   C2A 1960  13.734   8.948   9.537  0.0244  0.0530 -0.3393
  123loPI   C3A 1961  13.728   8.902   9.079  0.1345  0.1137 -0.1568
  123loPI   C4A 1962  13.945   8.816   8.719 -0.1560  0.0977  0.0432
  123loPI   C5A 1963  13.983   9.031   8.386  0.4679 -0.1751 -0.1119
  123loPI   C6A 1964  14.180   9.324   8.070 -0.2149 -0.2191 -0.0737
  123loPI   C1B 1965  13.440   9.396   9.949  0.1857  0.0036  0.0241
  123loPI   C2B 1966  13.466   9.335   9.521  0.2214 -0.0100  0.2877
  123loPI   C3B 1967  13.520   9.445   9.080  0.3420  0.2798  0.1487
  123loPI   C4B 1968  13.660   9.263   8.696 -0.1632  0.0175  0.0569
  124loPI    C1 1969   1.683   0.324  10.489 -0.0865  0.1098 -0.1815
  124loPI    C2 1970   1.585  -0.032  10.333  0.0371 -0.0020 -0.0075
  124loPI    C3 1971   1.618   0.011  10.730  0.1977  0.1590 -0.0368
  124loPI   PO4 1972   1.626   0.501  10.274  0.3261 -0.1779 -0.1231
  124loPI   GL1 1973   1.512   0.545   9.883  0.0613 -0.0815 -0.1797
  124loPI   GL2 1974   1.229   0.504   9.727 -0.0023 -0.0800  0.1459
  124loPI   C1A 1975   1.680   0.439   9.459 -0.1862  0.2499 -0.1806
  124loPI   C2A 1976   1.754   0.294   9.043  0.1517  0.1031  0.0667
  124loPI   C3A 1977   1.727   0.358   8.517 -0.0880 -0.0855 -0.0835
  124loPI   C4A 1978   2.043   0.325   8.215 -0.2216 -0.1204  0.2120
  124loPI   C5A 1979   2.325   0.525   8.009 -0.2833  0.0004  0.2462
  124loPI   C6A 1980   2.280   1.006   7.989 -0.2751 -0.2268 -0.2284
  124loPI   C1B 1981   1.216   0.274   9.360 -0.3376 -0.2401 -0.1811
  124loPI   C2B 1982   1.208   0.146   8.991  0.2130  0.1223  0.0303
  124loPI   C3B 1983   1.185   0.304   8.561 -0.1659  0.3063 -0.2976
  124loPI   C4B 1984   1.027   0.511   8.092  0.0108 -0.1603  0.0510
  125loPI    C1 1985   0.231   4.301   9.959  0.0160  0.4568 -0.1382
  125loPI    C2 1986  -0.147   4.431   9.935 -0.1882 -0.0774  0.0384
  125loPI    C3 1987   0.054   4.460  10.280 -0.0944  0.1299 -0.0325
  125loPI   PO4 1988   0.270   4.293   9.624  0.2148  0.1469  0.0257
  125loPI   GL1 1989   0.008   4.575   9.380  0.2847 -0.0653 -0.0214
  125loPI   GL2 1990  -0.061   4.339   9.228 -0.2296 -0.0315 -0.1341
  125loPI   C1A 1991   0.283   4.668   9.046 -0.0695  0.0306 -0.4300
  125loPI   C2A 1992   0.376   4.650   8.624  0.2809  0.0195  0.1201
  125loPI   C3A 1993   0.394   4.879   8.243 -0.0159 -0.0280 -0.0235
  125loPI   C4A 1994   0.215   5.035   7.815  0.0522  0.2523  0.1785
  125loPI   C5A 1995   0.334   4.908   7.410  0.3698 -0.3476 -0.1016
  125loPI   C6A 1996   0.519   5.070   7.083 -0.0002 -0.0805  0.1470
  125loPI   C1B 1997  -0.125   4.510   8.798 -0.0779 -0.1264 -0.2310
  125loPI   C2B 1998  -0.018   4.423   8.368  0.2683  0.1700  0.0956
  125loPI   C3B 1999   0.191   4.464   8.140  0.2568  0.0029  0.2900
  125loPI   C4B 2000   0.452   4.599   7.805 -0.1715  0.1234 -0.0094
  126loPI    C1 2001  15.700   9.455  10.524 -0.0054  0.2225 -0.1082
  126loPI    C2 2002  15.360   9.415  10.318 -0.0212  0.1289 -0.0646
  126loPI    C3 2003  15.653   9.649  10.178 -0.1156  0.2349 -0.0864
  126loPI   PO4 2004  15.640   9.168  10.593 -0.1991  0.1016  0.0477
  126loPI   GL1 2005  15.793   8.972  10.308 -0.1418 -0.0780  0.1389
  126loPI   GL2 2006  16.044   8.831  10.259 -0.0144 -0.0970 -0.0489
  126loPI   C1A 2007  15.629   9.210   9.972  0.0081 -0.0351 -0.2840
  126loPI   C2A 2008  15.670   9.408   9.678 -0.2362 -0.0371  0.1278
  126loPI   C3A 2009  15.593   9.458   9.277 -0.1147  0.0662  0.2205
  126loPI   C4A 2010  15.526   9.411   8.903 -0.0066 -0.2488 -0.0285
  126loPI   C5A 2011  15.494   9.594   8.508 -0.2216 -0.1302 -0.0117
  126loPI   C6A 2012  15.346   9.544   8.152  0.0307 -0.1098  0.5490
  126loPI   C1B 2013  16.023   8.785   9.814  0.0029  0.1001 -0.1394
  126loPI   C2B 2014  15.942   9.001   9.551  0.2796 -0.1109  0.2228
  126loPI   C3B 2015  15.945   9.107   9.099 -0.0184  0.4628 -0.0916
  126loPI   C4B 2016  15.987   9.167   8.738  0.0777  0.1393  0.1204
  127loPI    C1 2017   0.240  17.729  10.891 -0.1659 -0.0351 -0.3169
  127loPI    C2 2018  -0.034  17.585  11.143  0.2640 -0.0783  0.1411
  127loPI    C3 2019   0.144  17.935  11.220  0.3031 -0.0249 -0.1785
  127loPI   PO4 2020   0.114  17.763  10.625  0.0426  0.0699 -0.1273
  127loPI   GL1 2021  -0.071  17.498  10.335  0.2029  0.0674 -0.1839
  127loPI   GL2 2022   0.118  17.584  10.134 -0.1010 -0.1595  0.2431
  127loPI   C1A 2023  -0.368  17.578  10.007 -0.1999 -0.1616 -0.5087
  127loPI   C2A 2024  -0.433  17.591   9.685 -0.2268 -0.0136 -0.0055
  127loPI   C3A 2025  -0.405  17.473   9.266 -0.3062 -0.2412 -0.0431
  127loPI   C4A 2026  -0.390  17.364   8.926 -0.0972  0.1480 -0.1112
  127loPI   C5A 2027  -0.353  17.273   8.509  0.0497  0.0402  0.2191
  127loPI   C6A 2028  -0.303  17.373   8.004  0.0559  0.3592 -0.3742
  127loPI   C1B 2029   0.132  17.527   9.696  0.0339  0.0577 -0.0521
  127loPI   C2B 2030   0.129  17.492   9.206  0.0228 -0.0018 -0.1062
  127loPI   C3B 2031   0.117  17.480   8.816  0.0529  0.0383  0.0798
  127loPI   C4B 2032  -0.122  17.676   8.472 -0.0597 -0.3026  0.1852
  128loPI    C1 2033   2.158  10.595  10.917 -0.2966 -0.2327  0.1734
  128loPI    C2 2034   1.890  10.868  11.034  0.0645  0.2023  0.0135
  128loPI    C3 2035   2.209  10.789  11.263  0.0693  0.0648 -0.0399
  128loPI   PO4 2036   2.243  10.694  10.720 -0.2409 -0.1939 -0.2230
  128loPI   GL1 2037   2.135  10.944  10.471 -0.1817  0.2382 -0.0904
  128loPI   GL2 2038   1.888  11.050  10.537 -0.0522  0.3160  0.1762
  128loPI   C1A 2039   2.070  11.019   9.988 -0.1097  0.0700  0.1164
  128loPI   C2A 2040   2.087  11.010   9.527  0.0311  0.1932 -0.2365
  128loPI   C3A 2041   2.074  10.987   9.124  0.0117  0.1961  0.4847
  128loPI   C4A 2042   2.171  10.966   8.724  0.1040 -0.1118 -0.0990
  128loPI   C5A 2043   1.902  10.761   8.536  0.0571  0.2100 -0.3075
  128loPI   C6A 2044   1.572  10.626   8.393  0.2406  0.1512  0.0685
  128loPI   C1B 2045   1.804  11.355  10.253 -0.0076 -0.1331 -0.0402
  128loPI   C2B 2046   1.852  11.452   9.795 -0.2674  0.2651 -0.1821
  128loPI   C3B 2047   1.754  11.354   9.502 -0.0837 -0.1953  0.0846
  128loPI   C4B 2048   1.789  11.347   9.084 -0.3702  0.0613 -0.2403
  129loPI    C1 2049   5.265   3.590  10.577  0.1827  0.0799 -0.1338
  129loPI    C2 2050   5.095   3.824  10.854  0.2609  0.4085 -0.3577
  129loPI    C3 2051   4.867   3.601  10.613  0.1903  0.1639 -0.0704
  129loPI   PO4 2052   5.483   3.568  10.678  0.0979 -0.1833  0.3712
  129loPI   GL1 2053   5.715   3.624  10.458 -0.0585  0.2180 -0.0874
  129loPI   GL2 2054   5.963   3.600  10.329  0.0431  0.3180 -0.0662
  129loPI   C1A 2055   5.475   3.455  10.093 -0.0407 -0.0063  0.5143
  129loPI   C2A 2056   5.585   3.487   9.629 -0.1188 -0.3514 -0.0519
  129loPI   C3A 2057   5.604   3.423   9.205 -0.2437  0.0702  0.0787
  129loPI   C4A 2058   5.670   3.519   8.718  0.0166 -0.2580 -0.1923
  129loPI   C5A 2059   5.815   3.177   8.440  0.1321 -0.1527  0.3011
  129loPI   C6A 2060   5.648   2.822   8.242 -0.1203 -0.1601  0.2875
  129loPI   C1B 2061   6.122   3.484   9.899  0.1024 -0.2213  0.0423
  129loPI   C2B 2062   6.154   3.400   9.405 -0.3874 -0.1756 -0.1963
  129loPI   C3B 2063   6.146   3.445   8.909 -0.0116 -0.2499  0.3774
  129loPI   C4B 2064   6.231   3.564   8.475  0.1610  0.0604  0.0313
  130loPI    C1 2065  10.154   1.533  11.074  0.0041 -0.0276  0.0305
  130loPI    C2 2066  10.272   1.694  11.421  0.0515  0.1235 -0.0549
  130loPI    C3 2067  10.150   1.313  11.408  0.2784  0.0439  0.0834
  130loPI   PO4 2068  10.000   1.619  10.922 -0.1981  0.3854 -0.1999
  130loPI   GL1 2069  10.017   1.721  10.432 -0.0928 -0.1039  0.0310
  130loPI   GL2 2070  10.229   1.569  10.192 -0.3299 -0.0942  0.0980
  130loPI   C1A 2071   9.733   1.483  10.159  0.0145 -0.0582 -0.1799
  130loPI   C2A 2072   9.725   1.458   9.749 -0.0258 -0.0124  0.0455
  130loPI   C3A 2073   9.714   1.504   9.295 -0.0666  0.1049 -0.0344
  130loPI   C4A 2074   9.787   1.501   8.940 -0.0595 -0.0887 -0.0318
  130loPI   C5A 2075   9.780   1.545   8.480 -0.0970  0.0098  0.1128
  130loPI   C6A 2076   9.922   1.567   8.052 -0.0670  0.0269 -0.2713
  130loPI   C1B 2077  10.217   1.485   9.725 -0.1837 -0.3888 -0.1585
  130loPI   C2B 2078  10.243   1.503   9.206 -0.0080 -0.0669 -0.1729
  130loPI   C3B 2079  10.323   1.441   8.846 -0.0636 -0.4503 -0.0107
  130loPI   C4B 2080  10.287   1.551   8.430  0.0978 -0.1284  0.0257
  131loPI    C1 2081  12.247  18.057  10.993  0.3931 -0.0921 -0.2028
  131loPI    C2 2082  12.549  18.318  10.968  0.0938  0.2549 -0.2684
  131loPI    C3 2083  12.347  18.278  11.311  0.1928  0.0449 -0.2332
  131loPI   PO4 2084  12.229  17.924  10.747  0.2067  0.0669 -0.1041
  131loPI   GL1 2085  12.474  18.085  10.482  0.0840 -0.2621 -0.2825
  131loPI   GL2 2086  12.438  17.752  10.330 -0.1545 -0.1054  0.2642
  131loPI   C1A 2087  12.621  18.198  10.096 -0.1992  0.4044 -0.1181
  131loPI   C2A 2088  12.659  18.173   9.683  0.3932  0.0898  0.3327
  131loPI   C3A 2089  12.476  18.082   9.292 -0.0792 -0.2476  0.1531
  131loPI   C4A 2090  12.556  17.949   8.890 -0.0010 -0.0784 -0.0511
  131loPI   C5A 2091  12.653  17.653   8.543 -0.2603 -0.3298 -0.2418
  131loPI   C6A 2092  12.820  17.775   8.170 -0.2617  0.1610  0.0005
  131loPI   C1B 2093  12.423  17.708   9.868 -0.1434  0.2914  0.0939
  131loPI   C2B 2094  12.415  17.597   9.396 -0.0887 -0.0304 -0.1658
  131loPI   C3B 2095  12.296  17.542   8.952  0.2118  0.0483  0.3187
  131loPI   C4B 2096  12.263  17.393   8.515  0.0807 -0.1256 -0.0936
  132loPI    C1 2097   2.613  11.608  10.921 -0.0556 -0.1299  0.1096
  132loPI    C2 2098   2.519  11.766  11.276  0.1849  0.0379  0.1009
  132loPI    C3 2099   2.570  11.371  11.240 -0.0481 -0.0030  0.2058
  132loPI   PO4 2100   2.578  11.878  10.801  0.0207 -0.0001  0.1179
  132loPI   GL1 2101   2.537  11.985  10.393 -0.0949 -0.0759 -0.2491
  132loPI   GL2 2102   2.831  12.201  10.512  0.2567 -0.4166  0.1634
  132loPI   C1A 2103   2.558  11.920   9.923 -0.0527  0.0752 -0.0768
  132loPI   C2A 2104   2.509  11.914   9.480 -0.3438 -0.0691 -0.1355
  132loPI   C3A 2105   2.579  12.016   9.197 -0.0420 -0.0073 -0.0237
  132loPI   C4A 2106   2.597  11.994   8.735 -0.2141  0.3166  0.1577
  132loPI   C5A 2107   2.533  12.043   8.276  0.0735 -0.1620  0.0765
  132loPI   C6A 2108   2.638  12.067   7.823 -0.0311  0.1320  0.0231
  132loPI   C1B 2109   2.775  12.325  10.120  0.0530 -0.0980  0.0786
  132loPI   C2B 2110   2.799  12.317   9.631  0.1582 -0.2021  0.0882
  132loPI   C3B 2111   2.851  12.411   9.126  0.0441 -0.0897  0.2051
  132loPI   C4B 2112   2.890  12.508   8.752  0.1428 -0.3079 -0.1698
  133loPI    C1 2113   0.973  13.527  11.194  0.1704 -0.0873  0.0516
  133loPI    C2 2114   1.093  13.892  11.304 -0.0432  0.0102 -0.0329
  133loPI    C3 2115   0.769  13.729  11.473 -0.0483 -0.0693 -0.1183
  133loPI   PO4 2116   0.915  13.503  10.930  0.0599  0.1483 -0.2515
  133loPI   GL1 2117   1.250  13.431  10.615 -0.1043 -0.1481  0.0106
  133loPI   GL2 2118   1.377  13.228  10.594 -0.0271 -0.1178 -0.1354
  133loPI   C1A 2119   1.288  13.553  10.198 -0.1027  0.3046 -0.1388
  133loPI   C2A 2120   1.369  13.605   9.784 -0.1055  0.0141  0.0185
  133loPI   C3A 2121   1.398  13.513   9.376  0.0986 -0.0295 -0.1013
  133loPI   C4A 2122   1.398  13.487   9.069  0.1794  0.1198  0.1243
  133loPI   C5A 2123   1.306  13.618   8.543 -0.2391  0.2736  0.0457
  133loPI   C6A 2124   1.730  13.729   8.261  0.0462  0.1446  0.0246
  133loPI   C1B 2125   1.584  13.178  10.178 -0.2736 -0.0699  0.1055
  133loPI   C2B 2126   1.668  13.218   9.826 -0.0163 -0.0848 -0.1440
  133loPI   C3B 2127   1.704  13.071   9.364  0.4296 -0.1465 -0.0088
  133loPI   C4B 2128   1.674  13.072   9.004  0.0037 -0.0401  0.0729
  134loPI    C1 2129   9.467   9.976  11.086 -0.0505  0.2193  0.2124
  134loPI    C2 2130   9.266  10.117  10.771 -0.0937  0.0441  0.1604
  134loPI    C3 2131   9.471  10.368  11.006 -0.0159  0.1689 -0.0381
  134loPI   PO4 2132   9.630   9.807  11.001  0.2188  0.3641  0.2099
  134loPI   GL1 2133   9.636   9.837  10.608 -0.3249 -0.0264  0.1218
  134loPI   GL2 2134   9.690   9.579  10.353  0.0740 -0.3047 -0.0048
  134loPI   C1A 2135   9.260   9.965  10.313 -0.0925 -0.1258  0.1522
  134loPI   C2A 2136   9.199  10.134   9.974  0.0219  0.1644  0.2355
  134loPI   C3A 2137   9.274  10.098   9.546 -0.0219  0.0697 -0.0336
  134loPI   C4A 2138   9.378  10.081   9.170 -0.2393  0.0826  0.0560
  134loPI   C5A 2139   9.402  10.247   8.711  0.3220  0.2547 -0.1925
  134loPI   C6A 2140   9.544  10.233   8.346 -0.2339 -0.1571 -0.4110
  134loPI   C1B 2141   9.486   9.594   9.910  0.3550 -0.1422 -0.0631
  134loPI   C2B 2142   9.523   9.692   9.475 -0.2265  0.1020  0.1376
  134loPI   C3B 2143   9.647   9.667   9.114  0.0153 -0.1872  0.0304
  134loPI   C4B 2144   9.623   9.772   8.726  0.3172 -0.0096 -0.1513
  135loPI    C1 2145   4.472   4.259  10.226  0.1077  0.0221  0.2247
  135loPI    C2 2146   4.619   4.613  10.338 -0.0888  0.1386  0.1208
  135loPI    C3 2147   4.357   4.423  10.572 -0.0618  0.1104  0.1281
  135loPI   PO4 2148   4.436   4.307   9.939  0.0848  0.1302  0.1517
  135loPI   GL1 2149   4.324   4.609   9.776 -0.2409  0.2421  0.0540
  135loPI   GL2 2150   4.477   4.819   9.934  0.0355 -0.0717  0.0209
  135loPI   C1A 2151   4.552   4.442   9.306  0.3065  0.2801  0.0935
  135loPI   C2A 2152   4.723   4.372   8.906 -0.0298 -0.0584 -0.0473
  135loPI   C3A 2153   4.752   4.247   8.544 -0.3419  0.0829  0.0607
  135loPI   C4A 2154   4.995   4.121   8.179 -0.1398 -0.4831  0.1430
  135loPI   C5A 2155   5.118   3.822   7.959 -0.1866 -0.0478  0.2585
  135loPI   C6A 2156   5.182   3.626   7.529 -0.5547 -0.0004  0.1209
  135loPI   C1B 2157   4.790   4.744   9.562 -0.3005 -0.1556 -0.0099
  135loPI   C2B 2158   4.906   4.805   9.134 -0.1458  0.3374  0.0865
  135loPI   C3B 2159   4.723   4.840   8.650  0.0324  0.1064  0.1276
  135loPI   C4B 2160   4.967   4.907   8.321  0.0629  0.4189  0.2208
  136loPI    C1 2161  10.574   6.812  11.098 -0.1928  0.0320  0.1224
  136loPI    C2 2162  10.357   6.622  11.374  0.1471 -0.4031  0.1007
  136loPI    C3 2163  10.700   6.798  11.477 -0.1559  0.2026  0.1174
  136loPI   PO4 2164  10.351   6.928  10.943 -0.0231 -0.0199  0.0248
  136loPI   GL1 2165  10.248   7.143  10.503  0.1150 -0.0276  0.3887
  136loPI   GL2 2166  10.017   7.402  10.375  0.2365 -0.3751 -0.4202
  136loPI   C1A 2167  10.226   6.919   9.992  0.0484 -0.4746 -0.0458
  136loPI   C2A 2168  10.186   6.961   9.510  0.1467  0.1450 -0.2280
  136loPI   C3A 2169  10.259   6.973   9.050 -0.1409  0.0448 -0.1931
  136loPI   C4A 2170  10.319   6.879   8.615  0.0008 -0.0697 -0.0217
  136loPI   C5A 2171  10.317   6.781   8.267  0.0676 -0.2965  0.0161
  136loPI   C6A 2172  10.066   7.158   8.000 -0.0891  0.0099  0.2642
  136loPI   C1B 2173  10.003   7.338   9.889  0.0979 -0.1191 -0.2619
  136loPI   C2B 2174   9.972   7.390   9.440  0.1127  0.3217 -0.1268
  136loPI   C3B 2175   9.892   7.353   9.056 -0.1299 -0.1992  0.0916
  136loPI   C4B 2176  10.021   7.303   8.657  0.2901 -0.0551  0.1352
  137loPI    C1 2177   8.656   7.067  11.031  0.2069  0.0369  0.0557
  137loPI    C2 2178   8.862   6.757  11.179  0.1368 -0.1391 -0.2092
  137loPI    C3 2179   8.465   6.730  11.135  0.0632  0.1641  0.2106
  137loPI   PO4 2180   8.764   7.146  10.802 -0.0823 -0.1447 -0.4669
  137loPI   GL1 2181   9.015   7.108  10.434 -0.0301  0.0578 -0.5979
  137loPI   GL2 2182   9.184   6.854  10.285 -0.2823 -0.1309 -0.2859
  137loPI   C1A 2183   8.983   7.299   9.945  0.2302  0.1214 -0.1181
  137loPI   C2A 2184   8.968   7.296   9.552  0.0952 -0.4803 -0.1941
  137loPI   C3A 2185   8.902   7.493   9.141 -0.0384  0.0262 -0.2603
  137loPI   C4A 2186   8.889   7.347   8.740  0.0256 -0.1434 -0.3321
  137loPI   C5A 2187   8.897   7.078   8.368 -0.0242 -0.0194 -0.1338
  137loPI   C6A 2188   8.865   6.709   8.094 -0.0822  0.0365 -0.1450
  137loPI   C1B 2189   9.188   6.889   9.796  0.2394  0.1257 -0.0883
  137loPI   C2B 2190   9.236   6.871   9.410  0.2056  0.0282 -0.0122
  137loPI   C3B 2191   9.128   6.977   9.007  0.1498 -0.2007 -0.1029
  137loPI   C4B 2192   9.268   6.775   8.691 -0.1620 -0.2722  0.1275
  138loPI    C1 2193  11.725   6.187  10.999 -0.0438 -0.0304  0.0725
  138loPI    C2 2194  11.971   5.891  11.109 -0.0601 -0.1367 -0.1698
  138loPI    C3 2195  11.950   6.226  11.327 -0.1105 -0.3498  0.1597
  138loPI   PO4 2196  11.762   6.194  10.749  0.1194 -0.1165 -0.1381
  138loPI   GL1 2197  11.483   6.280  10.356 -0.1115 -0.0205  0.1230
  138loPI   GL2 2198  11.143   6.156  10.472  0.0743 -0.0873  0.0022
  138loPI   C1A 2199  11.377   6.123   9.994 -0.4507 -0.2020 -0.1010
  138loPI   C2A 2200  11.363   6.116   9.514 -0.0006 -0.0425 -0.2994
  138loPI   C3A 2201  11.406   6.147   8.936  0.0279 -0.0593  0.1931
  138loPI   C4A 2202  11.336   6.285   8.494  0.1767  0.0866  0.3096
  138loPI   C5A 2203  10.886   6.566   8.472 -0.0358  0.1340  0.2204
  138loPI   C6A 2204  10.949   6.934   8.161  0.3905 -0.0387  0.0647
  138loPI   C1B 2205  10.895   6.059  10.151  0.0651  0.2671 -0.1720
  138loPI   C2B 2206  10.903   5.962   9.692  0.0564 -0.0475 -0.0661
  138loPI   C3B 2207  10.849   6.070   9.212  0.0591  0.2011 -0.0962
  138loPI   C4B 2208  10.901   6.080   8.743 -0.1531  0.2358  0.1134
  139loPI    C1 2209   2.717  10.894  11.339 -0.1159  0.1462  0.0524
  139loPI    C2 2210   2.480  11.010  11.639 -0.0459 -0.0081  0.1689
  139loPI    C3 2211   2.720  10.693  11.685 -0.3243 -0.2789 -0.1847
  139loPI   PO4 2212   2.633  10.927  11.027 -0.4024  0.0723  0.0215
  139loPI   GL1 2213   2.693  10.910  10.615 -0.1026  0.1952 -0.0487
  139loPI   GL2 2214   3.102  10.974  10.419 -0.2856  0.0401  0.0880
  139loPI   C1A 2215   2.590  10.898  10.158 -0.2654 -0.0113 -0.0831
  139loPI   C2A 2216   2.657  11.012   9.659 -0.1158 -0.1533  0.0617
  139loPI   C3A 2217   2.685  11.039   9.192 -0.0729  0.5481 -0.1166
  139loPI   C4A 2218   2.648  11.069   8.838  0.0786 -0.0067 -0.0051
  139loPI   C5A 2219   2.564  11.205   8.475 -0.4626  0.1783 -0.0752
  139loPI   C6A 2220   2.322  11.014   8.247  0.0261 -0.2902  0.0605
  139loPI   C1B 2221   3.171  10.896   9.980  0.1270  0.0431  0.1903
  139loPI   C2B 2222   3.159  11.003   9.487 -0.4300  0.0262 -0.0285
  139loPI   C3B 2223   3.204  11.113   9.071  0.3015 -0.1799 -0.1192
  139loPI   C4B 2224   3.148  11.039   8.522 -0.2384  0.0192  0.0953
  140loPI    C1 2225   8.045   8.879  11.030  0.0061  0.0401  0.0072
  140loPI    C2 2226   8.250   9.085  11.305 -0.1531  0.0323  0.1328
  140loPI    C3 2227   8.382   8.727  11.183  0.1006  0.1859 -0.0534
  140loPI   PO4 2228   7.983   9.018  10.859  0.1134  0.1951  0.0263
  140loPI   GL1 2229   7.831   9.452  10.790  0.0008  0.0427  0.2024
  140loPI   GL2 2230   7.993   9.258  10.454 -0.2501  0.1390 -0.0431
  140loPI   C1A 2231   7.600   9.768  10.491 -0.1840 -0.0899 -0.0666
  140loPI   C2A 2232   7.597   9.918  10.033 -0.1499  0.0473 -0.1041
  140loPI   C3A 2233   7.710  10.022   9.594  0.0866  0.1412 -0.1861
  140loPI   C4A 2234   7.888   9.944   9.137  0.1047 -0.0700  0.0188
  140loPI   C5A 2235   7.792   9.847   8.705  0.1009  0.1870 -0.2044
  140loPI   C6A 2236   8.139   9.638   8.325 -0.0428 -0.2276 -0.0967
  140loPI   C1B 2237   7.917   9.509  10.091  0.0924 -0.0747  0.0691
  140loPI   C2B 2238   7.893   9.520   9.618  0.3081 -0.1895 -0.0668
  140loPI   C3B 2239   8.145   9.532   9.353 -0.1554 -0.1928  0.2688
  140loPI   C4B 2240   8.110   9.507   8.953  0.1787  0.0397 -0.3759
  141loPI    C1 2241   5.508  13.962  11.073  0.5100  0.0670  0.0763
  141loPI    C2 2242   5.525  14.151  11.425 -0.1145  0.0214  0.1423
  141loPI    C3 2243   5.575  13.755  11.409 -0.3418 -0.0117  0.2199
  141loPI   PO4 2244   5.621  14.015  10.868 -0.1028 -0.1184  0.0875
  141loPI   GL1 2245   5.761  14.222  10.527 -0.1041 -0.0979 -0.2946
  141loPI   GL2 2246   6.051  14.031  10.603  0.3504 -0.1249  0.1463
  141loPI   C1A 2247   5.660  14.427  10.109  0.1656  0.4245  0.3491
  141loPI   C2A 2248   5.781  14.339   9.627 -0.1514  0.4663 -0.1956
  141loPI   C3A 2249   5.777  14.345   9.225 -0.0653 -0.1626  0.1570
  141loPI   C4A 2250   5.809  14.393   8.812  0.2550  0.1649 -0.1683
  141loPI   C5A 2251   5.801  14.522   8.389  0.3095  0.1516  0.2942
  141loPI   C6A 2252   5.815  14.812   8.396  0.0220  0.0016  0.1351
  141loPI   C1B 2253   6.064  13.942  10.151  0.1685 -0.1821  0.0467
  141loPI   C2B 2254   6.049  13.875   9.745  0.0610  0.1670 -0.0980
  141loPI   C3B 2255   6.116  13.966   9.317 -0.0601  0.0900  0.2597
  141loPI   C4B 2256   6.034  13.947   8.995 -0.1278  0.0660 -0.2646
  142loPI    C1 2257   9.194   6.918  10.877 -0.2194  0.3054  0.2834
  142loPI    C2 2258   9.394   6.797  11.201  0.2195 -0.1413 -0.1371
  142loPI    C3 2259   9.523   7.114  10.993  0.0730  0.0022 -0.0122
  142loPI   PO4 2260   9.073   6.643  10.780 -0.1405  0.1023  0.3083
  142loPI   GL1 2261   9.100   6.248  10.589 -0.1621 -0.1293 -0.1410
  142loPI   GL2 2262   8.947   6.459  10.345 -0.1531 -0.0773  0.0600
  142loPI   C1A 2263   9.223   5.912  10.332  0.0133 -0.1696  0.1695
  142loPI   C2A 2264   9.351   5.954   9.966 -0.0958 -0.3381 -0.1382
  142loPI   C3A 2265   9.356   5.885   9.487  0.0461  0.1416  0.0445
  142loPI   C4A 2266   9.243   5.972   9.066  0.1249 -0.4450  0.1458
  142loPI   C5A 2267   9.231   6.141   8.640 -0.0255  0.1961  0.2757
  142loPI   C6A 2268   9.176   6.070   8.183 -0.1142 -0.0326 -0.0694
  142loPI   C1B 2269   8.961   6.390   9.923 -0.0854 -0.1588  0.3354
  142loPI   C2B 2270   9.016   6.440   9.440  0.0461 -0.0665 -0.0820
  142loPI   C3B 2271   8.983   6.477   9.053 -0.4248 -0.0062 -0.1718
  142loPI   C4B 2272   8.880   6.515   8.597 -0.4668  0.2135 -0.1718
  143loPI    C1 2273  16.123  15.880  10.757 -0.0591 -0.0191  0.1001
  143loPI    C2 2274  15.832  16.153  10.768 -0.0271  0.0092  0.2612
  143loPI    C3 2275  16.013  16.040  11.106  0.0888 -0.0730  0.1723
  143loPI   PO4 2276  16.057  15.695  10.601  0.0470 -0.0813  0.1420
  143loPI   GL1 2277  16.235  15.587  10.241 -0.0417 -0.0227 -0.3832
  143loPI   GL2 2278  16.517  15.525  10.119  0.0272 -0.2174 -0.0738
  143loPI   C1A 2279  16.279  15.871   9.900 -0.0724 -0.3710 -0.0295
  143loPI   C2A 2280  16.095  15.974   9.432  0.0035  0.2817 -0.2324
  143loPI   C3A 2281  16.062  15.902   9.047 -0.1057 -0.2849 -0.0096
  143loPI   C4A 2282  16.091  15.861   8.676 -0.0090 -0.0789 -0.0120
  143loPI   C5A 2283  15.821  15.757   8.433 -0.2325  0.0106  0.1124
  143loPI   C6A 2284  15.419  15.612   8.352  0.0182 -0.1944 -0.0120
  143loPI   C1B 2285  16.584  15.525   9.627  0.1776  0.1640  0.1515
  143loPI   C2B 2286  16.378  15.521   9.267 -0.2074 -0.1673  0.0920
  143loPI   C3B 2287  16.520  15.540   8.769  0.0636 -0.3688 -0.1809
  143loPI   C4B 2288  16.649  15.473   8.352 -0.0254 -0.1566 -0.0285
  144loPI    C1 2289  13.505   7.454  10.657 -0.0895  0.1521  0.0506
  144loPI    C2 2290  13.353   7.115  10.805  0.3258 -0.2153 -0.3382
  144loPI    C3 2291  13.683   7.273  10.967  0.0943  0.0479 -0.1139
  144loPI   PO4 2292  13.416   7.327  10.349  0.2429 -0.0144 -0.0288
  144loPI   GL1 2293  13.127   7.184   9.971 -0.0830  0.0490  0.1297
  144loPI   GL2 2294  13.251   7.534   9.881 -0.2738 -0.0609  0.2172
  144loPI   C1A 2295  12.982   7.043   9.581 -0.3006  0.1021  0.4191
  144loPI   C2A 2296  13.013   7.048   9.091  0.2046  0.0967 -0.3599
  144loPI   C3A 2297  12.835   7.073   8.669 -0.0237  0.1033  0.1511
  144loPI   C4A 2298  12.639   7.157   8.274  0.2147 -0.0751  0.2196
  144loPI   C5A 2299  12.551   7.439   7.997 -0.0030 -0.1524  0.3420
  144loPI   C6A 2300  12.748   7.803   8.047  0.1291 -0.0738 -0.1071
  144loPI   C1B 2301  13.318   7.505   9.467 -0.1294  0.2382 -0.3681
  144loPI   C2B 2302  13.303   7.439   9.070  0.0372 -0.2252  0.1065
  144loPI   C3B 2303  13.171   7.542   8.716 -0.1466  0.3030 -0.0926
  144loPI   C4B 2304  13.114   7.568   8.333  0.0474  0.5488 -0.1439
  145loPI    C1 2305  16.588  17.011  10.766  0.1373  0.0205  0.1162
  145loPI    C2 2306  16.843  17.224  10.989 -0.1734  0.2642  0.2474
  145loPI    C3 2307  16.501  17.091  11.148 -0.1984  0.0650  0.0335
  145loPI   PO4 2308  16.682  17.150  10.510 -0.0667 -0.0826 -0.0003
  145loPI   GL1 2309  17.073  17.148  10.248  0.2147 -0.1065  0.0916
  145loPI   GL2 2310  16.828  17.467  10.094 -0.0679  0.0162  0.0771
  145loPI   C1A 2311  17.115  16.958   9.744  0.3563  0.2857  0.1471
  145loPI   C2A 2312  17.124  16.963   9.303  0.0193 -0.1152  0.1609
  145loPI   C3A 2313  17.119  16.924   8.871 -0.1572 -0.1397 -0.1917
  145loPI   C4A 2314  17.068  16.871   8.522  0.1532  0.0360  0.3718
  145loPI   C5A 2315  16.766  16.720   8.166  0.0542  0.0265 -0.0602
  145loPI   C6A 2316  16.352  16.608   8.034  0.0497  0.0718  0.3045
  145loPI   C1B 2317  16.854  17.370   9.597 -0.3581  0.0502  0.0914
  145loPI   C2B 2318  16.775  17.351   9.184 -0.2482  0.2508 -0.0065
  145loPI   C3B 2319  16.759  17.254   8.759  0.2466  0.0472  0.0091
  145loPI   C4B 2320  16.782  17.257   8.292  0.2243 -0.1789 -0.0844
  146loPI    C1 2321   1.623   8.595  10.904 -0.2266 -0.1816  0.3607
  146loPI    C2 2322   1.770   8.903  11.112  0.0070 -0.1177  0.1064
  146loPI    C3 2323   1.883   8.530  11.201  0.1684 -0.0844  0.0461
  146loPI   PO4 2324   1.756   8.605  10.676 -0.2059 -0.0807  0.1978
  146loPI   GL1 2325   1.982   8.565  10.316 -0.0590 -0.0697 -0.0294
  146loPI   GL2 2326   1.709   8.809  10.184  0.0611 -0.2388  0.0486
  146loPI   C1A 2327   2.040   8.539   9.907  0.1615 -0.1279 -0.1420
  146loPI   C2A 2328   1.943   8.555   9.569  0.1728 -0.4461 -0.0718
  146loPI   C3A 2329   2.085   8.696   9.159  0.1573  0.3580  0.3164
  146loPI   C4A 2330   2.131   8.658   8.744  0.2777  0.0293 -0.0224
  146loPI   C5A 2331   2.121   9.059   8.454  0.1613  0.2530 -0.0112
  146loPI   C6A 2332   2.068   9.355   8.120 -0.0916 -0.0083  0.3325
  146loPI   C1B 2333   1.616   8.916   9.723  0.0095 -0.0288  0.1937
  146loPI   C2B 2334   1.698   9.081   9.289  0.0203  0.1080 -0.1409
  146loPI   C3B 2335   1.805   9.188   8.800  0.1411  0.1823  0.1128
  146loPI   C4B 2336   1.711   9.298   8.434 -0.0277 -0.1942 -0.2240
  147loPI    C1 2337   6.979  15.842  11.229  0.2469 -0.2230 -0.1056
  147loPI    C2 2338   6.805  15.600  11.497  0.2676 -0.1420 -0.0184
  147loPI    C3 2339   7.002  15.926  11.620 -0.0647  0.1153 -0.1552
  147loPI   PO4 2340   7.052  15.688  11.002 -0.1629 -0.1388 -0.1321
  147loPI   GL1 2341   7.138  15.750  10.548 -0.1133 -0.2654 -0.2587
  147loPI   GL2 2342   6.913  15.919  10.504  0.0952  0.0179  0.0077
  147loPI   C1A 2343   7.166  15.494  10.187 -0.2323 -0.2750  0.1097
  147loPI   C2A 2344   7.221  15.372   9.807  0.0920 -0.1422  0.0507
  147loPI   C3A 2345   7.275  15.427   9.434  0.0621 -0.0224 -0.0833
  147loPI   C4A 2346   7.281  15.259   8.999  0.0442  0.2140  0.0062
  147loPI   C5A 2347   7.342  15.404   8.519  0.0165  0.2034 -0.1460
  147loPI   C6A 2348   7.186  15.238   8.153  0.2556  0.0143  0.0927
  147loPI   C1B 2349   6.904  15.960  10.032  0.2759  0.1232  0.0902
  147loPI   C2B 2350   6.920  15.879   9.557 -0.0645 -0.3128 -0.0302
  147loPI   C3B 2351   7.024  15.764   9.107  0.0081  0.1015 -0.0938
  147loPI   C4B 2352   6.948  15.759   8.727  0.1456  0.0683 -0.0015
  148loPI    C1 2353   9.085   1.971  11.222  0.1996 -0.0242 -0.0593
  148loPI    C2 2354   9.220   1.595  11.233  0.1032 -0.0545  0.1512
  148loPI    C3 2355   9.051   1.756  11.558 -0.0993  0.0811 -0.0184
  148loPI   PO4 2356   8.925   1.973  10.892 -0.2340  0.0835 -0.0304
  148loPI   GL1 2357   9.116   1.895  10.422  0.0307  0.0477  0.2634
  148loPI   GL2 2358   9.529   1.848  10.354  0.0345 -0.0833 -0.2896
  148loPI   C1A 2359   8.876   1.835  10.110 -0.0220  0.1459  0.2018
  148loPI   C2A 2360   8.972   1.875   9.641  0.3842 -0.1631  0.1611
  148loPI   C3A 2361   8.859   1.819   9.141  0.2062  0.3150 -0.1720
  148loPI   C4A 2362   9.048   1.936   8.796 -0.0879  0.0018 -0.1514
  148loPI   C5A 2363   9.146   1.991   8.372  0.1799  0.2001  0.2898
  148loPI   C6A 2364   9.548   1.943   8.216  0.1370 -0.1305  0.2426
  148loPI   C1B 2365   9.531   1.919  10.000 -0.1544  0.0113 -0.2609
  148loPI   C2B 2366   9.475   1.845   9.610 -0.1088 -0.0207 -0.0422
  148loPI   C3B 2367   9.535   1.912   9.217 -0.0864  0.2594  0.1624
  148loPI   C4B 2368   9.545   1.941   8.709 -0.4707 -0.0324 -0.1652
  149loPI    C1 2369   7.911  17.300  11.303  0.0372 -0.1667 -0.0081
  149loPI    C2 2370   8.243  17.076  11.295 -0.0221 -0.2530 -0.0675
  149loPI    C3 2371   7.918  16.946  11.489 -0.0531 -0.2135 -0.0925
  149loPI   PO4 2372   7.811  17.305  11.075 -0.0006 -0.0274  0.0595
  149loPI   GL1 2373   7.881  17.167  10.707 -0.1147  0.2408 -0.1683
  149loPI   GL2 2374   7.573  17.105  10.578 -0.1049 -0.0994  0.0964
  149loPI   C1A 2375   8.057  16.918  10.396 -0.1718  0.1037 -0.1556
  149loPI   C2A 2376   7.876  16.839   9.930  0.0975 -0.1750  0.1172
  149loPI   C3A 2377   7.886  16.758   9.517 -0.1732  0.0744  0.0146
  149loPI   C4A 2378   7.834  16.820   9.128  0.2387  0.0119  0.0373
  149loPI   C5A 2379   7.918  16.755   8.675  0.0939  0.0571  0.0528
  149loPI   C6A 2380   8.239  16.703   8.370  0.0139 -0.0365 -0.0101
  149loPI   C1B 2381   7.607  17.177  10.183 -0.1107 -0.3604 -0.0694
  149loPI   C2B 2382   7.570  17.255   9.687  0.0544 -0.2877 -0.1224
  149loPI   C3B 2383   7.549  17.179   9.361 -0.1764 -0.1930 -0.2910
  149loPI   C4B 2384   7.602  17.229   8.927 -0.0401 -0.1218 -0.0394
  150loPI    C1 2385   6.428  10.564  11.256  0.0406 -0.2088 -0.1797
  150loPI    C2 2386   6.091  10.378  11.364 -0.0008 -0.0714 -0.0707
  150loPI    C3 2387   6.329  10.538  11.642  0.1866 -0.2217 -0.1425
  150loPI   PO4 2388   6.405  10.473  11.022 -0.1760  0.1517  0.2808
  150loPI   GL1 2389   6.460  10.621  10.668  0.2804 -0.2555  0.0759
  150loPI   GL2 2390   6.560  10.795  10.478 -0.1455  0.0620 -0.0875
  150loPI   C1A 2391   6.344  10.326  10.288  0.0734  0.2521  0.2241
  150loPI   C2A 2392   6.377  10.325   9.930  0.2076  0.5248 -0.1375
  150loPI   C3A 2393   6.354  10.315   9.476 -0.2427 -0.3051 -0.1358
  150loPI   C4A 2394   6.413  10.320   9.114  0.1756 -0.4665 -0.0310
  150loPI   C5A 2395   6.466  10.394   8.576 -0.1607  0.0112 -0.1421
  150loPI   C6A 2396   6.234  10.423   8.175  0.0780 -0.2205  0.2449
  150loPI   C1B 2397   6.549  10.768  10.156  0.0377 -0.1705  0.0500
  150loPI   C2B 2398   6.576  10.746   9.632  0.2415  0.1397  0.5869
  150loPI   C3B 2399   6.589  10.756   9.206 -0.0040 -0.0189 -0.0211
  150loPI   C4B 2400   6.639  10.813   8.750  0.0307 -0.0488 -0.0632
  151loPI    C1 2401   7.260  13.476  10.958  0.0107 -0.1095 -0.0824
  151loPI    C2 2402   7.552  13.627  11.186 -0.1464  0.2319 -0.1008
  151loPI    C3 2403   7.201  13.530  11.350 -0.1110  0.0635 -0.1231
  151loPI   PO4 2404   7.375  13.543  10.740 -0.0315 -0.0864  0.1565
  151loPI   GL1 2405   7.405  13.567  10.258  0.2650  0.0912  0.1483
  151loPI   GL2 2406   7.888  13.556  10.401 -0.1648 -0.1489  0.1722
  151loPI   C1A 2407   7.352  13.600   9.888 -0.1594 -0.3071 -0.0899
  151loPI   C2A 2408   7.353  13.625   9.422 -0.2039 -0.1049  0.2345
  151loPI   C3A 2409   7.343  13.472   8.932 -0.1109 -0.0907  0.4109
  151loPI   C4A 2410   7.384  13.642   8.451 -0.2456 -0.0259 -0.3978
  151loPI   C5A 2411   7.301  13.926   8.140  0.0121 -0.1494  0.2842
  151loPI   C6A 2412   7.062  13.870   7.715  0.2766 -0.2579 -0.2480
  151loPI   C1B 2413   7.873  13.608   9.937  0.1604 -0.0088  0.1541
  151loPI   C2B 2414   7.830  13.702   9.498 -0.1159 -0.1303  0.2160
  151loPI   C3B 2415   7.930  13.563   9.057  0.0645  0.0751  0.3202
  151loPI   C4B 2416   7.902  13.575   8.617 -0.2361 -0.0793  0.1976
  152loPI    C1 2417   3.541   9.977  11.085 -0.3677 -0.0121 -0.0677
  152loPI    C2 2418   3.563   9.710  11.383 -0.1207 -0.1066 -0.1682
  152loPI    C3 2419   3.313  10.021  11.411 -0.1409 -0.1456  0.1126
  152loPI   PO4 2420   3.643   9.870  10.881  0.1807  0.5095 -0.0025
  152loPI   GL1 2421   4.008   9.940  10.704 -0.1265  0.2994  0.1018
  152loPI   GL2 2422   4.352  10.007  10.834  0.2064 -0.2404 -0.0772
  152loPI   C1A 2423   4.117  10.076  10.376 -0.1956 -0.0227 -0.3116
  152loPI   C2A 2424   4.149  10.107   9.962  0.2473 -0.0180 -0.1049
  152loPI   C3A 2425   4.275  10.107   9.493  0.0764 -0.0142  0.4817
  152loPI   C4A 2426   4.197  10.288   9.121 -0.1934 -0.1540  0.1775
  152loPI   C5A 2427   4.398  10.287   8.744 -0.0933  0.1430  0.0033
  152loPI   C6A 2428   4.209  10.507   8.405  0.1984  0.2085  0.0580
  152loPI   C1B 2429   4.605  10.013  10.529 -0.2836  0.2028 -0.2209
  152loPI   C2B 2430   4.692  10.053  10.081 -0.0098 -0.1526  0.1132
  152loPI   C3B 2431   4.775  10.136   9.649  0.0960 -0.0968 -0.0655
  152loPI   C4B 2432   4.734  10.229   9.218  0.2417  0.0045 -0.2408
  153loPI    C1 2433   4.912  11.996  11.177  0.0873  0.0242 -0.0355
  153loPI    C2 2434   4.542  12.130  11.105 -0.0029 -0.4072 -0.4242
  153loPI    C3 2435   4.595  11.792  11.312  0.1994 -0.1011  0.0415
  153loPI   PO4 2436   5.042  11.999  10.953  0.2824  0.0104  0.3648
  153loPI   GL1 2437   4.990  12.023  10.537  0.0045  0.0253 -0.0253
  153loPI   GL2 2438   5.229  12.030  10.393  0.1421  0.0659  0.2295
  153loPI   C1A 2439   4.875  12.333  10.228  0.0968  0.0308 -0.1030
  153loPI   C2A 2440   4.825  12.438   9.901  0.0003  0.2009 -0.1591
  153loPI   C3A 2441   4.854  12.514   9.518 -0.2385 -0.0834  0.3502
  153loPI   C4A 2442   4.891  12.524   9.059  0.0376 -0.1835 -0.0713
  153loPI   C5A 2443   4.913  12.600   8.635  0.0676 -0.1437  0.0930
  153loPI   C6A 2444   5.359  12.642   8.319 -0.5316 -0.1050 -0.2537
  153loPI   C1B 2445   5.247  12.013   9.924  0.0056 -0.3677 -0.0909
  153loPI   C2B 2446   5.152  11.998   9.440  0.0512 -0.0834  0.3241
  153loPI   C3B 2447   5.106  12.044   9.006 -0.1655 -0.1609  0.1412
  153loPI   C4B 2448   5.015  12.035   8.715  0.1412  0.0924  0.1444
  154loPI    C1 2449   3.888   9.385  11.097  0.1489 -0.3296 -0.2208
  154loPI    C2 2450   3.666   9.055  11.143 -0.2075 -0.0185  0.4269
  154loPI    C3 2451   4.010   9.096  11.344  0.1260 -0.2215 -0.0818
  154loPI   PO4 2452   3.935   9.428  10.821  0.5205  0.0480 -0.2116
  154loPI   GL1 2453   3.803   9.558  10.484  0.2197  0.1316  0.0946
  154loPI   GL2 2454   3.463   9.521  10.272 -0.2114  0.0419  0.1806
  154loPI   C1A 2455   3.930   9.692  10.089 -0.0316  0.1442  0.1907
  154loPI   C2A 2456   3.978   9.701   9.683 -0.0758  0.0947  0.2346
  154loPI   C3A 2457   4.023   9.690   9.315 -0.0930  0.0737 -0.1801
  154loPI   C4A 2458   4.061   9.826   8.992 -0.1629  0.1335  0.0569
  154loPI   C5A 2459   4.250   9.832   8.582 -0.3112  0.3197  0.0036
  154loPI   C6A 2460   4.120   9.534   8.344 -0.0760  0.0769  0.0476
  154loPI   C1B 2461   3.427   9.691   9.883  0.0889  0.1127  0.0503
  154loPI   C2B 2462   3.541   9.778   9.422 -0.4083 -0.1003 -0.1978
  154loPI   C3B 2463   3.599   9.738   8.999  0.1029 -0.1619 -0.1883
  154loPI   C4B 2464   3.594   9.706   8.525  0.1988 -0.1138  0.2866
  155loPI    C1 2465   5.654  14.755  11.399 -0.1263 -0.2155  0.1785
  155loPI    C2 2466   5.947  14.950  11.590 -0.3013  0.0593  0.1719
  155loPI    C3 2467   5.713  14.694  11.790 -0.1347 -0.0704  0.2028
  155loPI   PO4 2468   5.743  14.548  11.155 -0.1111  0.1363 -0.0523
  155loPI   GL1 2469   5.626  14.637  10.793 -0.0919 -0.0682  0.2268
  155loPI   GL2 2470   5.962  14.680  10.721  0.0181  0.1961 -0.2269
  155loPI   C1A 2471   5.360  14.681  10.553 -0.5029 -0.0185  0.0189
  155loPI   C2A 2472   5.363  14.852  10.077  0.1562  0.2258  0.2514
  155loPI   C3A 2473   5.516  14.819   9.625 -0.1572 -0.2829  0.0323
  155loPI   C4A 2474   5.439  14.837   9.214  0.2446 -0.3669  0.0502
  155loPI   C5A 2475   5.458  14.749   8.752 -0.1587 -0.1949 -0.0518
  155loPI   C6A 2476   5.321  14.434   8.509 -0.1505 -0.0307  0.0603
  155loPI   C1B 2477   5.964  14.799  10.255  0.2698  0.0062 -0.0820
  155loPI   C2B 2478   5.986  14.784   9.822 -0.0241 -0.1828  0.1848
  155loPI   C3B 2479   5.950  14.835   9.377  0.1672 -0.1270  0.4034
  155loPI   C4B 2480   5.999  14.807   8.991 -0.0305 -0.3728  0.0389
  156loPI    C1 2481  17.531   5.707   9.849  0.2580  0.1788 -0.1330
  156loPI    C2 2482  17.381   5.438  10.105  0.0778  0.0999 -0.3178
  156loPI    C3 2483  17.749   5.586  10.161 -0.0542  0.2757  0.1284
  156loPI   PO4 2484  17.451   5.617   9.600 -0.0254  0.2636  0.0072
  156loPI   GL1 2485  17.596   5.471   9.300 -0.1190 -0.0116  0.0021
  156loPI   GL2 2486  17.656   5.233   9.196  0.0251  0.3642  0.1643
  156loPI   C1A 2487  17.638   5.782   8.952 -0.1019 -0.0390  0.0186
  156loPI   C2A 2488  17.618   5.768   8.582  0.1032  0.1099 -0.0930
  156loPI   C3A 2489  17.654   6.005   8.276 -0.1548 -0.3875 -0.0329
  156loPI   C4A 2490  17.718   6.190   7.873  0.1124  0.0942 -0.0732
  156loPI   C5A 2491  17.812   6.425   7.626 -0.1295 -0.0278 -0.0290
  156loPI   C6A 2492  18.170   6.204   7.424  0.2230 -0.0450  0.0381
  156loPI   C1B 2493  17.640   5.310   8.789  0.1502 -0.0590 -0.3676
  156loPI   C2B 2494  17.591   5.362   8.244 -0.0174  0.1028  0.0993
  156loPI   C3B 2495  17.556   5.634   7.984  0.0468 -0.3704  0.1048
  156loPI   C4B 2496  17.325   5.765   7.691  0.0619 -0.3885  0.1477
  157loPI    C1 2497   2.580  12.596  11.355  0.1105  0.1041  0.0924
  157loPI    C2 2498   2.180  12.608  11.369  0.0956 -0.1599 -0.0450
  157loPI    C3 2499   2.383  12.378  11.626  0.1400 -0.2888 -0.1939
  157loPI   PO4 2500   2.638  12.731  11.100 -0.1747  0.1089  0.1432
  157loPI   GL1 2501   2.744  12.757  10.713 -0.0715 -0.0526  0.3876
  157loPI   GL2 2502   3.092  12.675  10.813 -0.1568 -0.3451  0.1715
  157loPI   C1A 2503   2.885  12.819  10.277  0.0007 -0.1190  0.0880
  157loPI   C2A 2504   2.919  12.784   9.848  0.0823  0.0302 -0.0592
  157loPI   C3A 2505   2.950  12.891   9.409 -0.1662  0.2164 -0.0063
  157loPI   C4A 2506   3.023  12.903   8.966 -0.0216 -0.0040 -0.0122
  157loPI   C5A 2507   3.010  12.882   8.432  0.1579 -0.3166 -0.0307
  157loPI   C6A 2508   3.031  13.018   8.032  0.1931 -0.0368 -0.1564
  157loPI   C1B 2509   3.387  12.734  10.566  0.2136 -0.1912 -0.1683
  157loPI   C2B 2510   3.423  12.800  10.098  0.0022 -0.2364 -0.0156
  157loPI   C3B 2511   3.379  12.785   9.661  0.2350 -0.1707  0.0318
  157loPI   C4B 2512   3.522  12.932   9.214 -0.4117  0.1557 -0.1419
  158loPI    C1 2513   3.788   7.268  10.829 -0.2754 -0.2624  0.1265
  158loPI    C2 2514   3.951   6.920  10.715 -0.2894 -0.2065 -0.0672
  158loPI    C3 2515   3.831   6.971  11.093 -0.1044 -0.3424  0.0106
  158loPI   PO4 2516   3.670   7.306  10.567 -0.0510 -0.0576  0.2277
  158loPI   GL1 2517   3.863   7.264  10.185  0.1428 -0.0684 -0.2177
  158loPI   GL2 2518   4.317   7.322  10.226  0.1095 -0.2456 -0.1429
  158loPI   C1A 2519   3.973   7.376   9.693  0.1642  0.2145 -0.2036
  158loPI   C2A 2520   4.045   7.502   9.158  0.1528 -0.0372 -0.0634
  158loPI   C3A 2521   4.161   7.438   8.773  0.0310 -0.2131  0.0640
  158loPI   C4A 2522   4.289   7.561   8.412 -0.1871 -0.0684 -0.1386
  158loPI   C5A 2523   4.232   7.376   7.966  0.2236 -0.2286  0.2417
  158loPI   C6A 2524   4.385   7.079   7.673 -0.2823  0.4960 -0.1483
  158loPI   C1B 2525   4.512   7.396   9.830  0.4079  0.1102  0.1144
  158loPI   C2B 2526   4.574   7.495   9.452 -0.4283 -0.1713  0.1895
  158loPI   C3B 2527   4.593   7.570   9.056 -0.0504  0.1578 -0.0633
  158loPI   C4B 2528   4.649   7.442   8.712  0.1516 -0.0037  0.3912
  159loPI    C1 2529  12.365   8.857  11.102  0.0658  0.0192  0.1267
  159loPI    C2 2530  11.968   8.847  11.150  0.0503 -0.2781 -0.0396
  159loPI    C3 2531  12.207   8.688  11.428  0.0541 -0.1205  0.0489
  159loPI   PO4 2532  12.385   8.778  10.853 -0.1002  0.0232  0.1260
  159loPI   GL1 2533  12.361   8.858  10.448  0.1507 -0.0845  0.1866
  159loPI   GL2 2534  12.650   8.781  10.343  0.1985  0.0817  0.2328
  159loPI   C1A 2535  12.245   8.836  10.019  0.1411 -0.0629 -0.0404
  159loPI   C2A 2536  12.222   8.934   9.572 -0.2340  0.0166 -0.0683
  159loPI   C3A 2537  12.209   8.911   9.160  0.2470  0.3540 -0.0211
  159loPI   C4A 2538  12.345   8.898   8.730 -0.1012  0.1154 -0.4258
  159loPI   C5A 2539  12.280   8.843   8.310  0.2585  0.1539  0.0141
  159loPI   C6A 2540  12.152   9.072   8.050  0.0511  0.4325  0.2535
  159loPI   C1B 2541  12.762   8.889   9.963  0.3928 -0.0747  0.0797
  159loPI   C2B 2542  12.782   8.905   9.564  0.3052  0.0600  0.2391
  159loPI   C3B 2543  12.785   8.879   9.182  0.0651  0.3217  0.3761
  159loPI   C4B 2544  12.819   8.830   8.691 -0.2444 -0.2015  0.0591
  160loPI    C1 2545   6.459  14.845  10.987 -0.2110 -0.0094  0.0280
  160loPI    C2 2546   6.191  14.698  11.245 -0.0759  0.0320  0.1933
  160loPI    C3 2547   6.575  14.732  11.353  0.0234 -0.1571 -0.0896
  160loPI   PO4 2548   6.365  15.046  10.891  0.1918 -0.0833 -0.3503
  160loPI   GL1 2549   6.333  15.204  10.589  0.0754  0.0960 -0.1315
  160loPI   GL2 2550   6.394  14.871  10.446 -0.1240 -0.2146  0.0755
  160loPI   C1A 2551   6.207  15.248  10.230 -0.2192 -0.3347 -0.1253
  160loPI   C2A 2552   6.187  15.299   9.833 -0.3687  0.0820  0.3993
  160loPI   C3A 2553   6.272  15.308   9.344 -0.2066  0.2117 -0.2552
  160loPI   C4A 2554   6.316  15.207   8.936  0.1039  0.1352 -0.1754
  160loPI   C5A 2555   6.302  15.066   8.515  0.0198 -0.0728  0.1143
  160loPI   C6A 2556   6.336  14.719   8.208  0.2028  0.1782  0.2741
  160loPI   C1B 2557   6.463  14.771  10.134 -0.1525  0.1885 -0.4370
  160loPI   C2B 2558   6.454  14.870   9.779 -0.1710 -0.3018  0.2097
  160loPI   C3B 2559   6.455  14.878   9.315  0.0712  0.0926 -0.2548
  160loPI   C4B 2560   6.544  14.793   8.895 -0.0649 -0.2366  0.0333
  161loPI    C1 2561  11.119   0.502  10.965  0.2120 -0.1831  0.2398
  161loPI    C2 2562  10.851   0.724  11.160  0.1833 -0.0278  0.0277
  161loPI    C3 2563  11.138   0.533  11.363 -0.0255 -0.1141  0.2468
  161loPI   PO4 2564  11.148   0.597  10.775  0.2847 -0.0836 -0.1810
  161loPI   GL1 2565  10.950   0.620  10.410  0.0221  0.1990  0.0522
  161loPI   GL2 2566  11.170   0.367  10.325 -0.0397  0.0398  0.1219
  161loPI   C1A 2567  10.888   0.700  10.048 -0.1083 -0.3722  0.1889
  161loPI   C2A 2568  10.804   0.777   9.574  0.0931  0.1942 -0.4637
  161loPI   C3A 2569  10.888   0.598   9.176  0.2507  0.1683 -0.1232
  161loPI   C4A 2570  10.951   0.552   8.750 -0.0898  0.0825 -0.0228
  161loPI   C5A 2571  10.714   0.503   8.516  0.4216 -0.3070  0.3551
  161loPI   C6A 2572  10.625   0.524   8.069 -0.1470  0.1014 -0.3035
  161loPI   C1B 2573  11.293   0.266   9.963  0.0637  0.1661  0.1133
  161loPI   C2B 2574  11.225   0.172   9.537  0.2049 -0.0727  0.2300
  161loPI   C3B 2575  11.192   0.197   9.113  0.1237 -0.2413  0.2209
  161loPI   C4B 2576  11.159   0.076   8.742  0.0444  0.0282 -0.0075
  162loPI    C1 2577  13.572  13.238  10.971 -0.1144 -0.0390 -0.0589
  162loPI    C2 2578  13.543  13.014  10.641 -0.2488 -0.0221 -0.0590
  162loPI    C3 2579  13.212  13.159  10.815 -0.1613  0.2115 -0.0831
  162loPI   PO4 2580  13.860  13.319  10.888 -0.1434 -0.0312  0.1979
  162loPI   GL1 2581  13.865  13.462  10.608  0.2022 -0.2724  0.2041
  162loPI   GL2 2582  13.592  13.470  10.462 -0.2790  0.3628 -0.0529
  162loPI   C1A 2583  14.104  13.606  10.259 -0.0790 -0.2873 -0.0699
  162loPI   C2A 2584  14.031  13.590   9.872  0.3757  0.2739  0.3201
  162loPI   C3A 2585  14.003  13.557   9.463 -0.4226 -0.0171 -0.0136
  162loPI   C4A 2586  13.876  13.604   9.122 -0.2393  0.0359 -0.0308
  162loPI   C5A 2587  14.005  13.389   8.875  0.0875 -0.1124 -0.2012
  162loPI   C6A 2588  13.677  13.231   8.490 -0.3091  0.1234  0.0025
  162loPI   C1B 2589  13.456  13.552  10.069  0.1459  0.0884 -0.0133
  162loPI   C2B 2590  13.444  13.520   9.623 -0.0726  0.0793  0.0606
  162loPI   C3B 2591  13.391  13.509   9.278  0.2016  0.0651 -0.0115
  162loPI   C4B 2592  13.460  13.444   8.899 -0.1801 -0.0113 -0.0233
  163loPI    C1 2593  10.838   4.299  11.377  0.2155  0.0381 -0.0594
  163loPI    C2 2594  10.757   4.648  11.199  0.0461 -0.0014 -0.0612
  163loPI    C3 2595  10.687   4.602  11.590  0.0957 -0.0241 -0.0549
  163loPI   PO4 2596  10.998   4.198  11.186  0.1145 -0.1370  0.2803
  163loPI   GL1 2597  11.059   3.928  10.810 -0.0323 -0.1096 -0.1226
  163loPI   GL2 2598  10.897   3.884  10.551  0.0985  0.0228  0.0798
  163loPI   C1A 2599  11.384   3.931  10.407  0.1137 -0.0820  0.1450
  163loPI   C2A 2600  11.417   3.895   9.938 -0.1093 -0.0199 -0.1815
  163loPI   C3A 2601  11.428   3.888   9.445  0.3603  0.1450 -0.0316
  163loPI   C4A 2602  11.285   3.892   8.999 -0.2091 -0.1786 -0.0677
  163loPI   C5A 2603  11.177   3.816   8.531 -0.0975  0.0261 -0.1886
  163loPI   C6A 2604  11.021   3.585   8.197  0.4823 -0.4326  0.3681
  163loPI   C1B 2605  10.906   3.927  10.086  0.0851 -0.0953  0.1884
  163loPI   C2B 2606  10.938   3.857   9.606  0.0728 -0.2624 -0.0606
  163loPI   C3B 2607  10.774   3.881   9.271  0.3441  0.0042 -0.0963
  163loPI   C4B 2608  10.717   3.832   8.784  0.4191  0.0391 -0.2228
  164loPI    C1 2609   3.139  10.755  11.056 -0.1812 -0.1385  0.0568
  164loPI    C2 2610   3.391  10.463  11.165  0.1563  0.1952  0.1909
  164loPI    C3 2611   3.032  10.493  11.339  0.1880 -0.0348  0.2994
  164loPI   PO4 2612   3.056  10.692  10.814 -0.0281 -0.0834  0.3604
  164loPI   GL1 2613   3.307  10.436  10.480 -0.1928 -0.2328 -0.0486
  164loPI   GL2 2614   3.495  10.313  10.653 -0.1721 -0.2339 -0.1155
  164loPI   C1A 2615   3.483  10.490   9.976  0.0344 -0.4067 -0.2526
  164loPI   C2A 2616   3.394  10.558   9.630  0.0783  0.1218  0.1240
  164loPI   C3A 2617   3.446  10.692   9.224  0.0050  0.0091  0.0417
  164loPI   C4A 2618   3.533  10.786   8.781  0.1808 -0.0245 -0.1581
  164loPI   C5A 2619   3.960  10.918   8.590  0.1818  0.0885  0.0813
  164loPI   C6A 2620   4.232  11.272   8.688  0.2137 -0.0693  0.2237
  164loPI   C1B 2621   3.666  10.085  10.219 -0.0480 -0.1328 -0.1042
  164loPI   C2B 2622   3.729  10.129   9.753  0.0069  0.1420 -0.2525
  164loPI   C3B 2623   3.758  10.200   9.258  0.1218  0.0445  0.1915
  164loPI   C4B 2624   3.901  10.218   8.736  0.1506 -0.0259 -0.0155
  165loPI    C1 2625  14.449  10.924  11.404  0.0889  0.1305 -0.0312
  165loPI    C2 2626  14.153  10.661  11.344  0.3319 -0.1446 -0.0506
  165loPI    C3 2627  14.131  10.922  11.647  0.1650 -0.3001  0.0735
  165loPI   PO4 2628  14.518  11.016  11.139  0.0070  0.3191  0.3752
  165loPI   GL1 2629  14.629  11.007  10.717 -0.2382 -0.0650 -0.0617
  165loPI   GL2 2630  14.480  11.329  10.624  0.3455 -0.2869  0.1882
  165loPI   C1A 2631  14.905  11.121  10.324 -0.0978  0.1182 -0.2282
  165loPI   C2A 2632  14.814  11.159   9.832  0.0830 -0.1143  0.2893
  165loPI   C3A 2633  14.830  11.192   9.468  0.4287  0.1263 -0.1923
  165loPI   C4A 2634  14.991  11.306   9.110 -0.0477 -0.3147  0.1705
  165loPI   C5A 2635  14.906  11.376   8.671 -0.0632  0.0788 -0.1162
  165loPI   C6A 2636  14.951  11.622   8.204  0.2650 -0.0633 -0.0189
  165loPI   C1B 2637  14.424  11.174  10.150 -0.1712  0.0371 -0.0379
  165loPI   C2B 2638  14.360  11.222   9.750  0.0532 -0.0193 -0.2758
  165loPI   C3B 2639  14.394  11.262   9.312 -0.1903 -0.3161 -0.1902
  165loPI   C4B 2640  14.476  11.190   8.869 -0.0426 -0.1348  0.0808
  166loPI    C1 2641   8.615  11.378  11.263  0.0851  0.1041  0.0290
  166loPI    C2 2642   8.779  11.129  11.529  0.2142  0.1810  0.0221
  166loPI    C3 2643   8.559  11.439  11.654 -0.1311 -0.0598  0.0257
  166loPI   PO4 2644   8.773  11.333  11.042 -0.1062  0.0875  0.0674
  166loPI   GL1 2645   8.800  11.337  10.661 -0.1349  0.0219  0.0935
  166loPI   GL2 2646   8.408  11.299  10.600 -0.0914 -0.1295  0.1563
  166loPI   C1A 2647   8.750  11.343  10.214 -0.0725 -0.0365 -0.1200
  166loPI   C2A 2648   8.833  11.436   9.725 -0.1763 -0.1145  0.1592
  166loPI   C3A 2649   8.953  11.376   9.300 -0.1517 -0.0650  0.1580
  166loPI   C4A 2650   9.144  11.599   8.952  0.1683 -0.1128  0.0107
  166loPI   C5A 2651   9.120  11.723   8.661 -0.0156 -0.0700  0.0467
  166loPI   C6A 2652   9.053  11.883   8.302  0.3176 -0.0396 -0.1754
  166loPI   C1B 2653   8.217  11.370  10.158 -0.2854  0.0221  0.0887
  166loPI   C2B 2654   8.336  11.310   9.757  0.2322  0.1563  0.1062
  166loPI   C3B 2655   8.440  11.384   9.333  0.0484 -0.0482  0.0189
  166loPI   C4B 2656   8.318  11.370   8.847  0.1309 -0.1987 -0.1573
  167loPI    C1 2657  11.970   3.129  11.243  0.2107 -0.0855  0.1127
  167loPI    C2 2658  12.110   3.407  11.494 -0.0142  0.0974  0.0386
  167loPI    C3 2659  11.895   3.100  11.634  0.2103 -0.0260  0.1171
  167loPI   PO4 2660  11.751   3.230  11.096 -0.3506 -0.2555  0.2636
  167loPI   GL1 2661  11.559   3.081  10.658  0.0722  0.1285 -0.0561
  167loPI   GL2 2662  11.710   2.825  10.481  0.1007  0.1292 -0.1230
  167loPI   C1A 2663  11.481   3.073  10.154 -0.0170 -0.0320  0.2084
  167loPI   C2A 2664  11.486   3.047   9.743  0.0354  0.4386  0.2393
  167loPI   C3A 2665  11.385   3.040   9.332 -0.4286 -0.2128 -0.2146
  167loPI   C4A 2666  11.452   2.931   8.928 -0.2293  0.0198 -0.2269
  167loPI   C5A 2667  11.645   3.227   8.562  0.1343 -0.3449  0.2357
  167loPI   C6A 2668  11.972   3.466   8.538  0.0132 -0.0379 -0.0904
  167loPI   C1B 2669  11.788   2.702  10.008  0.3868 -0.0474 -0.2850
  167loPI   C2B 2670  11.736   2.668   9.489 -0.0995 -0.2081 -0.2525
  167loPI   C3B 2671  11.724   2.522   9.045  0.2567 -0.1081  0.0260
  167loPI   C4B 2672  11.769   2.411   8.624  0.0238 -0.2522 -0.0215
  168loPI    C1 2673  12.630   2.437  10.898 -0.1305 -0.0326  0.0640
  168loPI    C2 2674  12.906   2.720  10.958 -0.0638 -0.0472 -0.1654
  168loPI    C3 2675  12.809   2.470  11.254  0.0096  0.0979 -0.0171
  168loPI   PO4 2676  12.456   2.515  10.756  0.1399  0.0934  0.1045
  168loPI   GL1 2677  12.170   2.567  10.462  0.1090 -0.1548  0.1170
  168loPI   GL2 2678  12.185   2.239  10.398  0.0235  0.0771  0.2486
  168loPI   C1A 2679  12.365   2.630  10.117 -0.0351 -0.0380  0.0193
  168loPI   C2A 2680  12.268   2.636   9.716  0.0666 -0.0467 -0.1496
  168loPI   C3A 2681  12.181   2.726   9.356  0.0747  0.1307  0.1033
  168loPI   C4A 2682  12.440   2.691   8.944  0.1351 -0.2068  0.0135
  168loPI   C5A 2683  12.641   2.392   8.664 -0.1590 -0.2140 -0.0225
  168loPI   C6A 2684  12.314   2.286   8.292 -0.4791  0.1613 -0.0480
  168loPI   C1B 2685  12.107   2.218   9.892 -0.0943 -0.0078 -0.0756
  168loPI   C2B 2686  12.055   2.169   9.492  0.1548  0.2241  0.2306
  168loPI   C3B 2687  12.030   2.070   9.046  0.0523 -0.0190  0.0191
  168loPI   C4B 2688  12.053   2.037   8.622 -0.3444 -0.4163 -0.0295
  169loPI    C1 2689   4.609  13.625  11.146 -0.3271 -0.1179 -0.0128
  169loPI    C2 2690   4.478  13.428  11.469  0.4730 -0.3198  0.2124
  169loPI    C3 2691   4.579  13.814  11.497 -0.2004 -0.1144 -0.0034
  169loPI   PO4 2692   4.687  13.392  11.011  0.2480 -0.0855 -0.2999
  169loPI   GL1 2693   4.794  13.460  10.628  0.2820  0.4828  0.1157
  169loPI   GL2 2694   4.983  13.285  10.491  0.3826 -0.4679  0.1522
  169loPI   C1A 2695   4.841  13.748  10.284 -0.0308  0.1061  0.1326
  169loPI   C2A 2696   4.937  13.800   9.903 -0.0575 -0.1265  0.1556
  169loPI   C3A 2697   4.973  13.807   9.499 -0.2866 -0.1580  0.1085
  169loPI   C4A 2698   5.064  13.881   9.044 -0.0089  0.0182  0.2395
  169loPI   C5A 2699   5.041  14.014   8.694  0.1324  0.0992 -0.0187
  169loPI   C6A 2700   4.853  14.294   8.541 -0.1167 -0.0815 -0.0068
  169loPI   C1B 2701   5.151  13.352  10.121  0.0292 -0.2970  0.0469
  169loPI   C2B 2702   5.230  13.446   9.737 -0.0786  0.0117 -0.2021
  169loPI   C3B 2703   5.309  13.445   9.245  0.0082  0.0497 -0.0247
  169loPI   C4B 2704   5.367  13.534   8.836  0.0742 -0.0212 -0.2250
  170loPI    C1 2705   8.468   2.399  10.866 -0.1462  0.1267  0.1351
  170loPI    C2 2706   8.606   2.657  10.594  0.0170  0.0342  0.1296
  170loPI    C3 2707   8.512   2.786  10.960 -0.2421  0.1666  0.0192
  170loPI   PO4 2708   8.328   2.252  10.741  0.2237  0.1259 -0.0961
  170loPI   GL1 2709   8.496   2.115  10.365 -0.1660  0.1382 -0.1382
  170loPI   GL2 2710   8.704   2.291  10.182  0.0361 -0.0727  0.1799
  170loPI   C1A 2711   8.381   1.898  10.115 -0.3071  0.1444  0.2517
  170loPI   C2A 2712   8.494   1.769   9.688 -0.0615  0.1572  0.1772
  170loPI   C3A 2713   8.379   1.863   9.292 -0.1286  0.0276  0.1274
  170loPI   C4A 2714   8.405   1.906   8.818  0.2250 -0.1545  0.0624
  170loPI   C5A 2715   8.530   1.842   8.429  0.0245 -0.0054  0.0560
  170loPI   C6A 2716   8.538   1.646   8.059 -0.0791 -0.1410 -0.0619
  170loPI   C1B 2717   8.627   2.260   9.799 -0.0638 -0.1239  0.0087
  170loPI   C2B 2718   8.593   2.348   9.406 -0.0963  0.0957 -0.2137
  170loPI   C3B 2719   8.732   2.376   8.997 -0.1249  0.1689 -0.5000
  170loPI   C4B 2720   8.709   2.303   8.567  0.1317 -0.2346  0.0658
  171loPI    C1 2721   1.100   2.323  10.350  0.0531 -0.0345 -0.2589
  171loPI    C2 2722   1.118   2.676  10.536  0.0457  0.0350 -0.3887
  171loPI    C3 2723   1.274   2.351  10.709 -0.1849  0.0483 -0.1476
  171loPI   PO4 2724   1.190   2.370  10.110 -0.0780 -0.0009 -0.1763
  171loPI   GL1 2725   1.445   2.167   9.887 -0.1877  0.0175 -0.1622
  171loPI   GL2 2726   1.558   1.827   9.938 -0.0010 -0.1370  0.1379
  171loPI   C1A 2727   1.510   2.194   9.495 -0.0549  0.3629  0.1248
  171loPI   C2A 2728   1.514   2.148   9.009  0.0519  0.0353 -0.0781
  171loPI   C3A 2729   1.551   2.234   8.555  0.0437  0.2052  0.2393
  171loPI   C4A 2730   1.668   2.156   8.233 -0.0206 -0.1153  0.0694
  171loPI   C5A 2731   1.913   1.977   7.946  0.0945  0.1128  0.0183
  171loPI   C6A 2732   1.986   1.802   7.515 -0.1820 -0.0057 -0.1516
  171loPI   C1B 2733   1.838   1.836   9.673  0.1935  0.1534  0.0994
  171loPI   C2B 2734   1.855   1.671   9.272  0.0768 -0.0444 -0.0549
  171loPI   C3B 2735   1.868   1.734   8.786 -0.2920  0.0782 -0.1935
  171loPI   C4B 2736   1.978   1.749   8.374 -0.2157  0.3847  0.0643
  172loPI    C1 2737  17.667  10.625  11.049 -0.2382 -0.1455  0.1397
  172loPI    C2 2738  18.030  10.693  11.202 -0.1451 -0.1691 -0.0675
  172loPI    C3 2739  17.759  10.488  11.413 -0.1545  0.1389  0.2272
  172loPI   PO4 2740  17.779  10.551  10.773  0.0017 -0.2451 -0.1429
  172loPI   GL1 2741  17.651  10.751  10.435  0.1179  0.0261  0.2003
  172loPI   GL2 2742  17.363  10.499  10.370  0.0280 -0.0396  0.0929
  172loPI   C1A 2743  17.807  11.004  10.073  0.2212  0.1377 -0.0124
  172loPI   C2A 2744  17.860  11.254   9.766  0.0542 -0.3613  0.2280
  172loPI   C3A 2745  17.883  11.082   9.395 -0.4307  0.0377 -0.0011
  172loPI   C4A 2746  17.841  11.193   9.032  0.0088 -0.2405 -0.4067
  172loPI   C5A 2747  17.943  11.149   8.638 -0.2062  0.3053 -0.1831
  172loPI   C6A 2748  17.976  11.127   8.325  0.0766  0.0533  0.2132
  172loPI   C1B 2749  17.577  10.564   9.986  0.2539 -0.2224 -0.1587
  172loPI   C2B 2750  17.687  10.625   9.532  0.1318 -0.1442 -0.1780
  172loPI   C3B 2751  17.636  10.684   9.185  0.3130 -0.2077  0.0810
  172loPI   C4B 2752  17.714  10.738   8.737 -0.0332 -0.2416 -0.1622
  173loPI    C1 2753  12.001  13.048  11.197 -0.1270 -0.2091  0.0566
  173loPI    C2 2754  12.169  13.085  11.558 -0.0196 -0.1066 -0.0036
  173loPI    C3 2755  11.798  12.940  11.525 -0.1135  0.0892  0.1661
  173loPI   PO4 2756  12.151  12.892  10.999  0.0914 -0.3569  0.1501
  173loPI   GL1 2757  12.112  12.812  10.515  0.1211 -0.0502  0.1501
  173loPI   GL2 2758  12.378  12.949  10.493 -0.1828 -0.0688  0.1385
  173loPI   C1A 2759  11.697  12.933  10.190 -0.3902 -0.0201 -0.1382
  173loPI   C2A 2760  11.668  12.979   9.721 -0.1620 -0.0421 -0.1036
  173loPI   C3A 2761  11.612  12.920   9.298 -0.1665  0.0444 -0.0309
  173loPI   C4A 2762  11.483  12.877   8.887 -0.1121 -0.0274  0.0625
  173loPI   C5A 2763  11.723  13.003   8.460 -0.3201 -0.3419  0.0927
  173loPI   C6A 2764  12.076  12.934   8.199  0.1323 -0.0880 -0.6264
  173loPI   C1B 2765  12.166  13.019   9.978  0.2066 -0.1465 -0.1625
  173loPI   C2B 2766  12.102  13.028   9.515  0.1912 -0.0476  0.0818
  173loPI   C3B 2767  12.195  13.134   9.045 -0.2013 -0.0512 -0.0434
  173loPI   C4B 2768  12.154  13.182   8.623 -0.3977 -0.3259  0.2053
  174loPI    C1 2769   4.231  14.243  11.369  0.0360 -0.1714  0.1171
  174loPI    C2 2770   4.078  14.493  11.641  0.1423  0.1337 -0.0978
  174loPI    C3 2771   4.465  14.517  11.543  0.1067  0.0214 -0.2703
  174loPI   PO4 2772   4.122  14.250  11.214  0.0043  0.1253  0.1310
  174loPI   GL1 2773   3.921  14.087  10.889 -0.1435 -0.2006 -0.2871
  174loPI   GL2 2774   3.896  13.821  10.752 -0.1180  0.0198 -0.0091
  174loPI   C1A 2775   4.099  14.167  10.446 -0.0851  0.2572 -0.3392
  174loPI   C2A 2776   4.128  14.187  10.004  0.0840  0.1092 -0.0416
  174loPI   C3A 2777   4.139  14.268   9.636  0.0595 -0.1872 -0.2108
  174loPI   C4A 2778   4.174  14.268   9.278 -0.0423 -0.1735 -0.1439
  174loPI   C5A 2779   4.213  14.103   8.836  0.4300 -0.0202  0.3920
  174loPI   C6A 2780   4.103  13.741   8.617  0.4050  0.3427  0.3320
  174loPI   C1B 2781   3.836  13.667  10.311 -0.0302 -0.0677  0.0722
  174loPI   C2B 2782   3.911  13.672   9.924 -0.4320  0.1233 -0.3380
  174loPI   C3B 2783   4.001  13.840   9.487  0.1155 -0.2917  0.1172
  174loPI   C4B 2784   3.872  13.846   9.072  0.1638  0.0606 -0.0275
  175loPI    C1 2785   6.279  17.461  11.218  0.0372  0.1215  0.0918
  175loPI    C2 2786   5.928  17.652  11.230  0.0854  0.2082  0.1359
  175loPI    C3 2787   6.104  17.536  11.570 -0.0625 -0.1358  0.0999
  175loPI   PO4 2788   6.433  17.576  10.982 -0.1154  0.0176 -0.2545
  175loPI   GL1 2789   6.378  17.639  10.611  0.1488 -0.4173  0.0852
  175loPI   GL2 2790   6.592  17.464  10.495 -0.1293  0.4285  0.4877
  175loPI   C1A 2791   6.228  17.576  10.148  0.0724 -0.1312 -0.0705
  175loPI   C2A 2792   6.272  17.558   9.743  0.0224 -0.0444  0.3040
  175loPI   C3A 2793   6.253  17.552   9.329  0.2138 -0.0193  0.1163
  175loPI   C4A 2794   6.294  17.608   8.844 -0.0205  0.0026 -0.1440
  175loPI   C5A 2795   6.138  17.448   8.469 -0.0251 -0.3645  0.0915
  175loPI   C6A 2796   5.881  17.288   8.212  0.2978 -0.1128  0.1215
  175loPI   C1B 2797   6.567  17.215  10.053 -0.1631 -0.1717  0.0967
  175loPI   C2B 2798   6.561  17.106   9.661 -0.1546 -0.1621  0.2708
  175loPI   C3B 2799   6.526  17.152   9.205  0.3282  0.0817 -0.0653
  175loPI   C4B 2800   6.507  17.147   8.789 -0.0944  0.0632  0.4626
  176loPI    C1 2801  16.814  11.572  11.011  0.0854 -0.0765 -0.1531
  176loPI    C2 2802  16.991  11.633  11.365  0.0178  0.0718 -0.1441
  176loPI    C3 2803  16.704  11.357  11.330  0.0515  0.0299 -0.0926
  176loPI   PO4 2804  16.797  11.753  10.889  0.1239 -0.1006  0.0095
  176loPI   GL1 2805  17.052  11.971  10.560  0.3293  0.1727  0.1423
  176loPI   GL2 2806  17.061  12.285  10.450  0.4514  0.0548 -0.0039
  176loPI   C1A 2807  17.245  11.878  10.139  0.0433  0.2954 -0.5076
  176loPI   C2A 2808  17.235  12.030   9.742 -0.2250  0.1404 -0.0497
  176loPI   C3A 2809  17.181  11.934   9.301 -0.0379 -0.4014  0.1271
  176loPI   C4A 2810  17.323  12.037   8.937 -0.3288 -0.0602  0.0559
  176loPI   C5A 2811  17.360  12.022   8.544  0.2293 -0.0053 -0.0973
  176loPI   C6A 2812  17.491  11.927   8.169 -0.0018 -0.1549  0.1466
  176loPI   C1B 2813  16.932  12.302  10.015  0.3679 -0.3818 -0.1129
  176loPI   C2B 2814  16.917  12.347   9.497 -0.2414  0.0317  0.3134
  176loPI   C3B 2815  16.985  12.420   9.116 -0.1000 -0.1756  0.0640
  176loPI   C4B 2816  17.107  12.500   8.631 -0.0241 -0.1814 -0.0391
  177loPI    C1 2817   9.745  15.501  10.948  0.0324  0.1157  0.0002
  177loPI    C2 2818   9.481  15.563  10.653  0.0919  0.2328 -0.0293
  177loPI    C3 2819   9.430  15.740  11.008 -0.0435 -0.0014  0.0702
  177loPI   PO4 2820   9.799  15.218  10.914 -0.2277 -0.1049  0.3474
  177loPI   GL1 2821   9.530  15.033  10.639  0.1319 -0.2361 -0.1813
  177loPI   GL2 2822   9.190  14.940  10.639  0.0343 -0.0761 -0.4375
  177loPI   C1A 2823   9.692  15.152  10.269 -0.0123 -0.2709 -0.0922
  177loPI   C2A 2824   9.689  15.041   9.918 -0.1166 -0.0862 -0.2050
  177loPI   C3A 2825   9.556  15.043   9.543  0.3140  0.0430 -0.0662
  177loPI   C4A 2826   9.634  15.171   9.105 -0.0561  0.0236  0.4214
  177loPI   C5A 2827   9.548  15.165   8.698  0.1106 -0.1864 -0.2621
  177loPI   C6A 2828   9.286  14.898   8.342 -0.0631 -0.0220  0.2004
  177loPI   C1B 2829   9.213  15.112  10.240 -0.0967  0.0927  0.4984
  177loPI   C2B 2830   9.124  15.102   9.797 -0.2272 -0.2123 -0.1608
  177loPI   C3B 2831   9.077  15.016   9.370  0.0779  0.1063 -0.3308
  177loPI   C4B 2832   9.160  15.190   8.954  0.4450 -0.0733  0.2102
  178loPI    C1 2833  16.695   5.097   9.696  0.0895 -0.1290 -0.2376
  178loPI    C2 2834  16.916   4.952   9.997  0.1479 -0.1904 -0.3094
  178loPI    C3 2835  16.529   4.853   9.966 -0.0394  0.3456  0.1274
  178loPI   PO4 2836  16.856   5.059   9.531  0.0962 -0.2436  0.1194
  178loPI   GL1 2837  16.725   4.875   9.149 -0.0248  0.1313  0.3137
  178loPI   GL2 2838  16.756   5.177   8.987 -0.0477  0.1161 -0.0290
  178loPI   C1A 2839  17.236   5.063   8.961  0.1108 -0.0024  0.1151
  178loPI   C2A 2840  17.175   4.990   8.483  0.0094 -0.3404  0.3531
  178loPI   C3A 2841  17.187   4.947   7.975 -0.2433 -0.1248 -0.1118
  178loPI   C4A 2842  17.414   5.171   7.702 -0.0565  0.5820  0.1088
  178loPI   C5A 2843  17.672   5.389   7.393 -0.0560 -0.0796 -0.1642
  178loPI   C6A 2844  17.825   5.812   7.444  0.1194  0.0100  0.2695
  178loPI   C1B 2845  16.631   5.240   8.536 -0.0289  0.0358 -0.3288
  178loPI   C2B 2846  16.557   5.295   8.047 -0.0793 -0.2828  0.0506
  178loPI   C3B 2847  16.249   5.075   7.702 -0.4516 -0.0620 -0.1081
  178loPI   C4B 2848  15.904   5.154   7.408  0.2410 -0.0375 -0.3667
  179loPI    C1 2849   8.916   0.106  10.620  0.1807 -0.0523 -0.1348
  179loPI    C2 2850   8.984  -0.057  10.979  0.0477  0.0620 -0.0563
  179loPI    C3 2851   8.834   0.313  10.953 -0.0734  0.0020 -0.2285
  179loPI   PO4 2852   9.087   0.068  10.489 -0.1120  0.3464  0.0443
  179loPI   GL1 2853   8.991   0.162  10.051 -0.3856 -0.0673 -0.0539
  179loPI   GL2 2854   8.626   0.129  10.126 -0.4277 -0.0576  0.1192
  179loPI   C1A 2855   9.055   0.092   9.651  0.1693 -0.1201 -0.1154
  179loPI   C2A 2856   9.093   0.049   9.237 -0.0559 -0.0925  0.3287
  179loPI   C3A 2857   9.006   0.117   8.940 -0.1449  0.3187 -0.0629
  179loPI   C4A 2858   9.010   0.089   8.547  0.0216  0.0392  0.0445
  179loPI   C5A 2859   9.249  -0.264   8.217  0.0065  0.1308 -0.0182
  179loPI   C6A 2860   9.464  -0.530   7.959 -0.3934  0.0776 -0.1643
  179loPI   C1B 2861   8.539   0.114   9.643  0.0830  0.1294  0.0715
  179loPI   C2B 2862   8.502   0.029   9.212 -0.1304  0.0278  0.0162
  179loPI   C3B 2863   8.488   0.019   8.778 -0.0792  0.2527  0.1287
  179loPI   C4B 2864   8.566   0.120   8.297 -0.0636  0.3629 -0.0620
  180loPI    C1 2865   6.853  11.831  11.426 -0.0777  0.0389 -0.1304
  180loPI    C2 2866   6.858  12.229  11.464  0.0671  0.0766 -0.5026
  180loPI    C3 2867   6.822  11.998  11.789 -0.2092  0.3939 -0.3003
  180loPI   PO4 2868   6.987  11.805  11.181  0.0655  0.0714 -0.0637
  180loPI   GL1 2869   6.916  11.866  10.762  0.0670  0.1296 -0.1517
  180loPI   GL2 2870   7.175  12.091  10.561 -0.1459 -0.3128  0.3590
  180loPI   C1A 2871   6.896  11.661  10.501 -0.0809  0.0764 -0.3533
  180loPI   C2A 2872   6.942  11.707  10.036 -0.1758  0.1147 -0.2895
  180loPI   C3A 2873   6.930  11.672   9.561  0.1934  0.4189  0.1549
  180loPI   C4A 2874   6.910  11.684   9.108 -0.1066 -0.3647  0.1077
  180loPI   C5A 2875   6.957  11.811   8.639 -0.0073 -0.1653 -0.2154
  180loPI   C6A 2876   7.123  11.543   8.332 -0.0277  0.1893 -0.2429
  180loPI   C1B 2877   7.265  12.145  10.121  0.3563 -0.0860  0.0089
  180loPI   C2B 2878   7.239  12.271   9.682  0.0198 -0.1069  0.0426
  180loPI   C3B 2879   7.179  12.166   9.163  0.4201 -0.1097 -0.0695
  180loPI   C4B 2880   7.225  12.255   8.753 -0.3032  0.1228 -0.3478
  181loPI    C1 2881  13.881   8.163  10.286 -0.0032 -0.1418 -0.0099
  181loPI    C2 2882  13.882   7.790  10.429  0.1001 -0.0444  0.2515
  181loPI    C3 2883  14.103   8.072  10.606  0.1733  0.0990 -0.0607
  181loPI   PO4 2884  13.878   8.163  10.064 -0.1105  0.2063 -0.1856
  181loPI   GL1 2885  13.628   8.482   9.731 -0.0001 -0.1380  0.1017
  181loPI   GL2 2886  13.420   8.187   9.787 -0.2168 -0.0028 -0.1011
  181loPI   C1A 2887  13.541   8.478   9.297  0.0591  0.1365 -0.0627
  181loPI   C2A 2888  13.571   8.424   8.770  0.0160  0.0537 -0.0925
  181loPI   C3A 2889  13.743   8.625   8.331 -0.0683  0.0854  0.1490
  181loPI   C4A 2890  13.640   8.859   7.953 -0.0591 -0.2591 -0.0902
  181loPI   C5A 2891  13.576   9.145   7.554  0.0872 -0.1044 -0.0327
  181loPI   C6A 2892  13.549   9.461   7.374  0.2173  0.0705  0.3707
  181loPI   C1B 2893  13.273   7.988   9.418 -0.2069  0.0564  0.0923
  181loPI   C2B 2894  13.300   7.975   8.931  0.0313 -0.1028  0.0982
  181loPI   C3B 2895  13.401   7.966   8.556  0.1502  0.0534 -0.2298
  181loPI   C4B 2896  13.637   8.163   8.367 -0.1477 -0.3159  0.1042
  182loPI    C1 2897   6.525   6.440  11.415 -0.1827  0.0443 -0.0693
  182loPI    C2 2898   6.842   6.210  11.333 -0.3037 -0.0819 -0.1894
  182loPI    C3 2899   6.735   6.277  11.713 -0.0831  0.0321 -0.1457
  182loPI   PO4 2900   6.437   6.477  11.030 -0.3847  0.1609 -0.0947
  182loPI   GL1 2901   6.433   6.383  10.570 -0.1137  0.1523  0.1356
  182loPI   GL2 2902   6.706   6.446  10.522  0.0366  0.1648  0.0302
  182loPI   C1A 2903   6.334   6.274  10.101  0.2016 -0.0614  0.0345
  182loPI   C2A 2904   6.410   6.263   9.745 -0.1115  0.1840  0.1920
  182loPI   C3A 2905   6.427   6.291   9.275 -0.2979 -0.1317  0.2128
  182loPI   C4A 2906   6.510   6.301   8.938 -0.1380  0.0232  0.1530
  182loPI   C5A 2907   6.421   6.419   8.559  0.1156  0.1971 -0.3080
  182loPI   C6A 2908   6.667   6.327   8.205  0.0348 -0.0849 -0.0736
  182loPI   C1B 2909   6.868   6.296  10.099 -0.1127  0.0147  0.0076
  182loPI   C2B 2910   6.856   6.284   9.619  0.0821  0.1202 -0.1947
  182loPI   C3B 2911   6.957   6.305   9.178  0.0092 -0.2065 -0.2053
  182loPI   C4B 2912   6.939   6.326   8.711 -0.0623 -0.1106 -0.0726
  183loPI    C1 2913   7.284   0.088  10.975  0.1465  0.2128 -0.0131
  183loPI    C2 2914   6.942   0.123  11.180  0.0130 -0.0708 -0.1814
  183loPI    C3 2915   7.240  -0.101  11.325  0.1574  0.2333 -0.0007
  183loPI   PO4 2916   7.129  -0.090  10.726  0.3658 -0.1502  0.1263
  183loPI   GL1 2917   6.941  -0.282  10.414  0.0950  0.0375  0.0516
  183loPI   GL2 2918   6.860   0.068  10.300  0.1481  0.0717 -0.3844
  183loPI   C1A 2919   6.862  -0.546  10.056  0.3516  0.0031  0.2727
  183loPI   C2A 2920   6.785  -0.587   9.546  0.1151  0.1084  0.4541
  183loPI   C3A 2921   6.749  -0.510   9.097 -0.2308  0.1135  0.0468
  183loPI   C4A 2922   6.824  -0.548   8.715 -0.0240 -0.2793  0.2532
  183loPI   C5A 2923   6.965  -0.921   8.483  0.1145 -0.1930 -0.0753
  183loPI   C6A 2924   7.001  -1.273   8.240 -0.1556  0.1710 -0.2503
  183loPI   C1B 2925   7.006  -0.115   9.878  0.1432 -0.1239  0.1094
  183loPI   C2B 2926   7.034  -0.137   9.368  0.1077  0.2936 -0.1683
  183loPI   C3B 2927   6.946  -0.072   8.946 -0.0579 -0.0122  0.1224
  183loPI   C4B 2928   7.098  -0.179   8.551 -0.0131 -0.1256 -0.5182
  184loPI    C1 2929  12.446  12.450  11.157 -0.0898  0.0475  0.0809
  184loPI    C2 2930  12.530  12.785  11.358 -0.1159  0.0748  0.0464
  184loPI    C3 2931  12.193  12.584  11.436 -0.0346 -0.0172  0.1624
  184loPI   PO4 2932  12.541  12.571  10.865  0.1260  0.0349 -0.1795
  184loPI   GL1 2933  12.488  12.414  10.426  0.0041 -0.0692  0.3717
  184loPI   GL2 2934  12.256  12.200  10.279 -0.0024  0.3399 -0.1236
  184loPI   C1A 2935  12.489  12.621  10.097  0.1686 -0.2479 -0.0749
  184loPI   C2A 2936  12.308  12.609   9.635 -0.2874 -0.1435  0.4425
  184loPI   C3A 2937  12.421  12.588   9.230  0.1756 -0.0086 -0.1852
  184loPI   C4A 2938  12.551  12.686   8.806 -0.1406  0.1326 -0.0471
  184loPI   C5A 2939  12.503  12.847   8.360  0.0427 -0.1996 -0.2570
  184loPI   C6A 2940  12.646  12.844   7.961  0.2645 -0.0105 -0.0434
  184loPI   C1B 2941  12.200  12.115   9.825 -0.1397 -0.3494 -0.1196
  184loPI   C2B 2942  12.186  12.138   9.330 -0.0850 -0.0360 -0.1213
  184loPI   C3B 2943  12.192  12.214   8.952  0.3109 -0.2545 -0.1401
  184loPI   C4B 2944  12.227  12.244   8.575 -0.1226 -0.2717 -0.3398
  185loPI    C1 2945   1.454  13.536  11.449 -0.0409 -0.0200  0.1750
  185loPI    C2 2946   1.800  13.492  11.644 -0.0245  0.2317  0.2059
  185loPI    C3 2947   1.505  13.708  11.806 -0.1807  0.0562  0.1592
  185loPI   PO4 2948   1.493  13.636  11.150  0.2737  0.2384  0.0195
  185loPI   GL1 2949   1.646  13.785  10.771 -0.0277 -0.0882 -0.0268
  185loPI   GL2 2950   1.593  14.067  10.589 -0.0607 -0.4574  0.0941
  185loPI   C1A 2951   1.762  13.628  10.393 -0.0995  0.1824  0.0424
  185loPI   C2A 2952   1.878  13.637   9.931 -0.0233 -0.1548 -0.2555
  185loPI   C3A 2953   1.835  13.667   9.546  0.1892 -0.3529  0.3270
  185loPI   C4A 2954   1.841  13.603   9.054 -0.2959  0.2717 -0.0760
  185loPI   C5A 2955   1.962  13.614   8.676 -0.0152  0.2992  0.1052
  185loPI   C6A 2956   2.223  13.533   8.327 -0.2179  0.2738  0.1640
  185loPI   C1B 2957   1.546  14.049  10.093 -0.0335  0.0124 -0.0854
  185loPI   C2B 2958   1.500  14.066   9.686  0.1197 -0.0597  0.1585
  185loPI   C3B 2959   1.555  13.985   9.196  0.0303  0.2548 -0.0149
  185loPI   C4B 2960   1.700  13.995   8.736  0.1917  0.1930 -0.0251
  186loPI    C1 2961  16.213  16.448  10.921  0.0491  0.0256  0.1676
  186loPI    C2 2962  16.585  16.552  11.024  0.1403 -0.0310 -0.0968
  186loPI    C3 2963  16.345  16.378  11.292  0.2714  0.0900  0.1023
  186loPI   PO4 2964  16.174  16.649  10.695  0.2257 -0.0944 -0.0038
  186loPI   GL1 2965  16.383  16.666  10.324 -0.0244  0.1700  0.0060
  186loPI   GL2 2966  16.745  16.628  10.386  0.0469  0.2000 -0.3359
  186loPI   C1A 2967  16.348  16.462  10.030 -0.0894 -0.0986 -0.0761
  186loPI   C2A 2968  16.332  16.319   9.634  0.1376 -0.2122  0.1911
  186loPI   C3A 2969  16.402  16.308   9.191  0.5572  0.0370  0.4390
  186loPI   C4A 2970  16.355  16.308   8.817 -0.0498 -0.1820 -0.0022
  186loPI   C5A 2971  16.406  16.240   8.305 -0.1354  0.2723  0.3048
  186loPI   C6A 2972  16.042  16.193   7.939 -0.3793 -0.1332  0.1845
  186loPI   C1B 2973  16.862  16.492   9.913  0.0293 -0.0742 -0.0898
  186loPI   C2B 2974  16.925  16.443   9.526 -0.0122 -0.1882  0.0968
  186loPI   C3B 2975  16.917  16.392   9.135  0.2428  0.1840 -0.1334
  186loPI   C4B 2976  16.903  16.367   8.672 -0.1071  0.2893  0.0977
  187loPI    C1 2977  10.244   4.624  11.038 -0.2583  0.2359  0.0595
  187loPI    C2 2978  10.212   4.564  11.432  0.1145 -0.0025  0.0586
  187loPI    C3 2979  10.353   4.912  11.293 -0.1335  0.1288  0.1278
  187loPI   PO4 2980  10.249   4.359  10.879 -0.3578 -0.0049 -0.1289
  187loPI   GL1 2981  10.237   4.330  10.481  0.0054 -0.1462 -0.0862
  187loPI   GL2 2982  10.500   4.238  10.340 -0.0418 -0.1979  0.2084
  187loPI   C1A 2983  10.081   4.195  10.095 -0.1233  0.2238  0.0783
  187loPI   C2A 2984  10.031   4.144   9.678 -0.1701  0.1292  0.2910
  187loPI   C3A 2985   9.968   4.225   9.277 -0.0540  0.2506 -0.4815
  187loPI   C4A 2986   9.975   4.294   8.892  0.3603  0.3348  0.0713
  187loPI   C5A 2987   9.992   4.293   8.394 -0.0026  0.2299  0.1804
  187loPI   C6A 2988  10.090   4.684   8.219  0.0111 -0.1896 -0.3069
  187loPI   C1B 2989  10.539   4.273   9.921 -0.3737  0.0695  0.0796
  187loPI   C2B 2990  10.506   4.302   9.485 -0.2020 -0.0243  0.0188
  187loPI   C3B 2991  10.535   4.345   9.108 -0.0429 -0.0201  0.0738
  187loPI   C4B 2992  10.472   4.405   8.672  0.1942  0.0554  0.1118
  188loPI    C1 2993  13.202   7.956  10.680  0.2799 -0.0340 -0.0896
  188loPI    C2 2994  13.066   7.605  10.815 -0.0704  0.0918 -0.1061
  188loPI    C3 2995  13.240   7.862  11.067  0.0143 -0.0133 -0.0566
  188loPI   PO4 2996  13.053   8.095  10.558  0.0828  0.3776  0.2704
  188loPI   GL1 2997  12.726   8.291  10.244  0.2125  0.2034 -0.1819
  188loPI   GL2 2998  12.884   8.014   9.959  0.1097 -0.0979 -0.1643
  188loPI   C1A 2999  12.535   8.454   9.833  0.1603  0.2773 -0.0948
  188loPI   C2A 3000  12.513   8.480   9.323  0.1439  0.0473 -0.1674
  188loPI   C3A 3001  12.474   8.478   8.935 -0.0100 -0.1202 -0.0170
  188loPI   C4A 3002  12.504   8.429   8.548  0.5067 -0.1246 -0.2518
  188loPI   C5A 3003  12.639   8.246   8.157 -0.1272  0.0407 -0.2522
  188loPI   C6A 3004  12.862   8.210   7.811 -0.2168 -0.3373 -0.0167
  188loPI   C1B 3005  12.791   8.007   9.553  0.0145 -0.3403 -0.2041
  188loPI   C2B 3006  12.736   8.007   9.262 -0.1566 -0.1247 -0.3332
  188loPI   C3B 3007  12.802   8.002   8.893  0.5572 -0.0762  0.0364
  188loPI   C4B 3008  12.907   7.958   8.569  0.2213 -0.1161 -0.0484
  189loPI    C1 3009   8.874  17.349  11.072 -0.0825  0.0999  0.0519
  189loPI    C2 3010   8.726  17.719  11.109  0.0075  0.1130  0.3012
  189loPI    C3 3011   8.583  17.423  11.337  0.1570  0.0629  0.3313
  189loPI   PO4 3012   8.768  17.348  10.749  0.0217 -0.1938  0.0831
  189loPI   GL1 3013   8.628  17.162  10.378 -0.0787  0.1084  0.1298
  189loPI   GL2 3014   8.316  17.325  10.482  0.1662  0.2522  0.0498
  189loPI   C1A 3015   8.594  17.367  10.012 -0.2047  0.0281  0.0989
  189loPI   C2A 3016   8.543  17.380   9.541 -0.1389  0.1405 -0.1804
  189loPI   C3A 3017   8.603  17.310   9.094  0.0336  0.0796 -0.0091
  189loPI   C4A 3018   8.667  17.356   8.546  0.3291  0.1543 -0.0107
  189loPI   C5A 3019   8.651  17.067   8.189  0.2674  0.1408  0.2774
  189loPI   C6A 3020   8.632  16.608   8.104 -0.2319 -0.0308 -0.2002
  189loPI   C1B 3021   8.128  17.295  10.129  0.0796  0.1375 -0.0987
  189loPI   C2B 3022   8.129  17.220   9.722 -0.0053  0.0486  0.3172
  189loPI   C3B 3023   8.159  17.202   9.301  0.2216  0.0698 -0.0956
  189loPI   C4B 3024   8.097  17.181   8.945 -0.2634 -0.1515 -0.3646
  190loPI    C1 3025   4.900   8.232  11.318  0.1697 -0.3162 -0.0654
  190loPI    C2 3026   5.018   8.554  11.523  0.0349 -0.1600 -0.2300
  190loPI    C3 3027   4.788   8.279  11.699 -0.0894 -0.0215 -0.1734
  190loPI   PO4 3028   4.756   8.301  11.090  0.1110  0.2258 -0.1004
  190loPI   GL1 3029   4.954   8.326  10.687  0.3039 -0.1806 -0.1273
  190loPI   GL2 3030   4.941   8.647  10.444 -0.1806  0.0991 -0.0554
  190loPI   C1A 3031   4.921   8.203  10.256 -0.2608 -0.0060  0.2345
  190loPI   C2A 3032   4.927   8.341   9.881  0.2269 -0.2919 -0.1466
  190loPI   C3A 3033   5.022   8.420   9.390 -0.0430  0.6825  0.1125
  190loPI   C4A 3034   4.998   8.460   8.946 -0.0734 -0.0400 -0.3523
  190loPI   C5A 3035   5.036   8.517   8.537  0.0270 -0.0310  0.1489
  190loPI   C6A 3036   4.894   8.823   8.245  0.2881  0.0551 -0.2032
  190loPI   C1B 3037   5.108   8.820  10.065  0.0803 -0.3008  0.0079
  190loPI   C2B 3038   5.122   8.830   9.607 -0.1459 -0.0044  0.0379
  190loPI   C3B 3039   5.183   8.872   9.137 -0.2822  0.1251  0.0947
  190loPI   C4B 3040   5.244   8.997   8.708  0.0400 -0.2668  0.0149
  191loPI    C1 3041  11.651   3.703  11.214  0.2233  0.1283 -0.0238
  191loPI    C2 3042  11.471   3.705  10.856  0.1004 -0.1085  0.0345
  191loPI    C3 3043  11.251   3.695  11.190  0.2178 -0.1353  0.1118
  191loPI   PO4 3044  11.841   3.947  11.231  0.5089 -0.0065  0.0218
  191loPI   GL1 3045  11.947   4.077  10.852 -0.0104 -0.2768  0.3500
  191loPI   GL2 3046  11.737   4.227  10.669  0.0848 -0.0445 -0.0192
  191loPI   C1A 3047  11.934   3.972  10.343  0.0458  0.1292  0.0731
  191loPI   C2A 3048  12.004   4.067   9.873  0.0546 -0.3156 -0.0302
  191loPI   C3A 3049  11.875   4.021   9.517 -0.1763  0.0308  0.3051
  191loPI   C4A 3050  11.799   3.989   9.101  0.2330  0.2489  0.0614
  191loPI   C5A 3051  11.697   3.899   8.593  0.1021  0.0311  0.2685
  191loPI   C6A 3052  11.395   4.237   8.353 -0.1837 -0.0969 -0.0821
  191loPI   C1B 3053  11.647   4.391  10.222 -0.0283 -0.1047  0.0388
  191loPI   C2B 3054  11.505   4.368   9.811  0.0321 -0.1538 -0.3864
  191loPI   C3B 3055  11.573   4.418   9.314  0.2356  0.0120 -0.0467
  191loPI   C4B 3056  11.534   4.312   8.844  0.1714  0.0917 -0.2535
  192loPI    C1 3057  11.876  16.964  10.835 -0.2152 -0.2515 -0.1206
  192loPI    C2 3058  11.942  17.061  11.217  0.0042 -0.1066 -0.1931
  192loPI    C3 3059  11.683  17.274  10.999  0.1348  0.0264 -0.2203
  192loPI   PO4 3060  12.061  16.964  10.729  0.1245 -0.1981 -0.0933
  192loPI   GL1 3061  12.237  16.974  10.388  0.0533 -0.0479  0.1785
  192loPI   GL2 3062  12.383  17.257  10.478 -0.2380  0.0548 -0.1166
  192loPI   C1A 3063  12.434  16.658  10.143  0.1160 -0.1347  0.0998
  192loPI   C2A 3064  12.416  16.764   9.709 -0.4722  0.1228 -0.1896
  192loPI   C3A 3065  12.381  16.638   9.168 -0.3199  0.2037  0.0086
  192loPI   C4A 3066  12.413  16.649   8.686  0.1647 -0.0165  0.2301
  192loPI   C5A 3067  12.506  16.728   8.161 -0.2180 -0.0540 -0.2425
  192loPI   C6A 3068  12.449  16.750   7.776  0.0084  0.0778  0.1936
  192loPI   C1B 3069  12.174  17.203   9.970  0.0382 -0.0466 -0.0262
  192loPI   C2B 3070  12.087  17.103   9.612  0.0046 -0.0075  0.0571
  192loPI   C3B 3071  12.143  17.165   9.222 -0.0356 -0.0223 -0.0613
  192loPI   C4B 3072  12.063  17.101   8.843 -0.1884 -0.0214 -0.1035
  193loPI    C1 3073   5.079  16.439  11.032 -0.0804  0.3108  0.0455
  193loPI    C2 3074   5.231  16.396  11.400 -0.1402  0.2295  0.0608
  193loPI    C3 3075   4.835  16.422  11.349 -0.1438  0.0455 -0.0150
  193loPI   PO4 3076   5.357  16.444  10.919 -0.0318 -0.0503 -0.1013
  193loPI   GL1 3077   5.409  16.379  10.460  0.2123 -0.0587  0.0849
  193loPI   GL2 3078   5.282  16.617  10.476 -0.0727  0.1871  0.0159
  193loPI   C1A 3079   5.480  16.227  10.000  0.2405  0.0406 -0.2155
  193loPI   C2A 3080   5.546  16.223   9.619 -0.0821  0.0439 -0.2173
  193loPI   C3A 3081   5.669  16.172   9.189 -0.0519 -0.0454 -0.1936
  193loPI   C4A 3082   5.673  15.994   8.865 -0.1588 -0.0566 -0.0747
  193loPI   C5A 3083   5.465  15.674   8.592 -0.0449  0.3671 -0.1954
  193loPI   C6A 3084   5.329  15.259   8.509  0.0506  0.0119  0.0097
  193loPI   C1B 3085   5.231  16.680  10.075 -0.1956  0.4039  0.2438
  193loPI   C2B 3086   5.295  16.622   9.753  0.1064 -0.1670  0.1021
  193loPI   C3B 3087   5.343  16.560   9.377  0.2311 -0.4423  0.0813
  193loPI   C4B 3088   5.285  16.566   9.030  0.2361  0.1077 -0.1382
  194loPI    C1 3089  17.121  12.466  10.952 -0.2741 -0.2103 -0.0602
  194loPI    C2 3090  17.136  12.471  11.351 -0.4309  0.0792 -0.0559
  194loPI    C3 3091  17.032  12.136  11.160 -0.1471 -0.1230  0.1359
  194loPI   PO4 3092  16.911  12.738  10.842 -0.0200  0.0571  0.0481
  194loPI   GL1 3093  16.763  12.805  10.427 -0.0035  0.0170  0.0877
  194loPI   GL2 3094  16.929  13.113  10.465 -0.1533  0.0249  0.1185
  194loPI   C1A 3095  16.631  12.682  10.054  0.2334 -0.2259 -0.2587
  194loPI   C2A 3096  16.641  12.684   9.687 -0.1134 -0.0417  0.2569
  194loPI   C3A 3097  16.607  12.743   9.246  0.0034  0.0102  0.2164
  194loPI   C4A 3098  16.718  12.820   8.763  0.1523 -0.1530  0.2021
  194loPI   C5A 3099  16.705  12.862   8.364  0.1519  0.1087  0.2289
  194loPI   C6A 3100  16.785  12.967   8.035  0.1140  0.1403  0.2440
  194loPI   C1B 3101  16.845  13.098   9.974 -0.1220  0.1522  0.0229
  194loPI   C2B 3102  16.872  13.147   9.511 -0.1631  0.0222  0.1465
  194loPI   C3B 3103  16.873  13.308   9.130  0.1342  0.1069  0.0329
  194loPI   C4B 3104  16.902  13.274   8.725 -0.1916 -0.3320 -0.1414
  195loPI    C1 3105   4.007   6.261  10.565 -0.1019  0.0939  0.1247
  195loPI    C2 3106   4.011   6.195  10.960 -0.0012  0.0873  0.1231
  195loPI    C3 3107   3.721   6.418  10.796 -0.1619 -0.0827  0.1718
  195loPI   PO4 3108   4.287   6.306  10.522  0.2239 -0.0233 -0.1999
  195loPI   GL1 3109   4.664   6.289  10.306  0.1733 -0.1211  0.0543
  195loPI   GL2 3110   4.646   6.028  10.177  0.2450  0.2582 -0.2214
  195loPI   C1A 3111   4.549   6.539   9.942 -0.0256 -0.1622  0.0460
  195loPI   C2A 3112   4.503   6.573   9.574  0.4607  0.0160 -0.1453
  195loPI   C3A 3113   4.606   6.536   9.169 -0.2982  0.0004 -0.2178
  195loPI   C4A 3114   4.744   6.561   8.792  0.0251  0.0603 -0.0736
  195loPI   C5A 3115   4.714   6.599   8.323 -0.2280  0.1990  0.0706
  195loPI   C6A 3116   4.733   6.785   8.017  0.1002 -0.0195 -0.0085
  195loPI   C1B 3117   4.827   6.130   9.780  0.0221 -0.1127 -0.2366
  195loPI   C2B 3118   4.830   6.119   9.364 -0.0213 -0.0113 -0.1435
  195loPI   C3B 3119   4.923   6.132   8.985 -0.0888  0.3489 -0.0558
  195loPI   C4B 3120   5.003   6.150   8.480 -0.0775  0.1416 -0.3252
  196loPI    C1 3121  12.984   9.929  10.915 -0.1108 -0.1969 -0.2348
  196loPI    C2 3122  13.138   9.600  10.747  0.0908 -0.2151 -0.0203
  196loPI    C3 3123  12.953   9.576  11.101 -0.1934 -0.1516 -0.1619
  196loPI   PO4 3124  12.903  10.044  10.662  0.3259 -0.1808 -0.3044
  196loPI   GL1 3125  12.526  10.206  10.551  0.3552  0.4224  0.0206
  196loPI   GL2 3126  12.471  10.657  10.460  0.1387  0.1099  0.0264
  196loPI   C1A 3127  12.571  10.224  10.192  0.0189 -0.1494  0.0877
  196loPI   C2A 3128  12.827  10.346   9.711  0.0229 -0.0918 -0.0471
  196loPI   C3A 3129  12.997  10.209   9.353 -0.0414 -0.0392  0.0731
  196loPI   C4A 3130  12.982  10.235   8.949  0.2403  0.0840 -0.3344
  196loPI   C5A 3131  12.810  10.262   8.560 -0.2036  0.4369 -0.2003
  196loPI   C6A 3132  12.654  10.132   8.076  0.2411 -0.0436 -0.3220
  196loPI   C1B 3133  12.454  10.694   9.956  0.0093  0.4447  0.0446
  196loPI   C2B 3134  12.636  10.794   9.571  0.4220  0.2896  0.1477
  196loPI   C3B 3135  12.618  10.702   9.235 -0.4310 -0.1151 -0.1608
  196loPI   C4B 3136  12.809  10.709   8.790 -0.0571 -0.2902 -0.0952
  197loPI    C1 3137   3.165   8.003  10.977  0.3746  0.1079 -0.0093
  197loPI    C2 3138   3.043   8.365  11.095  0.0457 -0.0054  0.0096
  197loPI    C3 3139   2.921   8.039  11.292  0.1269 -0.1440 -0.1673
  197loPI   PO4 3140   3.103   7.926  10.785 -0.2277  0.2321  0.1805
  197loPI   GL1 3141   3.246   7.938  10.468 -0.0657 -0.3838  0.1345
  197loPI   GL2 3142   3.467   7.713  10.328  0.1385  0.1053 -0.1056
  197loPI   C1A 3143   3.374   8.149  10.067  0.2689 -0.2987  0.3380
  197loPI   C2A 3144   3.375   8.171   9.611 -0.3229 -0.1291 -0.0643
  197loPI   C3A 3145   3.409   8.333   9.199 -0.2186 -0.0790 -0.1921
  197loPI   C4A 3146   3.429   8.443   8.817  0.3217  0.1078 -0.1219
  197loPI   C5A 3147   3.442   8.555   8.467 -0.0087  0.2144 -0.2150
  197loPI   C6A 3148   3.652   8.766   8.200  0.0684  0.1750  0.1726
  197loPI   C1B 3149   3.590   7.754   9.894 -0.2591  0.1879 -0.1779
  197loPI   C2B 3150   3.697   7.842   9.466  0.2568  0.0914 -0.2811
  197loPI   C3B 3151   3.729   8.019   9.033 -0.2604 -0.4855 -0.1153
  197loPI   C4B 3152   3.771   7.855   8.552  0.0357  0.0737  0.0905
  198loPI    C1 3153   0.761  16.066  10.857  0.1565  0.0825  0.2307
  198loPI    C2 3154   0.850  15.945  11.228 -0.0349 -0.1039  0.2183
  198loPI    C3 3155   0.495  15.854  11.068  0.0271  0.0182  0.0065
  198loPI   PO4 3156   0.795  16.272  10.855  0.1220 -0.3996 -0.0667
  198loPI   GL1 3157   0.769  16.494  10.421 -0.0509  0.0341 -0.0054
  198loPI   GL2 3158   1.094  16.192  10.489 -0.0021 -0.0445  0.4109
  198loPI   C1A 3159   0.680  16.711  10.169 -0.0600 -0.0062 -0.2241
  198loPI   C2A 3160   0.790  16.816   9.711  0.0162  0.2066 -0.1481
  198loPI   C3A 3161   0.748  16.787   9.291 -0.1464  0.0727  0.3067
  198loPI   C4A 3162   0.794  16.688   8.861  0.1189  0.1266 -0.0584
  198loPI   C5A 3163   0.855  16.563   8.428 -0.0901 -0.2023 -0.2856
  198loPI   C6A 3164   0.919  16.147   8.375 -0.0277  0.0858 -0.3704
  198loPI   C1B 3165   1.143  16.398  10.029  0.1783 -0.1997 -0.2310
  198loPI   C2B 3166   1.111  16.358   9.645  0.0954 -0.4359 -0.1254
  198loPI   C3B 3167   1.067  16.336   9.269 -0.1565 -0.0800 -0.3707
  198loPI   C4B 3168   1.119  16.265   8.840  0.0858 -0.2591  0.0089
  199loPI    C1 3169  12.620   5.326  10.759  0.0569  0.0099 -0.0865
  199loPI    C2 3170  12.599   5.342  11.158  0.0065  0.0315 -0.0900
  199loPI    C3 3171  12.859   5.574  10.961  0.0750 -0.0245 -0.0656
  199loPI   PO4 3172  12.427   5.381  10.663  0.0257 -0.1553  0.0056
  199loPI   GL1 3173  12.215   5.441  10.274 -0.0232  0.1570 -0.1814
  199loPI   GL2 3174  12.502   5.486  10.151  0.0739 -0.1056 -0.1460
  199loPI   C1A 3175  12.055   5.287   9.834  0.0411 -0.3341 -0.2065
  199loPI   C2A 3176  11.985   5.311   9.337  0.1532 -0.0479  0.1890
  199loPI   C3A 3177  11.980   5.292   8.883  0.1057  0.0788  0.0155
  199loPI   C4A 3178  11.932   5.199   8.449 -0.0592  0.1467  0.2771
  199loPI   C5A 3179  11.986   4.843   8.184 -0.1306  0.2168  0.2895
  199loPI   C6A 3180  12.179   4.595   8.049 -0.2837  0.1243 -0.1371
  199loPI   C1B 3181  12.473   5.408   9.716 -0.0996  0.1174  0.0356
  199loPI   C2B 3182  12.654   5.670   9.482 -0.0601 -0.0341 -0.0156
  199loPI   C3B 3183  13.006   5.569   9.259  0.2217  0.2023  0.1412
  199loPI   C4B 3184  13.113   5.373   8.862 -0.2130  0.2103 -0.1581
  200loPI    C1 3185  17.309  17.359  10.897 -0.1789 -0.0266 -0.2011
  200loPI    C2 3186  17.331  17.229  11.275 -0.0818 -0.1278 -0.2410
  200loPI    C3 3187  17.209  17.602  11.199 -0.1316 -0.1172 -0.1117
  200loPI   PO4 3188  17.308  17.156  10.728 -0.2971 -0.0078  0.1558
  200loPI   GL1 3189  17.344  16.787  10.369 -0.1648 -0.0199 -0.0598
  200loPI   GL2 3190  17.256  16.647  10.270 -0.0870  0.0465  0.2089
  200loPI   C1A 3191  17.580  17.001   9.989 -0.2470 -0.0279  0.1368
  200loPI   C2A 3192  17.548  17.067   9.609 -0.0120  0.4827  0.1366
  200loPI   C3A 3193  17.595  16.984   9.219 -0.1603 -0.3457 -0.2313
  200loPI   C4A 3194  17.651  16.897   8.786 -0.2594 -0.1497 -0.0128
  200loPI   C5A 3195  17.645  16.825   8.325 -0.1532  0.1016 -0.1379
  200loPI   C6A 3196  17.721  16.854   7.892  0.0520 -0.2257  0.0774
  200loPI   C1B 3197  17.360  16.510   9.916  0.0297 -0.1468  0.1094
  200loPI   C2B 3198  17.503  16.580   9.463 -0.0943 -0.0811  0.0670
  200loPI   C3B 3199  17.404  16.521   9.064 -0.3886 -0.4605 -0.0487
  200loPI   C4B 3200  17.469  16.466   8.628  0.1070  0.0773  0.2414
  201loPI    C1 3201   8.944  12.386  11.324  0.0429  0.1033  0.0109
  201loPI    C2 3202   9.130  12.392  11.678  0.0915  0.4141 -0.0172
  201loPI    C3 3203   8.891  12.695  11.572 -0.2125  0.1509 -0.1002
  201loPI   PO4 3204   9.072  12.267  11.128 -0.1511  0.1393 -0.0635
  201loPI   GL1 3205   9.046  12.314  10.783  0.1257  0.0492  0.3427
  201loPI   GL2 3206   9.281  12.412  10.712 -0.4091 -0.2683 -0.1522
  201loPI   C1A 3207   8.811  12.230  10.401 -0.0296  0.3486  0.0043
  201loPI   C2A 3208   8.762  12.226  10.024 -0.3336  0.0772  0.1092
  201loPI   C3A 3209   8.771  12.349   9.641 -0.1506  0.0426 -0.0146
  201loPI   C4A 3210   8.843  12.315   9.133  0.1873 -0.2269 -0.1694
  201loPI   C5A 3211   8.992  12.201   8.710 -0.0872  0.2279 -0.0503
  201loPI   C6A 3212   9.354  12.317   8.434  0.0336 -0.0149 -0.0475
  201loPI   C1B 3213   9.322  12.208  10.280  0.1424  0.3629 -0.1786
  201loPI   C2B 3214   9.245  12.331   9.874  0.0616 -0.2289  0.3284
  201loPI   C3B 3215   9.363  12.393   9.476  0.0671 -0.1133  0.0056
  201loPI   C4B 3216   9.381  12.241   9.118 -0.4090 -0.0330 -0.4375
  202loPI    C1 3217  16.334   0.130  10.682 -0.0010 -0.0367 -0.0864
  202loPI    C2 3218  16.376  -0.204  10.898  0.1331 -0.0307 -0.1020
  202loPI    C3 3219  16.624   0.104  10.957 -0.0295  0.0906 -0.0437
  202loPI   PO4 3220  16.320   0.076  10.461 -0.2342  0.0609  0.0239
  202loPI   GL1 3221  16.309  -0.047   9.990 -0.0528  0.1202  0.1010
  202loPI   GL2 3222  16.040   0.162   9.922  0.3257 -0.0255  0.0237
  202loPI   C1A 3223  16.383  -0.104   9.650  0.0099 -0.0299  0.3532
  202loPI   C2A 3224  16.473  -0.247   9.210  0.2906 -0.0645  0.0654
  202loPI   C3A 3225  16.581  -0.351   8.776  0.1595 -0.0059  0.0126
  202loPI   C4A 3226  16.441  -0.525   8.378  0.0484 -0.1926 -0.0026
  202loPI   C5A 3227  16.424  -0.681   7.969  0.2704 -0.1407 -0.0147
  202loPI   C6A 3228  16.166  -0.823   7.551 -0.0424  0.2268  0.0740
  202loPI   C1B 3229  15.886  -0.033   9.651  0.1188 -0.0116  0.2147
  202loPI   C2B 3230  16.024  -0.091   9.230  0.1650 -0.0671  0.2354
  202loPI   C3B 3231  16.100  -0.295   8.860  0.0267 -0.0045  0.0461
  202loPI   C4B 3232  15.971  -0.561   8.584 -0.0591  0.0261  0.1260
  203loPI    C1 3233   8.059   6.886  10.879 -0.4681  0.2322  0.0278
  203loPI    C2 3234   7.796   7.050  11.133 -0.5971 -0.1301  0.1351
  203loPI    C3 3235   7.896   6.665  11.170 -0.0513 -0.0016  0.0909
  203loPI   PO4 3236   8.224   7.082  10.744 -0.1291 -0.1906  0.0927
  203loPI   GL1 3237   8.511   7.181  10.381 -0.2632  0.1989  0.0531
  203loPI   GL2 3238   8.676   6.917  10.149  0.1439 -0.0105  0.0837
  203loPI   C1A 3239   8.390   7.282   9.980 -0.3667  0.2746 -0.1570
  203loPI   C2A 3240   8.488   7.326   9.535  0.0852  0.0028  0.0416
  203loPI   C3A 3241   8.437   7.354   9.019 -0.1887  0.1403 -0.0415
  203loPI   C4A 3242   8.445   7.439   8.578  0.3955  0.1462  0.1695
  203loPI   C5A 3243   8.393   7.221   8.207  0.0640  0.1522  0.0078
  203loPI   C6A 3244   8.233   7.187   7.723  0.1261  0.0083  0.2723
  203loPI   C1B 3245   8.720   6.847   9.748 -0.0099  0.3769 -0.2987
  203loPI   C2B 3246   8.673   6.836   9.329 -0.0729  0.0313 -0.0018
  203loPI   C3B 3247   8.647   6.906   8.888  0.2654  0.2834  0.2434
  203loPI   C4B 3248   8.512   6.820   8.473  0.0785 -0.0350  0.0404
  204loPI    C1 3249   5.779   0.378  11.036  0.0413 -0.1860 -0.1222
  204loPI    C2 3250   5.954   0.156  11.318 -0.0172 -0.1347 -0.0453
  204loPI    C3 3251   6.003   0.553  11.317  0.0420 -0.1421 -0.1501
  204loPI   PO4 3252   5.834   0.323  10.866 -0.0277 -0.1438 -0.1959
  204loPI   GL1 3253   5.514   0.353  10.587  0.0419  0.1361 -0.1322
  204loPI   GL2 3254   5.499   0.028  10.558 -0.0658 -0.2354 -0.0191
  204loPI   C1A 3255   5.526   0.475  10.183 -0.0696  0.0161 -0.1365
  204loPI   C2A 3256   5.729   0.282   9.722  0.1986  0.3648  0.2279
  204loPI   C3A 3257   5.701   0.196   9.267 -0.0548 -0.1030 -0.1205
  204loPI   C4A 3258   5.640   0.208   8.804 -0.0640  0.2218 -0.2084
  204loPI   C5A 3259   5.754   0.476   8.377 -0.1843  0.2430 -0.2398
  204loPI   C6A 3260   5.768   0.859   8.353 -0.0280 -0.2142 -0.2093
  204loPI   C1B 3261   5.581  -0.039  10.189 -0.0224 -0.1572  0.2768
  204loPI   C2B 3262   5.397  -0.064   9.811 -0.1276 -0.3839  0.2790
  204loPI   C3B 3263   5.448  -0.194   9.395  0.2767  0.1543 -0.2180
  204loPI   C4B 3264   5.505  -0.214   8.965  0.1766 -0.2655 -0.1622
  205loPI    C1 3265   2.064   9.369  11.182 -0.0503 -0.1031  0.0021
  205loPI    C2 3266   2.448   9.334  11.287 -0.0600 -0.0208  0.0663
  205loPI    C3 3267   2.168   9.384  11.568 -0.1185 -0.0853  0.0199
  205loPI   PO4 3268   2.069   9.497  10.987  0.0898 -0.0524 -0.2848
  205loPI   GL1 3269   1.965   9.726  10.607 -0.0578  0.1212 -0.1187
  205loPI   GL2 3270   2.241   9.555  10.526  0.0396 -0.1067  0.2518
  205loPI   C1A 3271   1.965   9.868  10.215  0.0640  0.2189  0.5658
  205loPI   C2A 3272   2.067  10.070   9.878 -0.3522 -0.1532  0.2880
  205loPI   C3A 3273   2.098  10.026   9.469 -0.0647 -0.0638  0.3051
  205loPI   C4A 3274   2.157  10.124   9.148 -0.1302  0.4854 -0.2034
  205loPI   C5A 3275   2.270  10.168   8.795 -0.0321 -0.0040 -0.0812
  205loPI   C6A 3276   2.010  10.211   8.488  0.0114  0.0362 -0.2032
  205loPI   C1B 3277   2.349   9.489  10.113 -0.1181 -0.0544 -0.1519
  205loPI   C2B 3278   2.319   9.664   9.739  0.1130  0.0178  0.1513
  205loPI   C3B 3279   2.481   9.561   9.325  0.3392 -0.0504 -0.1147
  205loPI   C4B 3280   2.458   9.711   8.916  0.1325 -0.0897  0.0740
  206loPI    C1 3281   6.045   5.785  11.113  0.1665 -0.0796 -0.2412
  206loPI    C2 3282   6.199   6.062  10.869  0.0840  0.1666 -0.0175
  206loPI    C3 3283   6.371   5.989  11.222  0.0261  0.0281 -0.0175
  206loPI   PO4 3284   6.022   5.538  10.915  0.1247  0.2184  0.1518
  206loPI   GL1 3285   6.235   5.465  10.533 -0.2727 -0.2643  0.1084
  206loPI   GL2 3286   6.185   5.760  10.478 -0.0126 -0.1348 -0.0102
  206loPI   C1A 3287   6.397   5.338  10.186  0.0020 -0.1452 -0.1168
  206loPI   C2A 3288   6.450   5.326   9.778  0.2361  0.1292  0.1738
  206loPI   C3A 3289   6.516   5.439   9.407  0.4011 -0.0427  0.3971
  206loPI   C4A 3290   6.458   5.488   8.951 -0.0400 -0.1028  0.0311
  206loPI   C5A 3291   6.465   5.353   8.527  0.1389 -0.3630 -0.0091
  206loPI   C6A 3292   6.264   5.263   8.121  0.0302  0.0215  0.0025
  206loPI   C1B 3293   6.110   5.700  10.007 -0.1550  0.0784 -0.2179
  206loPI   C2B 3294   6.145   5.778   9.569 -0.0156 -0.0938  0.2172
  206loPI   C3B 3295   6.223   5.866   9.123 -0.0260 -0.2023 -0.0036
  206loPI   C4B 3296   6.181   5.906   8.727  0.0177 -0.1430  0.0895
  207loPI    C1 3297  15.390   8.299   9.973 -0.0885 -0.0988  0.0812
  207loPI    C2 3298  15.731   8.492  10.055  0.0333 -0.1932 -0.1899
  207loPI    C3 3299  15.623   8.176  10.275  0.0436 -0.0731 -0.0093
  207loPI   PO4 3300  15.263   8.419   9.975  0.0015  0.3041  0.0920
  207loPI   GL1 3301  15.051   8.549   9.692 -0.1417  0.3701 -0.1620
  207loPI   GL2 3302  14.847   8.749   9.727 -0.3430 -0.1310  0.3271
  207loPI   C1A 3303  15.081   8.462   9.297  0.0153  0.0544 -0.5000
  207loPI   C2A 3304  15.142   8.457   8.826  0.1099 -0.4340  0.1861
  207loPI   C3A 3305  15.227   8.528   8.526  0.1408  0.2189  0.0252
  207loPI   C4A 3306  15.246   8.668   8.059 -0.1155  0.4380 -0.1924
  207loPI   C5A 3307  15.107   8.906   7.707 -0.0523  0.0892 -0.1810
  207loPI   C6A 3308  15.089   8.869   7.242  0.1446 -0.0822 -0.1477
  207loPI   C1B 3309  14.861   8.889   9.311  0.0398  0.0334  0.2505
  207loPI   C2B 3310  14.805   8.956   8.940  0.3853 -0.2060 -0.3798
  207loPI   C3B 3311  14.944   8.910   8.528 -0.1325 -0.1027  0.3635
  207loPI   C4B 3312  15.010   9.182   8.146  0.0403  0.1555  0.0966
  208loPI    C1 3313   6.099  10.873  10.943 -0.0713  0.2853  0.1767
  208loPI    C2 3314   6.134  11.001  11.321  0.0490  0.1304  0.2188
  208loPI    C3 3315   5.809  10.797  11.208 -0.0125  0.2249  0.2241
  208loPI   PO4 3316   6.191  11.147  10.806 -0.3264 -0.0316 -0.0520
  208loPI   GL1 3317   6.075  11.344  10.429 -0.3652 -0.0102  0.1798
  208loPI   GL2 3318   5.970  11.685  10.370  0.2443 -0.0097  0.0805
  208loPI   C1A 3319   6.260  11.202  10.046 -0.0026  0.2915 -0.1156
  208loPI   C2A 3320   6.265  11.219   9.599  0.0332 -0.2481 -0.0448
  208loPI   C3A 3321   6.212  11.195   9.170 -0.0527 -0.2943 -0.1545
  208loPI   C4A 3322   6.269  11.245   8.758  0.2017  0.1275  0.0245
  208loPI   C5A 3323   6.234  11.477   8.414 -0.4631  0.0217 -0.3100
  208loPI   C6A 3324   5.980  11.389   7.973 -0.0581  0.1481 -0.1592
  208loPI   C1B 3325   6.009  11.604   9.861  0.2527 -0.0104  0.1459
  208loPI   C2B 3326   5.959  11.615   9.392  0.0217 -0.1197 -0.0147
  208loPI   C3B 3327   5.940  11.625   8.940 -0.4617 -0.0906 -0.2024
  208loPI   C4B 3328   5.751  11.514   8.489  0.0443  0.1147  0.3121
  209loPI    C1 3329   0.629  14.711  11.235 -0.1561  0.1513 -0.1026
  209loPI    C2 3330   0.529  15.096  11.193 -0.2258  0.1632  0.1546
  209loPI    C3 3331   0.850  14.995  11.409 -0.1256  0.0833 -0.0298
  209loPI   PO4 3332   0.499  14.674  10.913 -0.2062  0.2150  0.0770
  209loPI   GL1 3333   0.794  14.747  10.511 -0.1712 -0.1886  0.2923
  209loPI   GL2 3334   0.654  14.433  10.476 -0.0002 -0.0324  0.1515
  209loPI   C1A 3335   0.883  14.892  10.203 -0.2727 -0.0836  0.1903
  209loPI   C2A 3336   0.951  14.868   9.745 -0.1701  0.1126  0.0818
  209loPI   C3A 3337   0.919  14.897   9.343 -0.1460 -0.0539 -0.1610
  209loPI   C4A 3338   0.932  14.826   8.875  0.0515 -0.2258 -0.0236
  209loPI   C5A 3339   0.995  14.750   8.352 -0.1007 -0.1165  0.0025
  209loPI   C6A 3340   1.023  14.723   7.839  0.2250 -0.4873  0.0687
  209loPI   C1B 3341   0.712  14.462   9.980 -0.1939 -0.2004 -0.3489
  209loPI   C2B 3342   0.785  14.385   9.569 -0.0393 -0.0472 -0.1284
  209loPI   C3B 3343   0.717  14.365   9.208 -0.3824  0.1295 -0.3398
  209loPI   C4B 3344   0.782  14.315   8.770  0.0762 -0.0892  0.2182
  210loPI    C1 3345   8.208   3.452  10.998  0.1462 -0.3280 -0.3355
  210loPI    C2 3346   8.105   3.468  11.384  0.2089  0.2653 -0.3342
  210loPI    C3 3347   8.248   3.128  11.229  0.2408  0.0362  0.1762
  210loPI   PO4 3348   8.030   3.546  10.885 -0.3750 -0.1020 -0.1435
  210loPI   GL1 3349   8.011   3.508  10.395  0.0175  0.0269 -0.1480
  210loPI   GL2 3350   7.736   3.705  10.459  0.0323 -0.1081 -0.0756
  210loPI   C1A 3351   8.053   3.239  10.064  0.1915  0.0333  0.2251
  210loPI   C2A 3352   8.418   3.214   9.664  0.4799  0.1658 -0.3425
  210loPI   C3A 3353   8.544   3.271   9.207  0.1934 -0.0038  0.0190
  210loPI   C4A 3354   8.607   3.317   8.738 -0.2612  0.0300  0.3067
  210loPI   C5A 3355   8.545   3.289   8.259 -0.0204 -0.0028  0.0019
  210loPI   C6A 3356   8.320   3.288   7.946  0.1929  0.0886 -0.1591
  210loPI   C1B 3357   7.704   3.616   9.981 -0.2045 -0.3355 -0.3170
  210loPI   C2B 3358   7.726   3.699   9.484 -0.1277 -0.2880  0.0956
  210loPI   C3B 3359   7.668   3.733   9.019  0.1659  0.0761 -0.3048
  210loPI   C4B 3360   7.723   3.637   8.651 -0.0387 -0.0015 -0.2432
  211loPI    C1 3361  17.819  11.137  11.255 -0.1308  0.0089  0.0246
  211loPI    C2 3362  17.492  11.136  11.485 -0.0582  0.2261  0.1315
  211loPI    C3 3363  17.841  11.263  11.634  0.0712  0.0166  0.0112
  211loPI   PO4 3364  17.586  11.184  10.946  0.1444 -0.0179  0.0888
  211loPI   GL1 3365  17.747  11.291  10.538  0.2980 -0.2915 -0.0408
  211loPI   GL2 3366  18.102  11.549  10.464  0.0513  0.3469  0.2205
  211loPI   C1A 3367  17.510  11.452  10.164  0.1666  0.0179  0.2740
  211loPI   C2A 3368  17.413  11.516   9.773 -0.0909  0.0203 -0.0121
  211loPI   C3A 3369  17.536  11.481   9.374 -0.1838 -0.0798  0.2835
  211loPI   C4A 3370  17.625  11.678   8.934 -0.1089 -0.3415 -0.0512
  211loPI   C5A 3371  17.816  11.631   8.521 -0.2861  0.1219  0.1883
  211loPI   C6A 3372  18.187  11.705   8.236  0.2778 -0.1508 -0.1687
  211loPI   C1B 3373  17.966  11.615  10.097 -0.0760 -0.0743 -0.2282
  211loPI   C2B 3374  18.101  11.714   9.743 -0.0224  0.0002  0.1127
  211loPI   C3B 3375  18.011  11.672   9.265 -0.2547  0.2513  0.0879
  211loPI   C4B 3376  18.147  11.669   8.940  0.0218  0.2726  0.3469
  212loPI    C1 3377   8.913  15.965  11.046  0.1501  0.2587  0.0631
  212loPI    C2 3378   9.016  15.667  11.291  0.1860  0.0831 -0.1620
  212loPI    C3 3379   8.825  15.987  11.435  0.3153  0.0387  0.1148
  212loPI   PO4 3380   8.923  15.843  10.801 -0.1805  0.0269  0.0907
  212loPI   GL1 3381   8.851  15.920  10.421  0.0377  0.2986 -0.2013
  212loPI   GL2 3382   9.048  15.608  10.382 -0.0954  0.3051  0.2126
  212loPI   C1A 3383   9.055  15.983  10.019 -0.0162 -0.0836  0.4138
  212loPI   C2A 3384   9.127  16.076   9.557 -0.3038 -0.0022 -0.2618
  212loPI   C3A 3385   8.984  16.036   9.011 -0.0819  0.0684  0.1681
  212loPI   C4A 3386   8.982  16.068   8.558  0.0297  0.1649 -0.2851
  212loPI   C5A 3387   8.789  16.082   8.071  0.0876  0.1009  0.0488
  212loPI   C6A 3388   9.062  15.923   7.725  0.4541  0.2110 -0.0219
  212loPI   C1B 3389   8.833  15.520  10.031 -0.3088 -0.1876  0.2814
  212loPI   C2B 3390   8.782  15.401   9.597  0.0148 -0.0375  0.2034
  212loPI   C3B 3391   8.798  15.525   9.130  0.1038  0.1175  0.0390
  212loPI   C4B 3392   8.752  15.471   8.728 -0.1375  0.2266  0.2924
  213loPI    C1 3393  12.324   4.562  10.958  0.0397  0.0240 -0.1305
  213loPI    C2 3394  12.212   4.936  11.047  0.2091  0.0600 -0.0650
  213loPI    C3 3395  12.587   4.817  11.119  0.0966 -0.1901  0.1221
  213loPI   PO4 3396  12.197   4.493  10.745 -0.0639  0.0872  0.0787
  213loPI   GL1 3397  12.171   4.511  10.300  0.1273 -0.2494 -0.2729
  213loPI   GL2 3398  11.880   4.754  10.383 -0.0551  0.0231 -0.1110
  213loPI   C1A 3399  12.255   4.479   9.901 -0.1943 -0.0241 -0.1334
  213loPI   C2A 3400  12.154   4.393   9.495  0.0114 -0.0246  0.1703
  213loPI   C3A 3401  12.037   4.468   9.100 -0.1121  0.1046  0.4347
  213loPI   C4A 3402  12.060   4.280   8.759 -0.2144  0.0109  0.1578
  213loPI   C5A 3403  12.345   4.243   8.397  0.2718 -0.5157  0.1250
  213loPI   C6A 3404  12.268   4.142   7.934  0.0744  0.0866 -0.0711
  213loPI   C1B 3405  11.801   4.877   9.893  0.0159  0.1468 -0.1114
  213loPI   C2B 3406  11.825   4.874   9.457  0.2498  0.0517  0.0599
  213loPI   C3B 3407  11.708   4.869   9.082  0.1971 -0.0947 -0.1974
  213loPI   C4B 3408  11.728   4.705   8.631  0.0170  0.2070 -0.0655
  214loPI    C1 3409  15.718   0.706  10.584  0.0021  0.3752 -0.0026
  214loPI    C2 3410  16.004   0.450  10.696 -0.2749  0.0675  0.0196
  214loPI    C3 3411  15.914   0.764  10.927 -0.0855  0.0606  0.1043
  214loPI   PO4 3412  15.725   0.826  10.350  0.0760  0.3216  0.0419
  214loPI   GL1 3413  15.513   0.828   9.864  0.1616  0.3589  0.1324
  214loPI   GL2 3414  15.368   1.062   9.712 -0.1798  0.3529  0.1945
  214loPI   C1A 3415  15.328   0.496   9.588  0.0439 -0.1435 -0.0322
  214loPI   C2A 3416  15.250   0.211   9.261  0.0600 -0.1557 -0.0477
  214loPI   C3A 3417  15.152   0.039   8.881  0.0108  0.1986  0.1202
  214loPI   C4A 3418  15.099  -0.118   8.484  0.0772  0.2040  0.1075
  214loPI   C5A 3419  15.133  -0.292   8.162 -0.1827 -0.0568 -0.0495
  214loPI   C6A 3420  15.393  -0.300   7.809 -0.0438  0.0149  0.1836
  214loPI   C1B 3421  15.329   0.960   9.350  0.1693  0.1545 -0.1830
  214loPI   C2B 3422  15.319   0.657   9.050  0.1842  0.2757 -0.0791
  214loPI   C3B 3423  15.390   0.404   8.618 -0.1788 -0.0027 -0.1441
  214loPI   C4B 3424  15.482   0.266   8.264 -0.1452  0.0300  0.1327
  215loPI    C1 3425   8.334   0.995  11.266  0.1910  0.0059 -0.2297
  215loPI    C2 3426   8.702   0.838  11.281  0.1604 -0.0513 -0.0647
  215loPI    C3 3427   8.468   0.831  11.605  0.0941  0.1804 -0.1059
  215loPI   PO4 3428   8.298   0.941  10.957 -0.0981 -0.0355  0.3693
  215loPI   GL1 3429   8.367   0.658  10.574 -0.1814  0.0860 -0.0199
  215loPI   GL2 3430   8.016   0.740  10.574 -0.3377 -0.0083  0.1034
  215loPI   C1A 3431   8.212   0.391  10.218 -0.2470 -0.2596  0.1362
  215loPI   C2A 3432   8.223   0.444   9.816 -0.1669  0.0923 -0.0943
  215loPI   C3A 3433   8.218   0.418   9.399  0.0373  0.2377 -0.0843
  215loPI   C4A 3434   8.266   0.423   9.021  0.0493 -0.2521  0.0649
  215loPI   C5A 3435   8.180   0.399   8.563  0.0051 -0.0730  0.3438
  215loPI   C6A 3436   8.200   0.394   8.084 -0.3425  0.2796  0.2814
  215loPI   C1B 3437   8.023   0.946  10.192  0.1674  0.1331  0.0053
  215loPI   C2B 3438   8.093   0.919   9.808 -0.1380 -0.1732 -0.0856
  215loPI   C3B 3439   7.968   0.943   9.342  0.1490 -0.0066 -0.1874
  215loPI   C4B 3440   7.945   0.873   8.907  0.1815 -0.0807  0.2687
  216loPI    C1 3441   3.108  14.461  11.324  0.1985  0.2234 -0.0289
  216loPI    C2 3442   3.304  14.209  11.564 -0.1025  0.1238  0.1178
  216loPI    C3 3443   3.201  14.571  11.697  0.0064  0.1875  0.0306
  216loPI   PO4 3444   3.011  14.408  11.119 -0.1669  0.0020  0.0159
  216loPI   GL1 3445   2.909  14.306  10.652  0.3112  0.0638  0.1619
  216loPI   GL2 3446   3.149  14.506  10.680  0.1512  0.2694  0.0533
  216loPI   C1A 3447   3.136  14.123  10.227  0.1215 -0.1157  0.2769
  216loPI   C2A 3448   3.198  14.146   9.760  0.0870 -0.1026  0.0024
  216loPI   C3A 3449   3.094  14.250   9.320 -0.1481 -0.1519 -0.2846
  216loPI   C4A 3450   3.140  14.143   8.796  0.0040 -0.0601 -0.0109
  216loPI   C5A 3451   3.115  14.043   8.405 -0.0424 -0.3929  0.2331
  216loPI   C6A 3452   3.135  14.022   8.003  0.2546  0.2508 -0.0255
  216loPI   C1B 3453   2.899  14.571  10.233 -0.2435 -0.4019  0.1094
  216loPI   C2B 3454   2.831  14.606   9.774 -0.4290  0.1504  0.1557
  216loPI   C3B 3455   2.940  14.667   9.293 -0.1073 -0.1924  0.2182
  216loPI   C4B 3456   2.901  14.649   8.912  0.1709 -0.1868 -0.1783
  217loPI    C1 3457   7.427   0.577  11.031 -0.0979  0.1037 -0.0970
  217loPI    C2 3458   7.038   0.656  11.089 -0.1016 -0.0320  0.0706
  217loPI    C3 3459   7.314   0.823  11.326 -0.0893 -0.2810  0.2365
  217loPI   PO4 3460   7.507   0.728  10.857  0.1850 -0.1577  0.0531
  217loPI   GL1 3461   7.462   0.858  10.469 -0.0380 -0.0369  0.0572
  217loPI   GL2 3462   7.154   0.826  10.485 -0.3426  0.0347 -0.1767
  217loPI   C1A 3463   7.491   0.881  10.017  0.0642  0.0569 -0.2503
  217loPI   C2A 3464   7.455   0.870   9.435  0.2811 -0.0842 -0.0861
  217loPI   C3A 3465   7.500   0.933   9.076  0.0759  0.2913 -0.2654
  217loPI   C4A 3466   7.434   0.806   8.623 -0.2478 -0.0660  0.2562
  217loPI   C5A 3467   7.444   0.949   8.243  0.2068  0.0787 -0.0166
  217loPI   C6A 3468   7.502   1.172   7.832  0.0800 -0.2008  0.1322
  217loPI   C1B 3469   6.942   0.778  10.087  0.0147  0.1759  0.1467
  217loPI   C2B 3470   6.901   0.901   9.673  0.1957  0.1142  0.2638
  217loPI   C3B 3471   6.981   0.847   9.255 -0.0511 -0.0267 -0.1045
  217loPI   C4B 3472   6.949   0.913   8.810  0.1891 -0.1282 -0.1176
  218loPI    C1 3473  17.778   9.619  10.902 -0.0428  0.0890 -0.0411
  218loPI    C2 3474  18.064   9.649  11.180 -0.1395  0.0632  0.0618
  218loPI    C3 3475  17.784   9.365  11.210 -0.1554  0.0656 -0.0577
  218loPI   PO4 3476  17.936   9.674  10.696  0.0512 -0.0198 -0.0507
  218loPI   GL1 3477  18.066   9.877  10.302  0.1938  0.1659 -0.1500
  218loPI   GL2 3478  17.853  10.030  10.123 -0.0245  0.1304  0.2519
  218loPI   C1A 3479  18.199   9.750   9.908  0.0274 -0.0595  0.0306
  218loPI   C2A 3480  18.257   9.863   9.548  0.2672 -0.0114  0.0291
  218loPI   C3A 3481  18.292   9.882   9.114  0.0130  0.2383  0.2369
  218loPI   C4A 3482  18.220   9.837   8.633  0.3479  0.0376  0.0001
  218loPI   C5A 3483  18.336  10.061   8.235  0.2601  0.1971  0.5397
  218loPI   C6A 3484  18.394  10.368   7.859 -0.1811 -0.1043  0.0456
  218loPI   C1B 3485  18.003  10.246   9.762  0.0626 -0.1683 -0.0392
  218loPI   C2B 3486  17.984  10.272   9.364 -0.3957  0.2555  0.0426
  218loPI   C3B 3487  17.992  10.291   8.998 -0.1282  0.5213 -0.1601
  218loPI   C4B 3488  17.888  10.179   8.574  0.0401 -0.0082 -0.0217
  219loPI    C1 3489   8.146  16.342  11.090  0.0855 -0.1425  0.1942
  219loPI    C2 3490   8.541  16.384  11.129  0.1084 -0.0766 -0.0827
  219loPI    C3 3491   8.294  16.591  11.365  0.2376 -0.0030 -0.0106
  219loPI   PO4 3492   8.082  16.387  10.796 -0.1000  0.1305  0.1493
  219loPI   GL1 3493   8.163  16.416  10.300 -0.3929 -0.1346 -0.1031
  219loPI   GL2 3494   8.392  16.569  10.446 -0.0073 -0.0235  0.0360
  219loPI   C1A 3495   8.080  16.411   9.867  0.2410  0.2291 -0.0476
  219loPI   C2A 3496   8.127  16.339   9.482 -0.0207 -0.1167 -0.1451
  219loPI   C3A 3497   8.139  16.349   9.035 -0.1376 -0.2001  0.0602
  219loPI   C4A 3498   8.166  16.242   8.540 -0.4313  0.2377 -0.0569
  219loPI   C5A 3499   8.318  15.883   8.321 -0.0781 -0.0838  0.0937
  219loPI   C6A 3500   8.724  15.602   8.219  0.3460 -0.1801 -0.0752
  219loPI   C1B 3501   8.372  16.799  10.003 -0.0836 -0.1577 -0.2261
  219loPI   C2B 3502   8.369  16.770   9.597 -0.2303 -0.1536 -0.1053
  219loPI   C3B 3503   8.379  16.738   9.207  0.1968 -0.1289 -0.1553
  219loPI   C4B 3504   8.439  16.865   8.772  0.2415 -0.3700 -0.1508
  220loPI    C1 3505  15.064  15.110  11.007  0.0810  0.1948 -0.2043
  220loPI    C2 3506  14.669  15.054  11.041  0.1057  0.2349  0.1915
  220loPI    C3 3507  14.857  15.309  11.285  0.3800  0.2093  0.0121
  220loPI   PO4 3508  15.018  15.213  10.736 -0.1781 -0.1697  0.0923
  220loPI   GL1 3509  15.143  15.115  10.340 -0.3012 -0.1819  0.2694
  220loPI   GL2 3510  15.315  15.422  10.229 -0.2155  0.2908  0.1462
  220loPI   C1A 3511  15.173  14.994   9.993 -0.5518 -0.0004  0.3072
  220loPI   C2A 3512  15.184  14.996   9.505 -0.1129  0.2632 -0.0461
  220loPI   C3A 3513  15.250  14.987   9.100 -0.0116 -0.1864  0.2881
  220loPI   C4A 3514  15.234  14.846   8.728  0.0782  0.0294  0.2988
  220loPI   C5A 3515  15.322  14.740   8.306 -0.1893  0.1811 -0.3586
  220loPI   C6A 3516  15.025  14.611   7.989  0.1589 -0.2344 -0.0100
  220loPI   C1B 3517  15.386  15.472   9.781 -0.1471  0.0321  0.0090
  220loPI   C2B 3518  15.382  15.527   9.286 -0.0459  0.4388 -0.0534
  220loPI   C3B 3519  15.408  15.457   8.904  0.0816  0.0331  0.0241
  220loPI   C4B 3520  15.525  15.156   8.471  0.3701 -0.0164  0.2129
  221loPI    C1 3521   2.524   7.235  10.680 -0.1389 -0.0193 -0.0120
  221loPI    C2 3522   2.453   6.852  10.774 -0.0241 -0.0812 -0.1730
  221loPI    C3 3523   2.176   7.131  10.848  0.0097 -0.1466  0.2239
  221loPI   PO4 3524   2.572   7.250  10.428  0.2590  0.0675 -0.0301
  221loPI   GL1 3525   2.553   7.058  10.014 -0.3122  0.1788  0.4536
  221loPI   GL2 3526   2.863   7.217   9.859 -0.2253 -0.0296 -0.1059
  221loPI   C1A 3527   2.596   6.975   9.533  0.2329  0.3285  0.3656
  221loPI   C2A 3528   2.615   7.043   9.088 -0.1025  0.1144 -0.0913
  221loPI   C3A 3529   2.809   7.047   8.624  0.2216  0.2891  0.2693
  221loPI   C4A 3530   2.835   7.193   8.273 -0.1946  0.0720  0.1888
  221loPI   C5A 3531   3.116   7.375   7.887 -0.0132 -0.2131  0.2141
  221loPI   C6A 3532   3.175   7.174   7.552 -0.3099  0.1688  0.0237
  221loPI   C1B 3533   3.014   7.302   9.430  0.1132 -0.2065  0.0255
  221loPI   C2B 3534   3.002   7.308   9.029 -0.0286 -0.0173  0.0815
  221loPI   C3B 3535   2.985   7.531   8.634 -0.0677 -0.1590 -0.1199
  221loPI   C4B 3536   3.080   7.653   8.286 -0.2022  0.1832 -0.0487
  222loPI    C1 3537   7.510  16.715  11.383 -0.1088 -0.2342  0.0384
  222loPI    C2 3538   7.808  16.452  11.422  0.0943 -0.0394 -0.1671
  222loPI    C3 3539   7.640  16.613  11.747  0.0510 -0.3275 -0.0437
  222loPI   PO4 3540   7.383  16.662  11.235  0.1303  0.0543  0.1219
  222loPI   GL1 3541   7.309  16.718  10.745  0.0920  0.2978  0.2537
  222loPI   GL2 3542   7.628  16.598  10.578  0.0379 -0.2256  0.5289
  222loPI   C1A 3543   7.291  16.829  10.343 -0.0749 -0.1802 -0.3000
  222loPI   C2A 3544   7.349  16.859   9.829  0.1740  0.1552 -0.0698
  222loPI   C3A 3545   7.346  16.745   9.403 -0.2136  0.4024 -0.1441
  222loPI   C4A 3546   7.302  16.735   9.042  0.2394 -0.1694  0.1721
  222loPI   C5A 3547   7.380  16.910   8.674 -0.1777 -0.0068 -0.0430
  222loPI   C6A 3548   7.561  16.846   8.209 -0.1436  0.0164 -0.1420
  222loPI   C1B 3549   7.539  16.439  10.121 -0.0877 -0.0045 -0.0676
  222loPI   C2B 3550   7.627  16.322   9.687  0.0567 -0.2275  0.0785
  222loPI   C3B 3551   7.616  16.356   9.245 -0.0665 -0.0851 -0.1963
  222loPI   C4B 3552   7.685  16.219   8.803  0.2903 -0.1214 -0.1912
  223loPI    C1 3553   4.400   1.778  11.134  0.0354  0.0030 -0.0163
  223loPI    C2 3554   4.017   1.894  11.152  0.0069 -0.1012  0.0603
  223loPI    C3 3555   4.310   2.167  11.157 -0.0610 -0.0298  0.1833
  223loPI   PO4 3556   4.377   1.551  10.941 -0.2994 -0.1634  0.0493
  223loPI   GL1 3557   4.476   1.503  10.488 -0.1574  0.1653  0.4034
  223loPI   GL2 3558   4.789   1.572  10.480  0.1800  0.0120  0.1781
  223loPI   C1A 3559   4.525   1.260  10.072 -0.1140  0.1469 -0.3424
  223loPI   C2A 3560   4.680   1.182   9.691  0.1073 -0.1510 -0.1841
  223loPI   C3A 3561   4.638   1.088   9.326 -0.2071  0.0948  0.3228
  223loPI   C4A 3562   4.562   0.972   8.958  0.1641 -0.1475  0.1206
  223loPI   C5A 3563   4.627   1.094   8.596 -0.2705  0.0591 -0.0340
  223loPI   C6A 3564   4.648   1.168   8.200  0.0128 -0.1575 -0.1076
  223loPI   C1B 3565   4.987   1.373  10.121 -0.2237 -0.0373  0.0733
  223loPI   C2B 3566   5.145   1.266   9.691  0.0338  0.0605  0.0375
  223loPI   C3B 3567   5.158   1.108   9.301 -0.1035  0.1921  0.1227
  223loPI   C4B 3568   5.048   1.037   8.894 -0.1354  0.0628 -0.0424
  224loPI    C1 3569  15.947   7.651  10.350  0.0855 -0.1115  0.1505
  224loPI    C2 3570  15.949   7.921  10.645 -0.0827 -0.0660  0.1115
  224loPI    C3 3571  15.871   7.537  10.725 -0.1858 -0.0438  0.1186
  224loPI   PO4 3572  15.861   7.729  10.155 -0.0429 -0.1324  0.0837
  224loPI   GL1 3573  15.828   7.991   9.746 -0.3272  0.0148 -0.3675
  224loPI   GL2 3574  16.063   7.910   9.498 -0.3769  0.0817  0.4729
  224loPI   C1A 3575  15.659   8.271   9.511  0.1171 -0.0335  0.4246
  224loPI   C2A 3576  15.574   8.328   9.141 -0.1867  0.0112 -0.0396
  224loPI   C3A 3577  15.653   8.310   8.707 -0.0290 -0.1250 -0.1598
  224loPI   C4A 3578  15.735   8.420   8.375  0.1364  0.1947 -0.1322
  224loPI   C5A 3579  15.616   8.372   7.890  0.1554  0.1684 -0.2631
  224loPI   C6A 3580  15.550   8.714   7.487  0.0595  0.1799 -0.1675
  224loPI   C1B 3581  16.001   7.887   9.027  0.1804  0.0606 -0.0625
  224loPI   C2B 3582  15.906   7.890   8.548  0.1348 -0.2035  0.0207
  224loPI   C3B 3583  15.953   7.962   8.050  0.0264 -0.4116 -0.1655
  224loPI   C4B 3584  16.052   7.795   7.708 -0.2421  0.0262 -0.2421
  225loPI    C1 3585  17.469   1.177  10.257 -0.0296  0.1404 -0.0072
  225loPI    C2 3586  17.202   1.414  10.438  0.1276  0.1643  0.1964
  225loPI    C3 3587  17.322   1.076  10.615 -0.1709 -0.1250 -0.1369
  225loPI   PO4 3588  17.491   1.303   9.983  0.0947 -0.2300  0.4342
  225loPI   GL1 3589  17.532   1.337   9.553 -0.0523  0.0044 -0.1111
  225loPI   GL2 3590  17.352   1.664   9.562 -0.1848  0.1133 -0.3690
  225loPI   C1A 3591  17.574   1.127   9.163 -0.3075  0.3706  0.1891
  225loPI   C2A 3592  17.687   0.952   8.804 -0.1502 -0.1449  0.0585
  225loPI   C3A 3593  17.747   1.016   8.385  0.0286  0.0909  0.0811
  225loPI   C4A 3594  17.528   1.138   8.008  0.0184  0.2619 -0.0168
  225loPI   C5A 3595  17.273   0.946   7.628  0.0540 -0.2091  0.2048
  225loPI   C6A 3596  17.040   0.609   7.458  0.0907 -0.2256 -0.0512
  225loPI   C1B 3597  17.184   1.501   9.180 -0.0717  0.1482 -0.0742
  225loPI   C2B 3598  17.173   1.179   8.894  0.3164 -0.1823 -0.0295
  225loPI   C3B 3599  17.259   1.040   8.599 -0.1807 -0.0602 -0.1200
  225loPI   C4B 3600  17.354   0.725   8.216 -0.1630 -0.0545  0.0509
  226loPI    C1 3601   6.331  15.505  11.134 -0.0081  0.0552 -0.1415
  226loPI    C2 3602   6.313  15.552  11.531 -0.1060  0.0989 -0.1511
  226loPI    C3 3603   6.336  15.185  11.374 -0.3095  0.0686 -0.1135
  226loPI   PO4 3604   6.569  15.604  11.003 -0.2009 -0.1600  0.0178
  226loPI   GL1 3605   6.771  15.498  10.656  0.2074 -0.3208  0.1119
  226loPI   GL2 3606   6.869  15.304  10.561  0.1074 -0.3688  0.0116
  226loPI   C1A 3607   6.531  15.694  10.318  0.0277  0.2235  0.0179
  226loPI   C2A 3608   6.508  15.674   9.927 -0.3786  0.0992 -0.2299
  226loPI   C3A 3609   6.415  15.794   9.491 -0.0060 -0.0327 -0.1484
  226loPI   C4A 3610   6.537  15.638   9.058 -0.0357 -0.1025 -0.3483
  226loPI   C5A 3611   6.416  15.710   8.611 -0.4000 -0.0176  0.0557
  226loPI   C6A 3612   6.211  15.537   8.217 -0.0713  0.0466  0.0615
  226loPI   C1B 3613   6.699  15.245  10.105 -0.0852  0.0941 -0.1883
  226loPI   C2B 3614   6.715  15.273   9.657  0.1785 -0.0346 -0.1145
  226loPI   C3B 3615   6.754  15.238   9.213 -0.1175 -0.1162 -0.3811
  226loPI   C4B 3616   6.803  15.209   8.759  0.1289  0.0344 -0.2062
  227loPI    C1 3617  11.593  10.871  11.168  0.0845 -0.1107 -0.1797
  227loPI    C2 3618  11.926  11.093  11.159 -0.0097  0.0507  0.1518
  227loPI    C3 3619  11.888  10.801  11.430 -0.1576  0.0656  0.1480
  227loPI   PO4 3620  11.634  10.823  10.859 -0.0879  0.3171 -0.0980
  227loPI   GL1 3621  11.731  10.954  10.498  0.1187  0.0153 -0.1432
  227loPI   GL2 3622  11.928  10.762  10.177  0.1620  0.2119  0.1856
  227loPI   C1A 3623  11.763  11.249  10.105  0.2830  0.2203 -0.2814
  227loPI   C2A 3624  11.734  11.200   9.646 -0.3171  0.0909  0.1151
  227loPI   C3A 3625  11.756  11.214   9.247  0.1308 -0.0911 -0.2878
  227loPI   C4A 3626  11.803  11.124   8.794 -0.0207  0.1159  0.0563
  227loPI   C5A 3627  11.989  10.975   8.369  0.2636 -0.0541 -0.1464
  227loPI   C6A 3628  11.747  10.606   8.228  0.1001 -0.3385 -0.4131
  227loPI   C1B 3629  12.025  10.778   9.700  0.1247  0.1564 -0.0528
  227loPI   C2B 3630  12.096  10.796   9.277 -0.0592  0.2034  0.1752
  227loPI   C3B 3631  12.149  10.735   8.764  0.1325  0.1030  0.1461
  227loPI   C4B 3632  12.429  10.813   8.470  0.3123 -0.0824 -0.1365
  228loPI    C1 3633   4.213   2.428  10.673  0.2158  0.1268  0.0754
  228loPI    C2 3634   4.063   2.682  10.943 -0.0854  0.1953 -0.1511
  228loPI    C3 3635   3.891   2.325  10.887  0.1874  0.0383 -0.0090
  228loPI   PO4 3636   4.470   2.376  10.670  0.1401 -0.0030  0.3212
  228loPI   GL1 3637   4.570   2.022  10.335  0.0553 -0.0907  0.5634
  228loPI   GL2 3638   4.266   2.124  10.169 -0.1172  0.0806 -0.1058
  228loPI   C1A 3639   4.654   1.774   9.993 -0.1065 -0.2809 -0.3830
  228loPI   C2A 3640   4.873   1.674   9.716  0.0962  0.2827 -0.2774
  228loPI   C3A 3641   4.825   1.517   9.277 -0.1400 -0.0640  0.1003
  228loPI   C4A 3642   4.815   1.520   8.898  0.1262  0.1884 -0.1978
  228loPI   C5A 3643   4.803   1.554   8.488 -0.0680 -0.1056  0.0570
  228loPI   C6A 3644   4.622   1.706   8.177  0.4010 -0.0431  0.0296
  228loPI   C1B 3645   4.299   2.092   9.856  0.1276 -0.0446  0.0074
  228loPI   C2B 3646   4.491   1.975   9.433 -0.0896 -0.0818 -0.1548
  228loPI   C3B 3647   4.599   1.962   9.016  0.0027 -0.0455 -0.1547
  228loPI   C4B 3648   4.524   2.002   8.737 -0.1357 -0.3641  0.0220
  229loPI    C1 3649   0.214  12.949  11.291  0.2010 -0.0162 -0.0490
  229loPI    C2 3650  -0.185  12.974  11.270  0.1886 -0.2547 -0.1325
  229loPI    C3 3651   0.022  13.243  11.482  0.0014 -0.0066 -0.2600
  229loPI   PO4 3652   0.340  12.942  11.032  0.0964 -0.0707  0.1406
  229loPI   GL1 3653   0.368  12.888  10.598  0.3314  0.0749  0.2057
  229loPI   GL2 3654   0.003  12.802  10.361  0.1597 -0.1027 -0.1144
  229loPI   C1A 3655   0.484  12.914  10.155  0.0632 -0.0273 -0.0986
  229loPI   C2A 3656   0.625  12.995   9.790  0.0416 -0.0066 -0.1054
  229loPI   C3A 3657   0.597  13.013   9.291  0.0667 -0.1304  0.4000
  229loPI   C4A 3658   0.690  12.993   8.907 -0.0411 -0.1741 -0.1185
  229loPI   C5A 3659   0.907  12.798   8.670  0.2148  0.0095 -0.4203
  229loPI   C6A 3660   1.036  12.468   8.501 -0.1332  0.1024 -0.0342
  229loPI   C1B 3661   0.064  12.898   9.931  0.0148  0.0616  0.0436
  229loPI   C2B 3662   0.070  12.992   9.498 -0.2680  0.1878 -0.3097
  229loPI   C3B 3663   0.110  12.972   9.051 -0.0965  0.2945  0.0827
  229loPI   C4B 3664   0.230  13.017   8.629 -0.2922 -0.1062 -0.1970
  230loPI    C1 3665  14.403  17.911  10.909  0.0517  0.0617 -0.1223
  230loPI    C2 3666  14.636  17.963  11.230  0.0898 -0.1782 -0.1092
  230loPI    C3 3667  14.286  17.772  11.266 -0.1701  0.2826 -0.1058
  230loPI   PO4 3668  14.375  18.120  10.761 -0.1091 -0.2696  0.1632
  230loPI   GL1 3669  14.429  18.070  10.235  0.2855  0.2599 -0.0819
  230loPI   GL2 3670  14.659  18.153  10.060  0.3422 -0.0665 -0.1290
  230loPI   C1A 3671  14.215  18.310   9.881  0.0735  0.1208  0.3078
  230loPI   C2A 3672  14.047  18.150   9.447 -0.2598  0.1898  0.1736
  230loPI   C3A 3673  14.104  18.158   9.029 -0.0923  0.1898  0.3089
  230loPI   C4A 3674  14.066  18.111   8.591 -0.1503  0.0819 -0.2129
  230loPI   C5A 3675  13.829  18.455   8.477 -0.1876 -0.1592  0.1362
  230loPI   C6A 3676  13.639  18.627   8.041  0.1463 -0.1333  0.1460
  230loPI   C1B 3677  14.600  17.840   9.671  0.3205  0.2423 -0.3922
  230loPI   C2B 3678  14.414  17.805   9.231  0.4125  0.3224 -0.0484
  230loPI   C3B 3679  14.387  17.701   8.859  0.1245  0.3049  0.3079
  230loPI   C4B 3680  14.356  17.612   8.422 -0.2283 -0.0299 -0.0946
  231loPI    C1 3681   4.496   7.839  11.174  0.2856  0.0658  0.2759
  231loPI    C2 3682   4.466   7.617  11.505 -0.0819 -0.1284  0.1172
  231loPI    C3 3683   4.433   8.015  11.528 -0.0615 -0.1373  0.3188
  231loPI   PO4 3684   4.696   7.717  10.967  0.1915 -0.3064  0.0657
  231loPI   GL1 3685   4.877   7.772  10.567  0.0473 -0.3326 -0.3782
  231loPI   GL2 3686   4.604   7.721  10.357 -0.3188  0.1903 -0.2959
  231loPI   C1A 3687   4.973   7.469  10.187  0.1006  0.0691  0.1517
  231loPI   C2A 3688   4.972   7.476   9.710 -0.5199 -0.0730 -0.2152
  231loPI   C3A 3689   5.049   7.568   9.320  0.0827  0.1187 -0.3634
  231loPI   C4A 3690   5.090   7.657   8.821  0.1098 -0.2517 -0.2545
  231loPI   C5A 3691   5.098   7.657   8.307 -0.1969  0.2505 -0.1149
  231loPI   C6A 3692   5.293   7.486   7.865 -0.1652 -0.1893 -0.1696
  231loPI   C1B 3693   4.702   7.870   9.925  0.1800 -0.2666 -0.2451
  231loPI   C2B 3694   4.775   7.981   9.509 -0.0436  0.2331 -0.1516
  231loPI   C3B 3695   4.779   8.005   9.067 -0.0917  0.1640 -0.1191
  231loPI   C4B 3696   4.746   8.036   8.648 -0.1378 -0.0334  0.1584
  232loPI    C1 3697  12.488   3.995  11.120  0.0017  0.1125 -0.1639
  232loPI    C2 3698  12.239   4.240  11.313  0.0875  0.1273 -0.0715
  232loPI    C3 3699  12.294   3.867  11.445  0.1312  0.1313 -0.0783
  232loPI   PO4 3700  12.455   4.048  10.907  0.0518 -0.3201  0.1959
  232loPI   GL1 3701  12.464   4.091  10.490 -0.0728 -0.1991  0.0557
  232loPI   GL2 3702  12.348   3.843  10.507 -0.0663 -0.0416 -0.2168
  232loPI   C1A 3703  12.506   4.065  10.019  0.3246  0.1905 -0.2778
  232loPI   C2A 3704  12.512   4.037   9.652  0.4005  0.1248  0.1620
  232loPI   C3A 3705  12.512   4.060   9.213  0.2422 -0.0869  0.1603
  232loPI   C4A 3706  12.536   4.032   8.786 -0.3763 -0.1679 -0.0632
  232loPI   C5A 3707  12.607   3.802   8.382  0.1874  0.1366 -0.1355
  232loPI   C6A 3708  12.729   3.908   7.937 -0.0496  0.0471 -0.3101
  232loPI   C1B 3709  12.297   3.642  10.251  0.0239  0.0213 -0.0195
  232loPI   C2B 3710  12.288   3.620   9.796 -0.0407 -0.2063 -0.0881
  232loPI   C3B 3711  12.194   3.652   9.384  0.0801  0.0582  0.0833
  232loPI   C4B 3712  12.159   3.712   8.962 -0.1207  0.0015  0.3654
  233loPI    C1 3713  15.690  13.640  11.125 -0.0686 -0.4981  0.2324
  233loPI    C2 3714  15.978  13.386  11.011  0.0201 -0.2889 -0.0208
  233loPI    C3 3715  16.018  13.595  11.350  0.3189 -0.0266 -0.2125
  233loPI   PO4 3716  15.528  13.735  10.848 -0.2245  0.1026  0.1140
  233loPI   GL1 3717  15.624  13.767  10.327 -0.1106  0.1060  0.1392
  233loPI   GL2 3718  15.766  13.424  10.477 -0.0810  0.2676 -0.3842
  233loPI   C1A 3719  15.503  13.750   9.783  0.0566  0.1385  0.1642
  233loPI   C2A 3720  15.548  13.554   9.362 -0.1063 -0.1083  0.2115
  233loPI   C3A 3721  15.553  13.583   8.946  0.0740 -0.1204  0.0903
  233loPI   C4A 3722  15.399  13.506   8.573 -0.1031 -0.1475  0.0975
  233loPI   C5A 3723  14.905  13.656   8.401  0.1104 -0.0860  0.1741
  233loPI   C6A 3724  14.528  13.549   8.373 -0.2898 -0.2224  0.3303
  233loPI   C1B 3725  15.849  13.161  10.132  0.1784  0.2136 -0.0699
  233loPI   C2B 3726  15.899  13.224   9.604 -0.1736 -0.0097  0.0602
  233loPI   C3B 3727  15.833  13.155   9.110 -0.1130 -0.0032 -0.2520
  233loPI   C4B 3728  15.891  13.304   8.654  0.1970  0.3066 -0.1685
  234loPI    C1 3729   1.246   1.153  10.705 -0.0335  0.1495  0.0029
  234loPI    C2 3730   1.146   0.832  10.922 -0.0653  0.1552 -0.0033
  234loPI    C3 3731   1.252   1.172  11.104 -0.0115  0.1349  0.0033
  234loPI   PO4 3732   1.127   1.300  10.466 -0.3092 -0.0228  0.1339
  234loPI   GL1 3733   0.958   1.210  10.109 -0.2182 -0.3140  0.1201
  234loPI   GL2 3734   1.350   1.185   9.989  0.1669  0.0378 -0.1124
  234loPI   C1A 3735   0.929   1.367   9.679  0.0625 -0.0160 -0.1728
  234loPI   C2A 3736   1.052   1.176   9.253  0.0884  0.0594 -0.1241
  234loPI   C3A 3737   1.170   1.214   8.902 -0.0229  0.0466 -0.1090
  234loPI   C4A 3738   1.219   1.236   8.531  0.0942  0.1110  0.1761
  234loPI   C5A 3739   1.429   1.147   8.071  0.0129  0.2290 -0.0955
  234loPI   C6A 3740   1.392   0.776   7.882  0.0450 -0.0053 -0.0915
  234loPI   C1B 3741   1.348   1.004   9.657  0.0067 -0.0063 -0.2056
  234loPI   C2B 3742   1.362   0.752   9.324  0.0227 -0.0958 -0.1214
  234loPI   C3B 3743   1.455   0.765   8.881 -0.3730 -0.2436 -0.0244
  234loPI   C4B 3744   1.518   0.794   8.493 -0.1756  0.0559  0.0531
  235loPI    C1 3745  16.685   6.524   9.907 -0.1124 -0.0646  0.1145
  235loPI    C2 3746  16.671   6.920   9.963  0.1509 -0.0355 -0.0091
  235loPI    C3 3747  16.623   6.672  10.273  0.0634  0.0942  0.0820
  235loPI   PO4 3748  16.760   6.497   9.726  0.3296 -0.0844  0.2663
  235loPI   GL1 3749  16.699   6.476   9.289 -0.2068 -0.1152 -0.0266
  235loPI   GL2 3750  16.482   6.221   9.176  0.1049  0.1211 -0.2386
  235loPI   C1A 3751  17.049   6.493   8.924  0.1620  0.1098  0.2409
  235loPI   C2A 3752  17.114   6.562   8.578 -0.1806  0.2421  0.0525
  235loPI   C3A 3753  17.359   6.475   8.216 -0.1686  0.1987 -0.0785
  235loPI   C4A 3754  17.168   6.252   7.856 -0.0902  0.1209 -0.0802
  235loPI   C5A 3755  16.898   6.541   7.584  0.2298 -0.2864  0.3505
  235loPI   C6A 3756  16.625   6.906   7.508 -0.0924 -0.0626  0.1138
  235loPI   C1B 3757  16.493   6.509   8.754  0.0654 -0.0456 -0.4220
  235loPI   C2B 3758  16.243   6.610   8.326 -0.3241  0.1099 -0.0869
  235loPI   C3B 3759  15.847   6.676   8.147  0.0713  0.2821 -0.1704
  235loPI   C4B 3760  15.775   6.759   7.766  0.3272 -0.3460 -0.0678
  236loPI    C1 3761  17.292  18.057  10.706 -0.0917  0.0165 -0.2234
  236loPI    C2 3762  17.477  18.409  10.662 -0.0114  0.0246  0.1451
  236loPI    C3 3763  17.235  18.273  10.374  0.0762  0.3080 -0.0672
  236loPI   PO4 3764  17.419  17.832  10.745 -0.2472 -0.2004  0.1132
  236loPI   GL1 3765  17.423  17.480  10.371  0.0501  0.0016 -0.2433
  236loPI   GL2 3766  17.216  17.786  10.273 -0.3173  0.1350 -0.1021
  236loPI   C1A 3767  17.281  17.469   9.866 -0.0997  0.2399  0.0389
  236loPI   C2A 3768  17.322  17.424   9.441 -0.0878  0.2845  0.2431
  236loPI   C3A 3769  17.285  17.413   9.006  0.2977  0.1221 -0.1261
  236loPI   C4A 3770  17.232  17.379   8.559 -0.0269 -0.0671  0.2759
  236loPI   C5A 3771  17.471  17.649   8.273 -0.1693  0.0349  0.0907
  236loPI   C6A 3772  17.785  17.813   8.024  0.0949  0.0090 -0.1552
  236loPI   C1B 3773  17.416  17.932   9.980  0.0940  0.0129  0.2096
  236loPI   C2B 3774  17.356  18.045   9.619 -0.0186 -0.0765  0.0062
  236loPI   C3B 3775  17.447  17.860   9.218  0.0697 -0.0184 -0.4612
  236loPI   C4B 3776  17.577  17.767   8.782  0.1712  0.2883 -0.2258
  237loPI    C1 3777  14.787  13.314  11.266 -0.1093  0.0218  0.0994
  237loPI    C2 3778  14.425  13.242  11.111 -0.0177 -0.1708 -0.0284
  237loPI    C3 3779  14.488  13.193  11.503 -0.2147  0.1851  0.0518
  237loPI   PO4 3780  14.963  13.207  11.096 -0.2481 -0.2025  0.1790
  237loPI   GL1 3781  15.063  12.777  10.739 -0.2167  0.1614 -0.1728
  237loPI   GL2 3782  15.125  12.626  10.563  0.0619 -0.1007 -0.3428
  237loPI   C1A 3783  15.326  13.083  10.518 -0.0139  0.0170 -0.0153
  237loPI   C2A 3784  15.315  13.325  10.037 -0.1999  0.0706 -0.1078
  237loPI   C3A 3785  15.282  13.232   9.643  0.1462  0.4113  0.2654
  237loPI   C4A 3786  15.288  13.102   9.276  0.0919  0.0104  0.1503
  237loPI   C5A 3787  15.447  13.062   8.788  0.1048  0.0578  0.3096
  237loPI   C6A 3788  15.415  13.096   8.317  0.2090 -0.3385 -0.0973
  237loPI   C1B 3789  15.015  12.554  10.253  0.0488 -0.0267 -0.2842
  237loPI   C2B 3790  15.121  12.526   9.846  0.0398 -0.2929 -0.0579
  237loPI   C3B 3791  15.126  12.637   9.473  0.0079 -0.0752 -0.2874
  237loPI   C4B 3792  15.058  12.696   9.002 -0.1249  0.0663  0.2444
  238loPI    C1 3793  13.465  16.411  11.004  0.0588 -0.1802 -0.3019
  238loPI    C2 3794  13.793  16.185  10.969  0.2107 -0.0118 -0.0087
  238loPI    C3 3795  13.565  16.157  11.296  0.0795  0.0646 -0.0924
  238loPI   PO4 3796  13.342  16.405  10.753  0.1297  0.2783 -0.1050
  238loPI   GL1 3797  13.195  16.168  10.412  0.2690  0.0642 -0.0865
  238loPI   GL2 3798  12.878  16.113  10.279 -0.2953  0.1161 -0.0495
  238loPI   C1A 3799  13.327  16.391   9.934 -0.0533 -0.1209  0.1123
  238loPI   C2A 3800  13.256  16.332   9.545 -0.0775  0.1596  0.0802
  238loPI   C3A 3801  13.146  16.323   9.085  0.0898  0.0232 -0.2428
  238loPI   C4A 3802  13.302  16.198   8.641 -0.2394 -0.2814  0.1877
  238loPI   C5A 3803  13.684  16.178   8.363  0.0555  0.0430 -0.5926
  238loPI   C6A 3804  13.847  15.847   8.212 -0.1718 -0.0205  0.1177
  238loPI   C1B 3805  12.777  16.324   9.945 -0.2708 -0.0683 -0.2752
  238loPI   C2B 3806  12.764  16.363   9.459  0.0727  0.1439  0.0360
  238loPI   C3B 3807  12.641  16.173   9.118 -0.0080  0.0650 -0.1375
  238loPI   C4B 3808  12.576  16.148   8.701  0.0361  0.3214 -0.0914
  239loPI    C1 3809  11.337  12.168  11.054  0.0374  0.1512 -0.2386
  239loPI    C2 3810  11.351  12.389  11.387 -0.2387  0.0419 -0.1521
  239loPI    C3 3811  11.022  12.180  11.299  0.0664 -0.4532 -0.1565
  239loPI   PO4 3812  11.473  12.306  10.843  0.0557 -0.3998 -0.1623
  239loPI   GL1 3813  11.366  12.456  10.397  0.2091  0.0574 -0.1683
  239loPI   GL2 3814  11.744  12.523  10.440  0.1646  0.5869  0.0011
  239loPI   C1A 3815  11.425  12.572   9.947  0.0131  0.0916  0.0870
  239loPI   C2A 3816  11.279  12.525   9.542 -0.0300 -0.0967  0.2072
  239loPI   C3A 3817  11.363  12.467   9.093  0.1899  0.1783 -0.3565
  239loPI   C4A 3818  11.638  12.410   8.706  0.2003 -0.0436 -0.0913
  239loPI   C5A 3819  11.838  12.497   8.271  0.0321  0.1431 -0.0168
  239loPI   C6A 3820  12.181  12.446   8.072 -0.2856  0.1602  0.1120
  239loPI   C1B 3821  11.945  12.524  10.026  0.2350  0.1719  0.1081
  239loPI   C2B 3822  11.837  12.551   9.584  0.4720  0.3475 -0.0471
  239loPI   C3B 3823  11.918  12.575   9.150  0.0414 -0.1757  0.2407
  239loPI   C4B 3824  12.053  12.704   8.704 -0.1563 -0.2317 -0.0025
  240loPI    C1 3825   1.110  14.399  11.269 -0.0881  0.0064  0.1082
  240loPI    C2 3826   0.870  14.308  10.962  0.0855 -0.4333  0.0952
  240loPI    C3 3827   0.739  14.265  11.338 -0.1099  0.0579  0.0918
  240loPI   PO4 3828   1.329  14.294  11.055 -0.4581  0.0893 -0.1029
  240loPI   GL1 3829   1.243  14.451  10.609 -0.1279  0.1759  0.0782
  240loPI   GL2 3830   1.306  14.843  10.565 -0.3826  0.2096 -0.1500
  240loPI   C1A 3831   1.198  14.412  10.300  0.6081 -0.1862 -0.0342
  240loPI   C2A 3832   1.280  14.453   9.929  0.0605 -0.2671  0.0525
  240loPI   C3A 3833   1.292  14.523   9.545 -0.1196 -0.3009 -0.0195
  240loPI   C4A 3834   1.218  14.493   9.086 -0.1886  0.0185  0.1824
  240loPI   C5A 3835   1.365  14.698   8.677  0.1077  0.0049 -0.2065
  240loPI   C6A 3836   1.301  15.148   8.451  0.0566  0.2854  0.0252
  240loPI   C1B 3837   1.418  14.906  10.150 -0.0325 -0.1297  0.0022
  240loPI   C2B 3838   1.491  14.892   9.790 -0.1254 -0.0231 -0.0103
  240loPI   C3B 3839   1.419  14.988   9.460 -0.3151  0.2815 -0.1580
  240loPI   C4B 3840   1.497  14.919   9.086  0.1703 -0.0687 -0.2102
  241loPI    C1 3841  13.678   5.612  10.418  0.0825 -0.0358  0.0613
  241loPI    C2 3842  13.968   5.629  10.144  0.0488 -0.1951  0.0145
  241loPI    C3 3843  14.061   5.593  10.531  0.0951 -0.0390  0.0185
  241loPI   PO4 3844  13.482   5.543  10.225 -0.2441 -0.0319  0.1233
  241loPI   GL1 3845  13.579   5.448   9.849  0.1976  0.2870 -0.0042
  241loPI   GL2 3846  13.572   5.716   9.741 -0.0233 -0.1515  0.0382
  241loPI   C1A 3847  13.330   5.230   9.612  0.2097  0.0599 -0.0631
  241loPI   C2A 3848  13.265   5.021   9.228 -0.1152  0.0850  0.1121
  241loPI   C3A 3849  13.051   4.595   9.132 -0.0524  0.0661  0.0139
  241loPI   C4A 3850  12.781   4.481   8.745  0.1955  0.0452 -0.1649
  241loPI   C5A 3851  12.830   4.234   8.407  0.4226  0.0955 -0.1551
  241loPI   C6A 3852  12.699   4.425   7.976  0.2248 -0.1909 -0.1807
  241loPI   C1B 3853  13.458   5.739   9.231  0.0051 -0.2184 -0.1480
  241loPI   C2B 3854  13.452   5.722   8.841  0.0913 -0.0676  0.2208
  241loPI   C3B 3855  13.284   5.558   8.432  0.3625  0.1536 -0.2432
  241loPI   C4B 3856  13.351   5.155   8.118 -0.1440 -0.0276 -0.0155
  242loPI    C1 3857  11.134   4.889  11.137 -0.2670 -0.0543 -0.0976
  242loPI    C2 3858  11.346   4.610  11.330  0.0649  0.0343 -0.3254
  242loPI    C3 3859  11.145   4.887  11.537 -0.0452 -0.2075 -0.1025
  242loPI   PO4 3860  11.121   4.697  10.855 -0.3604  0.0355 -0.0810
  242loPI   GL1 3861  11.244   4.392  10.586  0.0175 -0.2726 -0.1696
  242loPI   GL2 3862  11.391   4.716  10.450  0.0802 -0.0193 -0.1910
  242loPI   C1A 3863  11.092   4.337  10.205 -0.0847 -0.0486  0.3067
  242loPI   C2A 3864  11.015   4.297   9.702 -0.0154  0.0255  0.0033
  242loPI   C3A 3865  11.031   4.288   9.309  0.0584 -0.0178 -0.1040
  242loPI   C4A 3866  11.011   4.353   8.910  0.2216  0.1251 -0.1307
  242loPI   C5A 3867  10.938   4.251   8.515 -0.1935 -0.0496 -0.0310
  242loPI   C6A 3868  10.669   4.069   8.311  0.0793 -0.1188 -0.1781
  242loPI   C1B 3869  11.331   4.776  10.063  0.0153  0.0974 -0.0016
  242loPI   C2B 3870  11.321   4.788   9.592  0.1545 -0.3364 -0.0605
  242loPI   C3B 3871  11.208   4.773   9.166 -0.3098 -0.3577 -0.1161
  242loPI   C4B 3872  11.230   4.711   8.677  0.3854  0.0822  0.3488
  243loPI    C1 3873  16.283  12.000  10.979 -0.0572 -0.1768  0.1393
  243loPI    C2 3874  16.125  12.348  11.095 -0.1893 -0.1857 -0.0108
  243loPI    C3 3875  16.072  12.021  11.318 -0.1096 -0.1211  0.1036
  243loPI   PO4 3876  16.217  11.954  10.722  0.1509  0.0717  0.2717
  243loPI   GL1 3877  16.072  11.813  10.397  0.0117  0.3644  0.1411
  243loPI   GL2 3878  15.859  11.807  10.368 -0.2025 -0.2471  0.3140
  243loPI   C1A 3879  16.195  11.727   9.966 -0.0099  0.0866 -0.0207
  243loPI   C2A 3880  16.186  11.876   9.532  0.1297  0.1221 -0.2748
  243loPI   C3A 3881  16.214  11.898   9.101  0.1988  0.1081  0.1406
  243loPI   C4A 3882  16.178  11.905   8.614 -0.1511 -0.1176 -0.0108
  243loPI   C5A 3883  16.071  12.174   8.363  0.1850  0.4421 -0.1260
  243loPI   C6A 3884  15.608  12.354   8.264  0.0703  0.0242 -0.3709
  243loPI   C1B 3885  15.708  11.732   9.895 -0.3347 -0.2419  0.0981
  243loPI   C2B 3886  15.679  11.736   9.477  0.1643 -0.0847 -0.3766
  243loPI   C3B 3887  15.681  11.865   9.087 -0.0646 -0.1738 -0.0047
  243loPI   C4B 3888  15.643  11.888   8.638  0.1529  0.0762  0.1436
  244loPI    C1 3889   5.954   6.510  10.946 -0.1333  0.0044 -0.0569
  244loPI    C2 3890   5.838   6.202  11.173  0.0983 -0.0626 -0.0271
  244loPI    C3 3891   6.029   6.513  11.338  0.3000 -0.1282 -0.1335
  244loPI   PO4 3892   5.935   6.449  10.678 -0.0796 -0.0175 -0.1286
  244loPI   GL1 3893   5.609   6.261  10.465  0.1111 -0.1837  0.1489
  244loPI   GL2 3894   5.905   6.109  10.314 -0.5097  0.1508  0.1928
  244loPI   C1A 3895   5.512   6.575  10.130  0.1682  0.3181 -0.1833
  244loPI   C2A 3896   5.549   6.553   9.713  0.0647  0.0110 -0.0012
  244loPI   C3A 3897   5.657   6.651   9.217  0.0186 -0.3549 -0.1899
  244loPI   C4A 3898   5.719   6.723   8.740  0.2820 -0.0896 -0.0552
  244loPI   C5A 3899   5.641   6.709   8.376  0.1179  0.2208 -0.0314
  244loPI   C6A 3900   5.373   6.702   8.040 -0.0922 -0.0395 -0.0868
  244loPI   C1B 3901   5.789   6.162   9.831  0.3210  0.1781 -0.1287
  244loPI   C2B 3902   5.934   6.214   9.412 -0.1920 -0.1786 -0.2039
  244loPI   C3B 3903   5.985   6.299   8.935  0.0362  0.0307  0.0421
  244loPI   C4B 3904   5.970   6.264   8.356  0.2916 -0.1061  0.3812
  245loPI    C1 3905  12.244  10.859  10.889 -0.0481 -0.1281 -0.0127
  245loPI    C2 3906  12.187  10.490  11.031 -0.0766 -0.1207 -0.0047
  245loPI    C3 3907  12.557  10.616  10.943 -0.0713 -0.1652 -0.0461
  245loPI   PO4 3908  12.194  10.987  10.670  0.1566  0.2617 -0.0892
  245loPI   GL1 3909  12.380  11.173  10.241  0.0832  0.1502  0.2218
  245loPI   GL2 3910  12.649  11.257  10.035  0.3172 -0.1274 -0.1425
  245loPI   C1A 3911  12.160  11.229   9.830  0.2547  0.0831  0.2007
  245loPI   C2A 3912  12.339  11.187   9.457 -0.1123 -0.0980 -0.0424
  245loPI   C3A 3913  12.363  11.123   9.030  0.1781 -0.0150  0.3299
  245loPI   C4A 3914  12.281  11.248   8.591 -0.0741 -0.0813 -0.2326
  245loPI   C5A 3915  12.428  11.208   8.181  0.2622  0.0896  0.0030
  245loPI   C6A 3916  12.228  11.190   7.874 -0.1643  0.1318  0.2694
  245loPI   C1B 3917  12.740  11.289   9.732 -0.2421 -0.3328 -0.2185
  245loPI   C2B 3918  12.806  11.206   9.296  0.1106  0.2044  0.0398
  245loPI   C3B 3919  12.783  11.250   8.824 -0.0737  0.1871  0.3347
  245loPI   C4B 3920  12.944  11.101   8.349  0.0703  0.0352 -0.1947
  246loPI    C1 3921  13.433  15.856  10.862 -0.0841  0.0920 -0.0235
  246loPI    C2 3922  13.075  15.806  10.691 -0.0143  0.0546 -0.1601
  246loPI    C3 3923  13.106  16.002  11.038 -0.1510  0.1788 -0.2176
  246loPI   PO4 3924  13.553  15.860  10.615 -0.1210 -0.0171  0.3446
  246loPI   GL1 3925  13.651  16.051  10.233 -0.2506 -0.4648  0.0246
  246loPI   GL2 3926  13.682  16.408  10.405 -0.3017 -0.1378  0.1699
  246loPI   C1A 3927  13.541  15.907   9.809  0.1110  0.0410  0.1820
  246loPI   C2A 3928  13.548  15.879   9.412 -0.0754 -0.0330 -0.2172
  246loPI   C3A 3929  13.511  15.885   9.021 -0.0429  0.0446 -0.1976
  246loPI   C4A 3930  13.660  15.733   8.653  0.3135 -0.0112 -0.3851
  246loPI   C5A 3931  13.694  15.381   8.406  0.2643 -0.1072 -0.0213
  246loPI   C6A 3932  13.977  15.102   8.352  0.0083  0.2597  0.1318
  246loPI   C1B 3933  13.837  16.401   9.981  0.1489 -0.3693  0.2010
  246loPI   C2B 3934  13.765  16.358   9.622 -0.1680  0.2329  0.1429
  246loPI   C3B 3935  13.679  16.341   9.145 -0.0716 -0.3678  0.1024
  246loPI   C4B 3936  13.826  16.345   8.793 -0.0125  0.1636 -0.1935
  247loPI    C1 3937   0.602  13.870  10.983  0.3357 -0.3393  0.0793
  247loPI    C2 3938   0.221  13.748  10.974  0.2422 -0.0487 -0.0197
  247loPI    C3 3939   0.352  13.974  11.277  0.2744  0.0441 -0.1024
  247loPI   PO4 3940   0.656  13.873  10.667  0.0098 -0.2610  0.0756
  247loPI   GL1 3941   0.749  13.946  10.250 -0.0069 -0.0478 -0.2204
  247loPI   GL2 3942   1.062  13.972  10.305 -0.1991 -0.0033  0.0761
  247loPI   C1A 3943   0.552  13.962   9.760  0.2189 -0.2742 -0.0732
  247loPI   C2A 3944   0.516  13.960   9.359  0.2396 -0.1649  0.1581
  247loPI   C3A 3945   0.504  13.845   8.981 -0.0015  0.0414 -0.0064
  247loPI   C4A 3946   0.295  13.819   8.650  0.1755 -0.0368  0.2238
  247loPI   C5A 3947   0.032  13.921   8.323  0.1087 -0.1542 -0.1335
  247loPI   C6A 3948   0.008  13.905   7.894  0.1713 -0.0104  0.2081
  247loPI   C1B 3949   1.019  14.041   9.838  0.1212  0.0682 -0.0711
  247loPI   C2B 3950   1.117  14.075   9.374 -0.0182  0.0187 -0.2357
  247loPI   C3B 3951   1.161  13.973   8.893 -0.1316 -0.1894 -0.1987
  247loPI   C4B 3952   0.840  13.789   8.470  0.0727  0.1888 -0.2342
  248loPI    C1 3953  11.476   6.923  10.982  0.1720  0.1369 -0.1900
  248loPI    C2 3954  11.430   6.567  10.805  0.2938 -0.0178  0.0821
  248loPI    C3 3955  11.434   6.592  11.204 -0.1395  0.3456  0.0725
  248loPI   PO4 3956  11.511   7.064  10.779  0.2415  0.0171  0.2446
  248loPI   GL1 3957  11.831   7.110  10.566  0.3478  0.0787  0.0878
  248loPI   GL2 3958  11.701   6.818  10.368 -0.3657 -0.1759  0.0121
  248loPI   C1A 3959  11.839   7.343  10.206 -0.1110  0.2786 -0.2337
  248loPI   C2A 3960  11.694   7.489   9.858 -0.0377  0.5203  0.3825
  248loPI   C3A 3961  11.515   7.452   9.463 -0.0316  0.1198 -0.0795
  248loPI   C4A 3962  11.575   7.404   9.073 -0.2183 -0.3507 -0.1516
  248loPI   C5A 3963  11.634   7.524   8.731  0.1318 -0.3207 -0.1650
  248loPI   C6A 3964  11.422   7.827   8.506 -0.3153 -0.2845  0.2898
  248loPI   C1B 3965  11.657   6.592  10.032 -0.3458 -0.0271 -0.2631
  248loPI   C2B 3966  11.711   6.625   9.624 -0.0823 -0.1082 -0.1782
  248loPI   C3B 3967  11.576   6.610   9.274  0.2713  0.3266 -0.1843
  248loPI   C4B 3968  11.689   6.540   8.832 -0.0551  0.0965  0.1060
  249loPI    C1 3969   2.384  17.674  11.057 -0.1100 -0.1899 -0.1835
  249loPI    C2 3970   2.600  17.342  11.115 -0.0260 -0.1040  0.0050
  249loPI    C3 3971   2.348  17.469  11.398 -0.0202  0.0210 -0.0452
  249loPI   PO4 3972   2.242  17.622  10.915 -0.3719 -0.2516 -0.2354
  249loPI   GL1 3973   2.265  17.573  10.472 -0.2793  0.1337  0.1426
  249loPI   GL2 3974   2.503  17.817  10.526  0.3909  0.1015  0.0380
  249loPI   C1A 3975   2.311  17.695  10.013  0.1776  0.1589  0.1674
  249loPI   C2A 3976   2.370  17.740   9.530  0.0537 -0.1705  0.0483
  249loPI   C3A 3977   2.441  17.699   9.027  0.0492 -0.2869 -0.0228
  249loPI   C4A 3978   2.450  17.617   8.601  0.1099  0.2243 -0.0418
  249loPI   C5A 3979   2.865  17.450   8.470  0.1482  0.3264 -0.0286
  249loPI   C6A 3980   2.987  17.043   8.287  0.2565  0.1439 -0.0139
  249loPI   C1B 3981   2.764  17.802  10.230  0.0499  0.1136  0.0515
  249loPI   C2B 3982   2.790  17.766   9.775  0.3206 -0.0095 -0.0821
  249loPI   C3B 3983   2.887  17.705   9.346  0.3222 -0.0250 -0.1424
  249loPI   C4B 3984   2.935  17.737   8.908  0.1000  0.2008  0.0665
  250loPI    C1 3985   3.736  10.630  11.465  0.2607 -0.2647 -0.1903
  250loPI    C2 3986   3.776  10.235  11.510  0.0333 -0.2894 -0.1942
  250loPI    C3 3987   3.466  10.425  11.677  0.0939 -0.1259 -0.2662
  250loPI   PO4 3988   3.821  10.745  11.228 -0.0164 -0.0175  0.4663
  250loPI   GL1 3989   3.531  10.859  10.747  0.2692 -0.0901  0.0198
  250loPI   GL2 3990   3.853  10.693  10.681  0.1250 -0.3830  0.1906
  250loPI   C1A 3991   3.578  10.987  10.302 -0.0230  0.2387 -0.0143
  250loPI   C2A 3992   3.619  10.976   9.794  0.0092  0.0032 -0.0329
  250loPI   C3A 3993   3.647  11.135   9.353  0.2036 -0.0767 -0.1380
  250loPI   C4A 3994   3.713  11.239   8.930 -0.0630 -0.0619 -0.0158
  250loPI   C5A 3995   3.622  11.366   8.412 -0.2101 -0.1536  0.0654
  250loPI   C6A 3996   3.326  11.438   8.127 -0.1115 -0.0868  0.2677
  250loPI   C1B 3997   3.933  10.502  10.375  0.2928 -0.0625  0.1813
  250loPI   C2B 3998   3.986  10.569   9.907 -0.3097 -0.2449  0.5303
  250loPI   C3B 3999   3.874  10.634   9.582  0.2954  0.1663 -0.1370
  250loPI   C4B 4000   3.907  10.655   9.122  0.1546 -0.1920  0.0908
  251loPI    C1 4001   9.712   5.555  11.070 -0.0858 -0.1114  0.0374
  251loPI    C2 4002   9.654   5.573  11.466  0.3823  0.1117  0.1029
  251loPI    C3 4003   9.748   5.905  11.262 -0.1901  0.0649 -0.2579
  251loPI   PO4 4004   9.626   5.345  10.991 -0.2294 -0.1583 -0.1346
  251loPI   GL1 4005   9.663   5.219  10.561  0.2430 -0.2987  0.0387
  251loPI   GL2 4006   9.453   5.112  10.385 -0.0951 -0.0284 -0.0383
  251loPI   C1A 4007   9.872   5.021  10.168 -0.0212 -0.3193 -0.1182
  251loPI   C2A 4008   9.938   5.068   9.840  0.1761 -0.0397  0.2292
  251loPI   C3A 4009  10.015   5.139   9.446 -0.0315  0.1153 -0.2726
  251loPI   C4A 4010   9.850   5.150   8.990  0.1264  0.2676 -0.0446
  251loPI   C5A 4011   9.904   5.181   8.556  0.4643  0.3346  0.1627
  251loPI   C6A 4012   9.724   5.196   8.112 -0.0587 -0.0620  0.0459
  251loPI   C1B 4013   9.420   5.044   9.913 -0.0130  0.1652 -0.2702
  251loPI   C2B 4014   9.406   5.098   9.489  0.1442  0.0523  0.1799
  251loPI   C3B 4015   9.309   5.061   9.005 -0.1385  0.1674  0.2126
  251loPI   C4B 4016   9.318   5.095   8.549  0.2274  0.1990 -0.0067
  252loPI    C1 4017   3.616   2.974  10.721  0.0763 -0.0137  0.1236
  252loPI    C2 4018   3.234   2.958  10.837 -0.0093 -0.0791 -0.1588
  252loPI    C3 4019   3.378   3.291  10.669  0.0926 -0.0122  0.0569
  252loPI   PO4 4020   3.802   2.736  10.527  0.0829  0.1641  0.0290
  252loPI   GL1 4021   3.843   2.748  10.060  0.1112 -0.0205 -0.0398
  252loPI   GL2 4022   4.080   2.571  10.107  0.3007 -0.0541  0.3326
  252loPI   C1A 4023   3.867   2.850   9.597 -0.1539 -0.0414  0.0149
  252loPI   C2A 4024   3.931   2.931   9.205  0.0697 -0.2170  0.1017
  252loPI   C3A 4025   3.950   3.001   8.789  0.0857 -0.0544  0.1483
  252loPI   C4A 4026   4.049   2.881   8.429 -0.1653 -0.1155  0.0783
  252loPI   C5A 4027   4.060   2.579   8.236 -0.0701  0.0269  0.0961
  252loPI   C6A 4028   3.693   2.431   8.000 -0.1014  0.1361  0.1170
  252loPI   C1B 4029   4.105   2.457   9.615 -0.0284  0.0894 -0.0738
  252loPI   C2B 4030   4.252   2.505   9.168  0.0461 -0.1024  0.1483
  252loPI   C3B 4031   4.293   2.502   8.696 -0.1879 -0.1022 -0.4300
  252loPI   C4B 4032   4.451   2.411   8.411 -0.0601  0.0596  0.4911
  253loPI    C1 4033  10.655   8.145  11.264 -0.0101  0.2949  0.0607
  253loPI    C2 4034  11.053   8.185  11.250  0.0257 -0.0293  0.0871
  253loPI    C3 4035  10.870   8.129  11.601 -0.0303 -0.0034  0.0621
  253loPI   PO4 4036  10.609   8.261  10.975 -0.2911  0.0827 -0.1556
  253loPI   GL1 4037  10.539   8.206  10.581 -0.2854 -0.0529 -0.1146
  253loPI   GL2 4038  10.776   8.344  10.509 -0.2617  0.2531 -0.0311
  253loPI   C1A 4039  10.491   8.362  10.126  0.1346 -0.1135 -0.2288
  253loPI   C2A 4040  10.507   8.238   9.729  0.1471  0.0809 -0.2955
  253loPI   C3A 4041  10.477   8.283   9.246 -0.0683 -0.0286  0.2725
  253loPI   C4A 4042  10.411   8.284   8.794  0.2117 -0.0062  0.1535
  253loPI   C5A 4043  10.447   8.047   8.540  0.2778  0.1864  0.2651
  253loPI   C6A 4044  10.618   8.116   8.112  0.1770 -0.2920 -0.1605
  253loPI   C1B 4045  11.006   8.356  10.123 -0.0140  0.0380  0.3325
  253loPI   C2B 4046  11.030   8.397   9.693 -0.0184 -0.1560 -0.1387
  253loPI   C3B 4047  10.935   8.337   9.263 -0.1859 -0.0246 -0.1099
  253loPI   C4B 4048  10.989   8.273   8.748 -0.5002 -0.1356  0.2024
  254loPI    C1 4049   0.081  15.565  10.870  0.0735  0.0326  0.3452
  254loPI    C2 4050  -0.153  15.266  10.997  0.1491 -0.2122 -0.0722
  254loPI    C3 4051   0.094  15.449  11.252 -0.1026 -0.3138  0.2507
  254loPI   PO4 4052   0.153  15.520  10.618  0.0267  0.1911 -0.0727
  254loPI   GL1 4053   0.015  15.258  10.324 -0.0387 -0.1022  0.1859
  254loPI   GL2 4054  -0.221  15.054  10.461 -0.2181  0.1839  0.2118
  254loPI   C1A 4055   0.113  15.236   9.934  0.0969  0.3194  0.3167
  254loPI   C2A 4056   0.156  15.223   9.579 -0.0483  0.0275 -0.0812
  254loPI   C3A 4057   0.169  15.270   9.135  0.2893  0.0451  0.1166
  254loPI   C4A 4058   0.146  15.198   8.771 -0.0127  0.2436  0.0816
  254loPI   C5A 4059   0.081  14.851   8.445  0.1489 -0.0587 -0.3299
  254loPI   C6A 4060  -0.005  14.497   8.316  0.1422  0.1174  0.2453
  254loPI   C1B 4061  -0.372  15.235  10.018 -0.0627  0.2795 -0.0584
  254loPI   C2B 4062  -0.383  15.138   9.582 -0.1556  0.2146  0.0867
  254loPI   C3B 4063  -0.408  15.130   9.219 -0.0222 -0.0493  0.2657
  254loPI   C4B 4064  -0.339  15.181   8.794 -0.0477  0.3706 -0.1562
  255loPI    C1 4065   4.432  15.675  11.210  0.0411  0.1597  0.1419
  255loPI    C2 4066   4.431  15.998  11.445 -0.2189  0.2518  0.0173
  255loPI    C3 4067   4.274  15.655  11.577  0.0677  0.1699  0.1541
  255loPI   PO4 4068   4.255  15.814  10.992  0.1202  0.1779  0.4610
  255loPI   GL1 4069   4.009  15.611  10.709  0.0401 -0.2184  0.1014
  255loPI   GL2 4070   3.715  15.518  10.562  0.0682  0.1831  0.0397
  255loPI   C1A 4071   4.347  15.588  10.284 -0.0812 -0.1743 -0.1570
  255loPI   C2A 4072   4.200  15.626   9.894  0.1468 -0.2997  0.4616
  255loPI   C3A 4073   4.294  15.560   9.482 -0.1315  0.0505 -0.3031
  255loPI   C4A 4074   4.455  15.634   9.067  0.2414 -0.1101  0.1091
  255loPI   C5A 4075   4.478  15.637   8.660 -0.1242  0.0079 -0.2117
  255loPI   C6A 4076   4.557  15.637   8.266  0.2406  0.0701  0.2498
  255loPI   C1B 4077   3.784  15.510  10.075 -0.0146  0.0612 -0.0500
  255loPI   C2B 4078   3.775  15.497   9.598  0.3336  0.0827  0.0189
  255loPI   C3B 4079   3.774  15.572   9.177 -0.1286 -0.3876 -0.2238
  255loPI   C4B 4080   3.946  15.525   8.746 -0.0157  0.3631  0.0579
  256loPI    C1 4081  12.964  17.332  11.215  0.2888  0.0221  0.1506
  256loPI    C2 4082  12.920  16.955  11.342 -0.4275  0.0171 -0.0701
  256loPI    C3 4083  12.863  17.260  11.595  0.0245 -0.0133  0.0760
  256loPI   PO4 4084  13.176  17.348  11.080  0.0439  0.0417  0.1273
  256loPI   GL1 4085  13.191  17.275  10.615 -0.3216 -0.1023  0.0081
  256loPI   GL2 4086  13.435  16.980  10.497 -0.0602  0.1931 -0.0437
  256loPI   C1A 4087  13.180  17.372  10.179  0.2023  0.1048 -0.0230
  256loPI   C2A 4088  13.214  17.248   9.708 -0.0233 -0.1972 -0.0046
  256loPI   C3A 4089  13.151  17.219   9.262  0.3829 -0.4718 -0.0939
  256loPI   C4A 4090  13.158  17.277   8.830 -0.2415 -0.1331 -0.0248
  256loPI   C5A 4091  13.225  17.074   8.454  0.0864  0.0951  0.0024
  256loPI   C6A 4092  13.239  16.689   8.312 -0.2795 -0.0582 -0.1592
  256loPI   C1B 4093  13.499  16.925  10.060  0.0830 -0.2091  0.0445
  256loPI   C2B 4094  13.462  16.830   9.629 -0.0162  0.1247  0.3814
  256loPI   C3B 4095  13.435  16.823   9.170 -0.4421 -0.2095  0.0305
  256loPI   C4B 4096  13.452  16.691   8.770  0.2494  0.0678  0.2438
  257loPI    C1 4097  10.140  14.993  11.303 -0.1382 -0.2139  0.0055
  257loPI    C2 4098  10.079  15.388  11.289  0.1195 -0.1622  0.2659
  257loPI    C3 4099   9.783  15.144  11.401 -0.1548 -0.0805 -0.2503
  257loPI   PO4 4100  10.286  14.931  11.157 -0.4003  0.3397  0.2034
  257loPI   GL1 4101  10.295  14.809  10.738 -0.5758  0.0246 -0.0567
  257loPI   GL2 4102  10.058  14.999  10.570  0.0159 -0.0526  0.2402
  257loPI   C1A 4103  10.424  14.572  10.333 -0.1748 -0.2052 -0.0707
  257loPI   C2A 4104  10.455  14.677   9.839  0.1111 -0.0986 -0.1004
  257loPI   C3A 4105  10.428  14.684   9.469  0.2351  0.0225 -0.2475
  257loPI   C4A 4106  10.480  14.813   9.068  0.1781 -0.0652 -0.1210
  257loPI   C5A 4107  10.305  14.745   8.653  0.0100  0.1645 -0.2454
  257loPI   C6A 4108  10.306  14.809   8.293 -0.1165 -0.0550 -0.2079
  257loPI   C1B 4109  10.244  15.032  10.173 -0.0521  0.1024 -0.0491
  257loPI   C2B 4110  10.222  15.134   9.848  0.0725 -0.0851 -0.0439
  257loPI   C3B 4111  10.067  15.150   9.468  0.0188 -0.0130 -0.0691
  257loPI   C4B 4112  10.163  15.196   9.133 -0.2820 -0.2421 -0.0894
  258loPI    C1 4113  14.434   2.741  10.694  0.0807 -0.1118  0.0376
  258loPI    C2 4114  14.050   2.757  10.807  0.0864 -0.2669  0.0819
  258loPI    C3 4115  14.339   2.869  11.061  0.0491  0.2772 -0.1016
  258loPI   PO4 4116  14.454   2.875  10.428  0.1430 -0.3323  0.0535
  258loPI   GL1 4117  14.280   2.930   9.968 -0.0496  0.4716 -0.0469
  258loPI   GL2 4118  13.936   2.960   9.809 -0.2007 -0.1820  0.0587
  258loPI   C1A 4119  14.454   2.937   9.547 -0.0311  0.1962  0.1806
  258loPI   C2A 4120  14.397   2.804   9.122  0.1206  0.1824  0.0241
  258loPI   C3A 4121  14.348   2.607   8.708 -0.1534 -0.0589 -0.0655
  258loPI   C4A 4122  14.264   2.629   8.251 -0.0073  0.0687  0.0480
  258loPI   C5A 4123  14.354   2.524   7.879  0.4083 -0.1641  0.1935
  258loPI   C6A 4124  14.223   2.130   7.588  0.1080  0.1087  0.1449
  258loPI   C1B 4125  13.845   2.797   9.375 -0.5753 -0.0781  0.0256
  258loPI   C2B 4126  13.825   2.648   9.070 -0.0849 -0.2061 -0.0562
  258loPI   C3B 4127  13.825   2.664   8.705 -0.3146 -0.0086  0.0960
  258loPI   C4B 4128  13.691   2.717   8.333 -0.4788  0.2396  0.0926
  259loPI    C1 4129   7.847   1.230  11.393  0.0517 -0.1027  0.0195
  259loPI    C2 4130   7.614   1.069  11.675  0.0833 -0.4300 -0.1372
  259loPI    C3 4131   7.983   0.926  11.614  0.1935 -0.1524 -0.1337
  259loPI   PO4 4132   7.720   1.255  11.075  0.1488 -0.0382 -0.1163
  259loPI   GL1 4133   7.697   1.326  10.697  0.2288  0.0475 -0.1271
  259loPI   GL2 4134   7.339   1.375  10.527  0.0991 -0.2098 -0.0695
  259loPI   C1A 4135   7.708   1.352  10.199 -0.1233 -0.3001 -0.0354
  259loPI   C2A 4136   7.657   1.409   9.895 -0.1945  0.2468  0.0427
  259loPI   C3A 4137   7.619   1.426   9.470  0.5304  0.2214 -0.0418
  259loPI   C4A 4138   7.639   1.391   9.092  0.0665 -0.0203 -0.1429
  259loPI   C5A 4139   7.755   1.281   8.728 -0.1010 -0.4120 -0.2963
  259loPI   C6A 4140   7.624   1.399   8.383 -0.3194  0.0972 -0.1398
  259loPI   C1B 4141   7.141   1.243  10.145 -0.1869 -0.0034  0.1171
  259loPI   C2B 4142   7.200   1.345   9.690  0.0942  0.1384 -0.1053
  259loPI   C3B 4143   7.146   1.316   9.199 -0.0828  0.2299 -0.0927
  259loPI   C4B 4144   7.227   1.301   8.675 -0.2145  0.3458 -0.1911
  260loPI    C1 4145   9.519  14.176  11.362 -0.0299 -0.1118  0.0607
  260loPI    C2 4146   9.837  13.993  11.523 -0.0071 -0.3513 -0.2466
  260loPI    C3 4147   9.472  13.835  11.565 -0.0868 -0.0917  0.0813
  260loPI   PO4 4148   9.613  14.218  11.114 -0.1818 -0.0067  0.1937
  260loPI   GL1 4149   9.754  14.015  10.798 -0.1041 -0.2655 -0.1694
  260loPI   GL2 4150   9.561  14.110  10.556  0.1745  0.2596 -0.2863
  260loPI   C1A 4151  10.034  14.181  10.527  0.1327 -0.0409  0.3360
  260loPI   C2A 4152  10.188  14.119  10.137  0.0677 -0.0389  0.0269
  260loPI   C3A 4153  10.229  14.104   9.773  0.0455 -0.0398 -0.0366
  260loPI   C4A 4154  10.253  14.161   9.354 -0.3080 -0.1704  0.0680
  260loPI   C5A 4155  10.208  14.237   8.854 -0.0264 -0.2300  0.3255
  260loPI   C6A 4156  10.284  14.313   8.402 -0.0862 -0.1898  0.1461
  260loPI   C1B 4157   9.682  14.141  10.054  0.2673  0.1751 -0.2858
  260loPI   C2B 4158   9.772  14.209   9.687  0.2590  0.2394 -0.1156
  260loPI   C3B 4159   9.689  14.135   9.235 -0.1488 -0.0023 -0.2466
  260loPI   C4B 4160   9.695  14.310   8.776 -0.1245  0.0334 -0.0285
  261loPI    C1 4161   0.215   0.928  10.422 -0.0743 -0.0973 -0.0129
  261loPI    C2 4162  -0.027   0.908  10.740  0.0809  0.0157  0.1143
  261loPI    C3 4163   0.237   1.207  10.708  0.2441 -0.1377  0.0059
  261loPI   PO4 4164   0.228   0.601  10.402  0.0794  0.1216 -0.0604
  261loPI   GL1 4165   0.230   0.474  10.003  0.0398  0.1100  0.0679
  261loPI   GL2 4166  -0.072   0.409   9.842 -0.4003 -0.3075 -0.2069
  261loPI   C1A 4167   0.633   0.376   9.707  0.3925 -0.0428  0.0729
  261loPI   C2A 4168   0.707   0.276   9.337 -0.0116  0.0487 -0.1544
  261loPI   C3A 4169   0.637   0.206   8.916 -0.1110 -0.1108  0.0244
  261loPI   C4A 4170   0.696   0.203   8.471 -0.1571 -0.0068 -0.1021
  261loPI   C5A 4171   0.562   0.146   8.105 -0.0044 -0.0273 -0.1354
  261loPI   C6A 4172   0.641   0.451   7.731 -0.0926  0.0449  0.1945
  261loPI   C1B 4173  -0.021   0.411   9.413  0.0217  0.1893 -0.2873
  261loPI   C2B 4174   0.091   0.325   8.949  0.0796 -0.2945  0.0614
  261loPI   C3B 4175   0.179   0.340   8.422  0.0623 -0.2537 -0.1215
  261loPI   C4B 4176   0.128   0.383   7.901  0.0103 -0.1911 -0.1620
  262loPI    C1 4177  14.530   6.943  10.210  0.1031 -0.0778 -0.0784
  262loPI    C2 4178  14.264   6.780  10.461  0.0563  0.0707 -0.0305
  262loPI    C3 4179  14.625   6.612  10.414 -0.0146 -0.0830 -0.0314
  262loPI   PO4 4180  14.488   7.095  10.080 -0.1054 -0.0319 -0.1495
  262loPI   GL1 4181  14.260   7.325   9.723  0.0699 -0.0195  0.4168
  262loPI   GL2 4182  14.334   7.514   9.482 -0.2003 -0.0409 -0.0184
  262loPI   C1A 4183  13.903   7.295   9.388  0.0899 -0.0165 -0.0050
  262loPI   C2A 4184  13.782   7.441   8.949 -0.0567 -0.1509 -0.2009
  262loPI   C3A 4185  13.604   7.524   8.485 -0.1229 -0.3097 -0.0402
  262loPI   C4A 4186  13.525   7.598   8.007  0.2952 -0.0600 -0.3664
  262loPI   C5A 4187  13.330   7.516   7.594  0.1917 -0.3332  0.0243
  262loPI   C6A 4188  13.363   7.355   7.207  0.2276  0.2893  0.0381
  262loPI   C1B 4189  14.358   7.550   9.066 -0.0981 -0.0454 -0.1672
  262loPI   C2B 4190  14.264   7.464   8.622 -0.1764  0.1298 -0.3396
  262loPI   C3B 4191  14.398   7.500   8.195 -0.0526 -0.1239  0.2011
  262loPI   C4B 4192  14.323   7.690   7.756  0.0908  0.2629 -0.0742
  263loPI    C1 4193   5.591  17.943  10.986  0.3688  0.1114  0.1159
  263loPI    C2 4194   5.221  17.952  11.139  0.1949 -0.0209 -0.2825
  263loPI    C3 4195   5.499  18.207  11.272  0.0480 -0.1152  0.2281
  263loPI   PO4 4196   5.603  17.777  10.836  0.1644  0.1102  0.1280
  263loPI   GL1 4197   5.733  17.748  10.502 -0.0089 -0.0602  0.2118
  263loPI   GL2 4198   5.974  17.956  10.348 -0.1077  0.1735 -0.0605
  263loPI   C1A 4199   5.710  17.628  10.045  0.2862  0.1377 -0.2180
  263loPI   C2A 4200   5.772  17.463   9.678 -0.2347  0.4815 -0.3172
  263loPI   C3A 4201   5.747  17.452   9.266  0.0523  0.3259 -0.1348
  263loPI   C4A 4202   5.780  17.512   8.911  0.3306  0.0366  0.1552
  263loPI   C5A 4203   5.568  17.627   8.501 -0.0801  0.3692 -0.1721
  263loPI   C6A 4204   5.131  17.560   8.304  0.3373  0.0170  0.2957
  263loPI   C1B 4205   5.997  18.027   9.950  0.1521 -0.1001  0.1309
  263loPI   C2B 4206   6.021  17.933   9.507  0.0491  0.0703 -0.1178
  263loPI   C3B 4207   5.981  17.974   9.063 -0.2036  0.4464 -0.2044
  263loPI   C4B 4208   5.925  18.024   8.577 -0.3057 -0.2243  0.3115
  264loPI    C1 4209   6.214  16.339  10.761 -0.0106 -0.0950  0.0970
  264loPI    C2 4210   6.366  16.145  10.446  0.0133  0.1066 -0.0172
  264loPI    C3 4211   6.275  15.944  10.779  0.0641 -0.0951 -0.1233
  264loPI   PO4 4212   6.360  16.602  10.663  0.0073  0.3844 -0.0545
  264loPI   GL1 4213   6.236  16.832  10.328 -0.3123 -0.0111 -0.1201
  264loPI   GL2 4214   6.076  17.160  10.311  0.0634  0.3757  0.1214
  264loPI   C1A 4215   6.306  16.708   9.847  0.2284 -0.0505  0.1393
  264loPI   C2A 4216   6.375  16.685   9.368  0.1676 -0.0398  0.1321
  264loPI   C3A 4217   6.300  16.690   8.953 -0.1132  0.1910  0.2069
  264loPI   C4A 4218   6.319  16.710   8.493  0.1555  0.1009 -0.1845
  264loPI   C5A 4219   6.420  17.010   8.272 -0.1568 -0.2431 -0.3043
  264loPI   C6A 4220   6.263  17.206   7.945  0.0849 -0.1674 -0.1814
  264loPI   C1B 4221   6.062  17.170   9.954  0.0666  0.0953  0.3809
  264loPI   C2B 4222   6.064  17.065   9.538  0.0864 -0.0343  0.1327
  264loPI   C3B 4223   6.030  17.093   9.122 -0.0611 -0.1818 -0.0009
  264loPI   C4B 4224   5.975  17.039   8.663  0.2818 -0.1183 -0.0480
  265loPI    C1 4225  10.537  17.187  10.700  0.1771 -0.0754 -0.1154
  265loPI    C2 4226  10.376  17.496  10.896  0.0880 -0.0088 -0.2907
  265loPI    C3 4227  10.255  17.123  10.976  0.2431 -0.0060 -0.0317
  265loPI   PO4 4228  10.838  17.371  10.708  0.0422 -0.0135 -0.2372
  265loPI   GL1 4229  10.876  17.523  10.331  0.0167  0.2168 -0.2061
  265loPI   GL2 4230  11.085  17.247  10.248  0.1976  0.2763 -0.0554
  265loPI   C1A 4231  10.860  17.515   9.858  0.1227 -0.1041 -0.1390
  265loPI   C2A 4232  10.879  17.564   9.389 -0.0632 -0.1151  0.0057
  265loPI   C3A 4233  10.755  17.390   9.125  0.4126 -0.6100  0.1780
  265loPI   C4A 4234  10.701  17.439   8.679 -0.0286  0.0215  0.2339
  265loPI   C5A 4235  10.932  17.257   8.272 -0.1664  0.1021 -0.1973
  265loPI   C6A 4236  11.000  16.834   8.318 -0.0543 -0.3250  0.0928
  265loPI   C1B 4237  11.098  16.977   9.912 -0.1270  0.3914 -0.1421
  265loPI   C2B 4238  11.006  17.080   9.603 -0.3370  0.4461  0.0223
  265loPI   C3B 4239  11.067  17.009   9.164 -0.0639  0.3084  0.3794
  265loPI   C4B 4240  11.044  17.087   8.800 -0.0618  0.4866 -0.0736
  266loPI    C1 4241   2.425   9.033  10.887 -0.1940 -0.0126  0.3752
  266loPI    C2 4242   2.601   8.694  10.770 -0.0492  0.1618  0.0769
  266loPI    C3 4243   2.203   8.727  10.756 -0.0399  0.1572 -0.3217
  266loPI   PO4 4244   2.601   9.190  10.762 -0.0769 -0.0879  0.1213
  266loPI   GL1 4245   2.768   9.422  10.397  0.2000  0.3568 -0.0219
  266loPI   GL2 4246   2.966   9.616  10.122  0.3493  0.1150 -0.2094
  266loPI   C1A 4247   2.730   9.177   9.938 -0.0341 -0.1387 -0.1020
  266loPI   C2A 4248   2.754   9.160   9.472 -0.0741  0.0931  0.1302
  266loPI   C3A 4249   2.812   9.157   9.119 -0.2814  0.0446  0.1187
  266loPI   C4A 4250   2.847   9.362   8.744 -0.0545  0.0523  0.3201
  266loPI   C5A 4251   2.581   9.379   8.362  0.0267 -0.2645 -0.1291
  266loPI   C6A 4252   2.248   9.829   8.298  0.0941  0.1141 -0.0243
  266loPI   C1B 4253   2.877   9.613   9.674  0.1239  0.0519  0.1231
  266loPI   C2B 4254   3.090   9.616   9.238  0.0659 -0.0225  0.0386
  266loPI   C3B 4255   3.090   9.792   8.840 -0.2367  0.1352 -0.1868
  266loPI   C4B 4256   2.777   9.844   8.518  0.2404  0.2366 -0.0648
  267loPI    C1 4257   5.170   5.930  10.947 -0.0497 -0.0603  0.0497
  267loPI    C2 4258   5.510   5.827  11.131 -0.2032 -0.2852  0.2125
  267loPI    C3 4259   5.282   6.118  11.282  0.0590  0.0692 -0.0583
  267loPI   PO4 4260   5.255   5.932  10.709 -0.5153  0.1676 -0.1900
  267loPI   GL1 4261   5.121   6.009  10.425  0.0394  0.0548 -0.4393
  267loPI   GL2 4262   5.128   6.432  10.524  0.1990 -0.0545  0.0437
  267loPI   C1A 4263   5.278   6.101  10.033  0.0570 -0.1577 -0.1459
  267loPI   C2A 4264   5.350   6.131   9.518  0.0026  0.0730 -0.1485
  267loPI   C3A 4265   5.450   6.199   9.108  0.1205 -0.0928 -0.4714
  267loPI   C4A 4266   5.473   6.171   8.709 -0.0250 -0.2011  0.2965
  267loPI   C5A 4267   5.459   6.232   8.198  0.1607 -0.1152  0.6883
  267loPI   C6A 4268   5.060   6.286   7.996  0.4536  0.1848 -0.0089
  267loPI   C1B 4269   5.013   6.521  10.062  0.2088 -0.1758  0.0338
  267loPI   C2B 4270   5.031   6.549   9.590  0.2636  0.3602  0.2564
  267loPI   C3B 4271   5.130   6.655   9.128 -0.1626  0.1231  0.2639
  267loPI   C4B 4272   5.177   6.630   8.604  0.0431 -0.0513  0.1609
  268loPI    C1 4273   1.854  12.834  11.096 -0.1468  0.0797  0.0074
  268loPI    C2 4274   1.555  12.803  11.361 -0.0074  0.0192  0.1591
  268loPI    C3 4275   1.878  13.022  11.449  0.0129  0.0483  0.0137
  268loPI   PO4 4276   1.694  12.894  10.848 -0.0369  0.2403  0.2854
  268loPI   GL1 4277   1.871  12.808  10.447  0.3326 -0.0448 -0.0109
  268loPI   GL2 4278   2.202  12.796  10.337  0.0992 -0.2230  0.0517
  268loPI   C1A 4279   1.822  12.745  10.011 -0.1418 -0.1121 -0.1726
  268loPI   C2A 4280   1.978  12.720   9.605 -0.1416  0.1642 -0.0204
  268loPI   C3A 4281   2.018  12.736   9.168 -0.4045 -0.0939 -0.1120
  268loPI   C4A 4282   2.053  12.706   8.758  0.1031  0.1424 -0.0363
  268loPI   C5A 4283   2.212  13.026   8.435 -0.1347 -0.0811  0.1396
  268loPI   C6A 4284   2.157  13.099   8.025  0.1937 -0.3576 -0.1838
  268loPI   C1B 4285   2.423  12.775   9.955 -0.1193  0.2065 -0.2326
  268loPI   C2B 4286   2.501  12.713   9.492 -0.2322  0.0340  0.2490
  268loPI   C3B 4287   2.549  12.835   9.112 -0.0721  0.0559 -0.6284
  268loPI   C4B 4288   2.575  12.876   8.688 -0.1777 -0.1086 -0.0586
  269loPI    C1 4289   9.815  16.050  10.913  0.2579  0.0747 -0.0741
  269loPI    C2 4290  10.079  15.845  11.132  0.1154 -0.0140  0.0165
  269loPI    C3 4291   9.745  15.986  11.301 -0.0832 -0.2391 -0.1810
  269loPI   PO4 4292   9.901  15.905  10.690  0.0413 -0.1202 -0.1632
  269loPI   GL1 4293   9.962  15.528  10.337 -0.0216 -0.0585 -0.2223
  269loPI   GL2 4294  10.217  15.716  10.349  0.1024 -0.3583 -0.1057
  269loPI   C1A 4295   9.880  15.480   9.840 -0.5027 -0.3353 -0.1028
  269loPI   C2A 4296   9.860  15.559   9.396 -0.1017 -0.2711  0.2055
  269loPI   C3A 4297   9.919  15.632   8.917  0.0307  0.0264  0.2759
  269loPI   C4A 4298   9.734  15.608   8.565 -0.2225 -0.1408  0.0047
  269loPI   C5A 4299   9.655  15.406   8.248  0.5189  0.0265 -0.1353
  269loPI   C6A 4300   9.434  15.250   7.930 -0.0230  0.0564 -0.1281
  269loPI   C1B 4301  10.066  15.913   9.931 -0.0646  0.1279  0.1679
  269loPI   C2B 4302  10.165  16.019   9.531 -0.0239  0.1529  0.2881
  269loPI   C3B 4303  10.149  16.019   9.072 -0.1705  0.3099 -0.0577
  269loPI   C4B 4304   9.897  16.086   8.760  0.3279 -0.0478  0.3463
  270loPI    C1 4305   7.852  11.648  11.187 -0.0848 -0.1113 -0.0995
  270loPI    C2 4306   8.117  11.379  11.055  0.0995  0.0530 -0.0701
  270loPI    C3 4307   8.076  11.443  11.447  0.1218  0.1333 -0.0808
  270loPI   PO4 4308   7.849  11.808  10.928  0.0878  0.1245  0.1219
  270loPI   GL1 4309   7.876  11.703  10.571 -0.0626  0.2198 -0.1520
  270loPI   GL2 4310   7.551  11.673  10.555  0.0389 -0.0470  0.0523
  270loPI   C1A 4311   8.048  11.797  10.152  0.0725  0.2474  0.0764
  270loPI   C2A 4312   8.054  11.815   9.757 -0.0196  0.1358  0.1545
  270loPI   C3A 4313   8.080  11.706   9.295  0.0311 -0.0902 -0.4670
  270loPI   C4A 4314   8.137  11.854   8.855  0.1309 -0.1031  0.1021
  270loPI   C5A 4315   7.848  12.008   8.620 -0.1963 -0.1846  0.1663
  270loPI   C6A 4316   7.513  11.992   8.440  0.1813  0.0914 -0.0186
  270loPI   C1B 4317   7.414  11.708  10.189 -0.3965  0.5989 -0.0855
  270loPI   C2B 4318   7.470  11.789   9.856 -0.2732 -0.0560 -0.2012
  270loPI   C3B 4319   7.530  11.765   9.345  0.0835  0.0559 -0.1349
  270loPI   C4B 4320   7.393  11.786   8.905  0.3068  0.0864  0.0165
  271loPI    C1 4321   8.025  13.844  11.245  0.2753  0.1507  0.2059
  271loPI    C2 4322   8.237  13.857  11.583 -0.1360  0.0108  0.4764
  271loPI    C3 4323   7.839  13.896  11.595 -0.1806 -0.2453  0.0343
  271loPI   PO4 4324   8.227  13.684  11.039 -0.1514 -0.1490 -0.1860
  271loPI   GL1 4325   8.306  13.734  10.637  0.2532 -0.0961  0.0571
  271loPI   GL2 4326   8.380  13.375  10.623 -0.0057  0.1231 -0.7265
  271loPI   C1A 4327   8.416  13.633  10.184  0.2939  0.0815 -0.1273
  271loPI   C2A 4328   8.425  13.641   9.754 -0.0706 -0.0872  0.1368
  271loPI   C3A 4329   8.346  13.603   9.371 -0.4042 -0.0566 -0.0723
  271loPI   C4A 4330   8.435  13.608   8.869  0.2948 -0.2485  0.0206
  271loPI   C5A 4331   8.607  13.705   8.484  0.1454  0.0562  0.0586
  271loPI   C6A 4332   8.718  14.165   8.344  0.2613  0.1713 -0.0758
  271loPI   C1B 4333   8.188  13.018  10.284 -0.2015 -0.1359 -0.1814
  271loPI   C2B 4334   8.227  13.216   9.858  0.0843 -0.0800 -0.1706
  271loPI   C3B 4335   8.217  13.103   9.471  0.2678 -0.0028  0.0142
  271loPI   C4B 4336   8.171  13.132   9.048  0.1451  0.2309 -0.2149
  272loPI    C1 4337   6.616   6.921  10.969  0.0387  0.0658 -0.0642
  272loPI    C2 4338   6.648   7.183  11.269  0.1425 -0.1189  0.0884
  272loPI    C3 4339   6.334   6.935  11.252  0.0553 -0.0009 -0.0440
  272loPI   PO4 4340   6.683   7.036  10.697  0.0587  0.2325  0.1562
  272loPI   GL1 4341   6.598   6.889  10.325 -0.2310 -0.0113 -0.1968
  272loPI   GL2 4342   6.849   7.235  10.288  0.1184 -0.1459  0.0228
  272loPI   C1A 4343   6.613   6.669   9.982  0.0656  0.0807  0.1054
  272loPI   C2A 4344   6.537   6.718   9.546 -0.1429  0.0248  0.0599
  272loPI   C3A 4345   6.703   6.807   9.174  0.2241  0.3374 -0.2568
  272loPI   C4A 4346   6.708   6.828   8.756 -0.1610  0.0594 -0.1493
  272loPI   C5A 4347   6.849   6.860   8.317  0.1177 -0.3268  0.2021
  272loPI   C6A 4348   6.696   6.893   7.926  0.2265  0.0530 -0.1246
  272loPI   C1B 4349   6.855   7.108   9.858  0.2682 -0.1943  0.1957
  272loPI   C2B 4350   6.904   7.303   9.389  0.7441  0.1926  0.1132
  272loPI   C3B 4351   6.932   7.219   9.002  0.1757  0.0942 -0.1734
  272loPI   C4B 4352   6.944   7.353   8.577  0.3179  0.1372 -0.1572
  273loPI    C1 4353  16.385   8.276  10.387  0.0617 -0.0645 -0.1581
  273loPI    C2 4354  16.616   8.476  10.645  0.0574 -0.1861 -0.0588
  273loPI    C3 4355  16.363   8.196  10.778  0.0386 -0.2338 -0.1930
  273loPI   PO4 4356  16.301   8.402  10.192 -0.1783  0.1563  0.0628
  273loPI   GL1 4357  16.271   8.329   9.735 -0.0983  0.0762  0.2195
  273loPI   GL2 4358  16.607   8.215   9.705 -0.0853 -0.0251 -0.0250
  273loPI   C1A 4359  16.039   8.547   9.372  0.1465 -0.0643 -0.1575
  273loPI   C2A 4360  16.012   8.503   9.066 -0.2523 -0.1872  0.0056
  273loPI   C3A 4361  16.092   8.611   8.719 -0.1441 -0.1447  0.1772
  273loPI   C4A 4362  16.007   8.830   8.341 -0.0670 -0.3826 -0.0448
  273loPI   C5A 4363  15.832   9.350   8.314  0.0332 -0.0112 -0.0790
  273loPI   C6A 4364  15.799   9.769   8.142  0.0575 -0.5016 -0.1239
  273loPI   C1B 4365  16.516   8.384   9.268  0.1419 -0.0881  0.0685
  273loPI   C2B 4366  16.638   8.461   8.791 -0.1154 -0.1367  0.1719
  273loPI   C3B 4367  16.560   8.638   8.494  0.1305  0.0042 -0.0394
  273loPI   C4B 4368  16.416   8.816   8.086 -0.1132  0.0292  0.2466
  274loPI    C1 4369   3.196   6.659  10.421  0.0780  0.1499 -0.1606
  274loPI    C2 4370   2.983   6.989  10.497 -0.1720 -0.0983  0.2604
  274loPI    C3 4371   3.355   6.953  10.640 -0.0069  0.1454 -0.0922
  274loPI   PO4 4372   3.101   6.652  10.113 -0.1879 -0.0727 -0.0680
  274loPI   GL1 4373   2.921   6.708   9.806 -0.1663  0.4346 -0.1288
  274loPI   GL2 4374   2.653   6.508   9.807  0.2335 -0.1675 -0.2448
  274loPI   C1A 4375   3.073   6.801   9.356  0.1463  0.3465 -0.0116
  274loPI   C2A 4376   3.238   6.840   8.867 -0.0626 -0.0972  0.0670
  274loPI   C3A 4377   3.290   6.974   8.482  0.1181  0.0613 -0.0028
  274loPI   C4A 4378   3.254   6.698   8.118 -0.1045 -0.1661 -0.0770
  274loPI   C5A 4379   3.280   6.325   7.815 -0.0848  0.1354 -0.0093
  274loPI   C6A 4380   3.098   5.941   7.712 -0.0058  0.1655 -0.1721
  274loPI   C1B 4381   2.733   6.460   9.360  0.1059  0.1270 -0.0781
  274loPI   C2B 4382   2.782   6.558   8.919 -0.1849  0.0700 -0.0731
  274loPI   C3B 4383   3.055   6.482   8.572  0.0627 -0.1355 -0.1393
  274loPI   C4B 4384   3.476   6.276   8.328 -0.0303  0.1959 -0.0782
  275loPI    C1 4385   4.933  14.734  11.435  0.0218 -0.1627  0.0685
  275loPI    C2 4386   4.845  15.000  11.721 -0.0716 -0.0805 -0.0354
  275loPI    C3 4387   5.226  14.934  11.619 -0.0218 -0.2775  0.2653
  275loPI   PO4 4388   4.793  14.827  11.246 -0.0665  0.1759  0.0833
  275loPI   GL1 4389   4.903  14.792  10.828  0.1539  0.2212 -0.4063
  275loPI   GL2 4390   5.028  15.065  10.613 -0.0539 -0.2751  0.1552
  275loPI   C1A 4391   4.828  14.668  10.404  0.0973  0.1277 -0.1520
  275loPI   C2A 4392   4.896  14.731  10.064 -0.0665  0.1794  0.2359
  275loPI   C3A 4393   4.970  14.828   9.644 -0.0906  0.0545 -0.1316
  275loPI   C4A 4394   4.884  14.742   9.318  0.1374  0.3185  0.0256
  275loPI   C5A 4395   4.941  14.762   8.841  0.0674 -0.1786  0.1489
  275loPI   C6A 4396   4.959  14.930   8.509  0.2416  0.2055  0.4115
  275loPI   C1B 4397   4.703  15.142  10.266 -0.3762  0.0806  0.0027
  275loPI   C2B 4398   4.629  15.139   9.878 -0.0427 -0.2442  0.2625
  275loPI   C3B 4399   4.649  15.185   9.417 -0.2357  0.0921 -0.2153
  275loPI   C4B 4400   4.784  15.203   8.908  0.2806  0.1874 -0.0107
  276loPI    C1 4401   9.350   0.255  11.065 -0.1156  0.0069 -0.0387
  276loPI    C2 4402   9.650   0.462  11.231 -0.0231 -0.0024 -0.1918
  276loPI    C3 4403   9.488   0.152  11.426  0.1433 -0.0681 -0.1566
  276loPI   PO4 4404   9.354   0.359  10.830 -0.1753 -0.1485  0.0894
  276loPI   GL1 4405   9.156   0.564  10.528  0.1792  0.0193 -0.1538
  276loPI   GL2 4406   8.805   0.567  10.349  0.0989 -0.3585 -0.0658
  276loPI   C1A 4407   9.376   0.591  10.185 -0.0202  0.1821  0.1959
  276loPI   C2A 4408   9.232   0.571   9.833  0.0540 -0.0758  0.0106
  276loPI   C3A 4409   9.257   0.573   9.391 -0.2334 -0.0236  0.0138
  276loPI   C4A 4410   9.262   0.588   8.927 -0.1350 -0.1438 -0.0119
  276loPI   C5A 4411   9.205   0.590   8.520  0.3515 -0.2103 -0.3332
  276loPI   C6A 4412   9.386   0.689   8.147 -0.2393  0.0518 -0.4735
  276loPI   C1B 4413   8.744   0.611   9.899 -0.2386 -0.1099 -0.0880
  276loPI   C2B 4414   8.788   0.475   9.437  0.1810 -0.2042 -0.2027
  276loPI   C3B 4415   8.726   0.518   9.021 -0.0045  0.0339 -0.1548
  276loPI   C4B 4416   8.695   0.488   8.560  0.0330  0.4350  0.3063
  277loPI    C1 4417  10.551   3.828  10.938  0.0261 -0.2091 -0.0029
  277loPI    C2 4418  10.440   4.065  11.241 -0.0842 -0.0353 -0.1769
  277loPI    C3 4419  10.724   3.789  11.297 -0.1727 -0.0721  0.1101
  277loPI   PO4 4420  10.261   3.869  10.787  0.1055 -0.2675 -0.1245
  277loPI   GL1 4421  10.193   3.696  10.330 -0.2773 -0.0741 -0.2034
  277loPI   GL2 4422  10.536   3.579  10.479  0.1053 -0.0050 -0.1561
  277loPI   C1A 4423  10.358   3.830   9.881 -0.1878  0.1588  0.1247
  277loPI   C2A 4424  10.226   3.726   9.430 -0.0557  0.0881  0.0223
  277loPI   C3A 4425  10.306   3.845   9.007  0.0067  0.1859  0.0473
  277loPI   C4A 4426  10.272   3.836   8.521  0.1244 -0.2822  0.0648
  277loPI   C5A 4427  10.063   3.633   8.153  0.1633 -0.1550  0.3250
  277loPI   C6A 4428   9.701   3.478   7.911  0.0032 -0.0832 -0.2932
  277loPI   C1B 4429  10.653   3.441  10.149 -0.1025  0.1141  0.0666
  277loPI   C2B 4430  10.561   3.434   9.721 -0.1275 -0.1397  0.0618
  277loPI   C3B 4431  10.608   3.362   9.344  0.2824  0.1128 -0.0728
  277loPI   C4B 4432  10.769   3.381   8.978 -0.4536  0.0407 -0.0435
  278loPI    C1 4433  12.158  11.815  10.819 -0.0269 -0.0439  0.2078
  278loPI    C2 4434  12.496  12.028  10.791 -0.1860  0.1865  0.0035
  278loPI    C3 4435  12.297  12.014  11.137  0.0509  0.0179  0.1357
  278loPI   PO4 4436  11.998  11.894  10.655 -0.0755  0.0192 -0.1596
  278loPI   GL1 4437  11.613  12.046  10.414 -0.0159 -0.1093  0.2263
  278loPI   GL2 4438  11.616  11.726  10.307  0.0932 -0.0007  0.0024
  278loPI   C1A 4439  11.652  12.117   9.985  0.1006  0.2182 -0.2328
  278loPI   C2A 4440  11.627  12.126   9.535 -0.1485  0.0381  0.0175
  278loPI   C3A 4441  11.717  12.041   9.023 -0.0268  0.1347  0.0056
  278loPI   C4A 4442  11.731  12.027   8.475 -0.1336  0.0161 -0.0436
  278loPI   C5A 4443  11.841  11.819   8.110 -0.2892  0.1817 -0.2460
  278loPI   C6A 4444  11.830  11.384   8.122  0.0287  0.0745  0.1257
  278loPI   C1B 4445  11.434  11.654   9.895 -0.0583 -0.2023  0.0227
  278loPI   C2B 4446  11.514  11.651   9.386 -0.1661 -0.0047 -0.0738
  278loPI   C3B 4447  11.405  11.574   8.878 -0.1548 -0.0886  0.1709
  278loPI   C4B 4448  11.512  11.511   8.496 -0.1366  0.1552  0.2356
  279loPI    C1 4449  11.097   2.335  11.053  0.1060 -0.0087  0.1287
  279loPI    C2 4450  10.960   2.671  10.885 -0.2990 -0.1175  0.2299
  279loPI    C3 4451  11.056   2.666  11.273 -0.3249 -0.1271  0.2363
  279loPI   PO4 4452  11.224   2.233  10.892 -0.3731 -0.0698 -0.1378
  279loPI   GL1 4453  11.242   2.316  10.564 -0.2714  0.3224  0.1132
  279loPI   GL2 4454  11.264   2.644  10.504 -0.1207  0.4231  0.1593
  279loPI   C1A 4455  11.050   2.155  10.169 -0.1292 -0.0838  0.0807
  279loPI   C2A 4456  11.096   2.116   9.757  0.0005 -0.1310  0.2846
  279loPI   C3A 4457  11.033   1.967   9.326  0.2199 -0.2997  0.0761
  279loPI   C4A 4458  11.069   1.975   8.844  0.1364  0.0885 -0.1292
  279loPI   C5A 4459  11.000   1.946   8.448 -0.2246 -0.0466  0.0017
  279loPI   C6A 4460  10.944   2.065   8.086  0.2967  0.1393 -0.1021
  279loPI   C1B 4461  11.325   2.568  10.134  0.2435 -0.0430  0.1079
  279loPI   C2B 4462  11.262   2.589   9.631  0.1394 -0.1500  0.2262
  279loPI   C3B 4463  11.226   2.496   9.150 -0.1759  0.3186 -0.0202
  279loPI   C4B 4464  11.250   2.390   8.655 -0.3043 -0.0557 -0.0305
  280loPI    C1 4465   8.829  11.937  11.700 -0.1800 -0.1848 -0.2549
  280loPI    C2 4466   9.034  11.594  11.692  0.3944  0.1308  0.1706
  280loPI    C3 4467   8.833  11.699  12.021  0.0961  0.1400 -0.0103
  280loPI   PO4 4468   8.783  11.876  11.373 -0.0226 -0.0303 -0.2126
  280loPI   GL1 4469   8.766  11.802  10.871  0.0677  0.0369  0.0025
  280loPI   GL2 4470   9.108  11.705  11.023  0.0999  0.1429  0.2487
  280loPI   C1A 4471   8.492  11.769  10.468 -0.1936  0.1117  0.1887
  280loPI   C2A 4472   8.562  11.788   9.944 -0.2487  0.0115 -0.0091
  280loPI   C3A 4473   8.543  11.852   9.476  0.0367  0.1318 -0.0315
  280loPI   C4A 4474   8.648  11.857   9.141  0.0418  0.0251 -0.0950
  280loPI   C5A 4475   8.661  11.761   8.757  0.0822 -0.3871  0.1895
  280loPI   C6A 4476   8.754  11.480   8.437  0.0605  0.0395 -0.0045
  280loPI   C1B 4477   9.127  11.787  10.515 -0.0271  0.2271  0.0201
  280loPI   C2B 4478   9.084  11.800  10.107 -0.0411  0.2354 -0.1768
  280loPI   C3B 4479   9.081  11.876   9.683  0.2196 -0.1028  0.1181
  280loPI   C4B 4480   9.059  11.945   9.393  0.2141  0.2238 -0.3888
  281loPI    C1 4481   4.015  16.137  11.322  0.2260 -0.4152  0.0006
  281loPI    C2 4482   3.677  16.165  11.534  0.1598  0.0515 -0.1545
  281loPI    C3 4483   4.030  16.136  11.721  0.1006  0.4310  0.0247
  281loPI   PO4 4484   3.965  16.209  11.019  0.0337 -0.4070  0.5750
  281loPI   GL1 4485   4.094  16.131  10.587  0.5041  0.3733 -0.3838
  281loPI   GL2 4486   4.412  16.000  10.536  0.0446 -0.1782 -0.2885
  281loPI   C1A 4487   4.011  16.118  10.253  0.0564  0.1100  0.0007
  281loPI   C2A 4488   3.981  16.037   9.757 -0.2469 -0.1344  0.0176
  281loPI   C3A 4489   3.976  16.025   9.389 -0.2711  0.1552 -0.1041
  281loPI   C4A 4490   4.096  15.980   9.020  0.0840  0.0439  0.2863
  281loPI   C5A 4491   4.143  15.980   8.575  0.1372  0.2312 -0.0610
  281loPI   C6A 4492   4.139  16.167   8.166 -0.1168  0.0034  0.0248
  281loPI   C1B 4493   4.488  16.105  10.147  0.2086  0.1057  0.1127
  281loPI   C2B 4494   4.487  16.131   9.699 -0.0044  0.2760  0.0284
  281loPI   C3B 4495   4.530  16.084   9.318 -0.1078 -0.1750  0.3773
  281loPI   C4B 4496   4.642  16.073   8.918  0.0842 -0.0593  0.0725
  282loPI    C1 4497   0.955  11.108  11.327  0.0000  0.2213 -0.1116
  282loPI    C2 4498   1.202  11.240  11.612  0.1240 -0.0767 -0.0778
  282loPI    C3 4499   1.053  10.870  11.633 -0.3884  0.1235 -0.0578
  282loPI   PO4 4500   1.114  11.193  11.087 -0.1037 -0.1920  0.0462
  282loPI   GL1 4501   1.003  11.251  10.619 -0.0749  0.1322 -0.2206
  282loPI   GL2 4502   0.753  10.998  10.546  0.2940  0.1638  0.0124
  282loPI   C1A 4503   1.128  11.236  10.234 -0.0443  0.0233 -0.1118
  282loPI   C2A 4504   1.289  11.349   9.826 -0.1145  0.0232  0.3707
  282loPI   C3A 4505   1.260  11.352   9.405  0.2907  0.0617  0.3602
  282loPI   C4A 4506   1.310  11.368   9.008  0.3046  0.0619 -0.0159
  282loPI   C5A 4507   1.305  11.533   8.592  0.1962 -0.2934  0.3422
  282loPI   C6A 4508   1.569  11.696   8.302 -0.0983  0.3513  0.1489
  282loPI   C1B 4509   0.618  11.175  10.029  0.1273 -0.1188 -0.2614
  282loPI   C2B 4510   0.773  11.283   9.630  0.0748  0.0730  0.2016
  282loPI   C3B 4511   0.801  11.233   9.151 -0.0880  0.3347  0.0637
  282loPI   C4B 4512   0.827  11.347   8.681  0.1337 -0.1646  0.0275
  283loPI    C1 4513   0.099   5.474  10.026  0.1373 -0.2470 -0.1591
  283loPI    C2 4514  -0.015   5.385  10.399  0.2271  0.0291 -0.0631
  283loPI    C3 4515   0.334   5.569  10.336  0.0670  0.2728 -0.2568
  283loPI   PO4 4516   0.136   5.259   9.812 -0.1122  0.0412  0.0192
  283loPI   GL1 4517   0.178   5.079   9.400  0.1534  0.0624 -0.0605
  283loPI   GL2 4518  -0.053   5.276   9.375  0.0402 -0.0156 -0.0633
  283loPI   C1A 4519   0.276   5.233   9.027  0.0389  0.0125  0.2602
  283loPI   C2A 4520   0.340   5.283   8.531 -0.0156  0.1970  0.1618
  283loPI   C3A 4521   0.663   5.413   8.301 -0.1490 -0.1090  0.0764
  283loPI   C4A 4522   0.836   5.482   7.986  0.4028 -0.1455 -0.1455
  283loPI   C5A 4523   1.182   5.336   7.787  0.5327  0.0550 -0.2684
  283loPI   C6A 4524   1.390   5.058   7.586  0.1027 -0.1076  0.1620
  283loPI   C1B 4525  -0.109   5.552   9.038  0.2063  0.3221 -0.0048
  283loPI   C2B 4526  -0.060   5.538   8.641 -0.1438 -0.0197  0.1822
  283loPI   C3B 4527  -0.137   5.660   8.217 -0.0346 -0.1366 -0.1910
  283loPI   C4B 4528  -0.020   5.911   7.829 -0.1279 -0.0669 -0.0251
  284loPI    C1 4529  12.372  16.935  11.071 -0.1147 -0.0172 -0.1996
  284loPI    C2 4530  12.490  17.244  11.296  0.4828 -0.2215 -0.2127
  284loPI    C3 4531  12.422  16.888  11.465  0.0160 -0.1482 -0.2310
  284loPI   PO4 4532  12.501  16.943  10.908  0.0893 -0.0519  0.0985
  284loPI   GL1 4533  12.662  16.755  10.510  0.2877  0.2914 -0.0350
  284loPI   GL2 4534  13.054  16.601  10.327 -0.0016  0.0982  0.3863
  284loPI   C1A 4535  12.809  17.080  10.346 -0.1179 -0.0886 -0.0969
  284loPI   C2A 4536  12.634  17.135  10.023 -0.0904  0.1799 -0.0178
  284loPI   C3A 4537  12.728  17.315   9.720 -0.0936  0.0463 -0.0561
  284loPI   C4A 4538  12.624  17.117   9.361  0.2240  0.0896  0.2226
  284loPI   C5A 4539  12.586  17.051   8.913 -0.2483 -0.1035  0.0819
  284loPI   C6A 4540  12.756  17.055   8.535 -0.0053 -0.0738 -0.1972
  284loPI   C1B 4541  13.025  16.846   9.940 -0.0695  0.4414  0.0783
  284loPI   C2B 4542  12.980  16.808   9.444 -0.1997  0.2599 -0.1063
  284loPI   C3B 4543  13.017  16.790   8.996  0.3074 -0.0112 -0.4990
  284loPI   C4B 4544  12.874  16.578   8.665 -0.0961  0.0718 -0.1632
  285loPI    C1 4545  14.873   4.524   9.904 -0.0780  0.0776  0.2683
  285loPI    C2 4546  15.173   4.438  10.154 -0.0270 -0.0444  0.1666
  285loPI    C3 4547  14.926   4.149  10.033  0.0036 -0.0035  0.0044
  285loPI   PO4 4548  14.639   4.805  10.052 -0.1286 -0.3667 -0.2967
  285loPI   GL1 4549  14.590   5.182   9.695 -0.3867 -0.0679  0.1187
  285loPI   GL2 4550  14.803   4.892   9.555  0.4044  0.0177  0.0589
  285loPI   C1A 4551  14.298   5.057   9.387 -0.2977 -0.0013  0.0298
  285loPI   C2A 4552  13.871   4.797   9.385 -0.0658  0.4066  0.0253
  285loPI   C3A 4553  13.669   4.675   9.027 -0.0229  0.1018  0.2146
  285loPI   C4A 4554  13.318   4.802   8.784 -0.0909  0.0409  0.1457
  285loPI   C5A 4555  13.168   4.637   8.374  0.0140 -0.2098 -0.0981
  285loPI   C6A 4556  13.074   4.774   7.941  0.1197  0.0812 -0.1702
  285loPI   C1B 4557  14.867   4.979   9.125  0.5419  0.0884  0.3705
  285loPI   C2B 4558  15.066   4.887   8.714 -0.1617 -0.1578  0.4689
  285loPI   C3B 4559  14.976   4.817   8.350  0.3260  0.0414 -0.1448
  285loPI   C4B 4560  14.608   4.677   8.143 -0.1630  0.0188 -0.1229
  286loPI    C1 4561  11.408  16.879  10.823  0.0216  0.0460 -0.2433
  286loPI    C2 4562  11.015  16.860  10.896  0.0582 -0.3581 -0.1294
  286loPI    C3 4563  11.267  16.973  11.185  0.0420 -0.2606 -0.1531
  286loPI   PO4 4564  11.403  17.111  10.610 -0.0924  0.0109 -0.0626
  286loPI   GL1 4565  11.723  17.142  10.288  0.2465  0.1274 -0.0464
  286loPI   GL2 4566  11.808  17.458  10.494 -0.6592 -0.1285 -0.0707
  286loPI   C1A 4567  11.579  17.157   9.852  0.4317  0.3218 -0.1268
  286loPI   C2A 4568  11.585  17.101   9.427  0.3024  0.1819  0.2166
  286loPI   C3A 4569  11.555  17.030   8.995 -0.1148  0.0221  0.1111
  286loPI   C4A 4570  11.524  17.028   8.580 -0.2243  0.1477 -0.0800
  286loPI   C5A 4571  11.510  17.175   8.245  0.0792  0.0099  0.0245
  286loPI   C6A 4572  11.241  17.552   8.117  0.1004 -0.0930 -0.0876
  286loPI   C1B 4573  11.965  17.679  10.075  0.1104  0.4667 -0.0812
  286loPI   C2B 4574  11.800  17.580   9.549  0.0714  0.3879 -0.1328
  286loPI   C3B 4575  11.777  17.455   9.042  0.0333  0.0041 -0.0301
  286loPI   C4B 4576  11.755  17.496   8.684 -0.1087 -0.0416  0.0125
  287loPI    C1 4577  10.925  11.670  11.252 -0.2977 -0.0216  0.0798
  287loPI    C2 4578  10.949  11.311  11.427  0.2117  0.0396  0.1509
  287loPI    C3 4579  11.040  11.641  11.634 -0.1567  0.2060  0.0562
  287loPI   PO4 4580  11.072  11.679  11.024  0.0283  0.3457  0.1079
  287loPI   GL1 4581  11.158  11.953  10.619  0.1050 -0.1266  0.1335
  287loPI   GL2 4582  10.875  12.200  10.774 -0.2007 -0.2352  0.5034
  287loPI   C1A 4583  11.131  12.064  10.242  0.0751  0.4392  0.5858
  287loPI   C2A 4584  11.186  12.127   9.888 -0.0958  0.1177  0.1720
  287loPI   C3A 4585  11.116  12.095   9.402 -0.1621  0.3557  0.0800
  287loPI   C4A 4586  11.231  11.990   9.035 -0.1558  0.0865 -0.2797
  287loPI   C5A 4587  11.176  11.943   8.646  0.1163 -0.4674  0.1757
  287loPI   C6A 4588  11.262  11.886   8.193 -0.0482  0.1739 -0.2295
  287loPI   C1B 4589  10.680  12.038  10.431 -0.0061  0.1586  0.2064
  287loPI   C2B 4590  10.642  11.997  10.027 -0.0787 -0.1832  0.0251
  287loPI   C3B 4591  10.602  11.959   9.656 -0.3793 -0.3072 -0.1342
  287loPI   C4B 4592  10.655  12.011   9.220 -0.1560 -0.0631  0.3528
  288loPI    C1 4593  17.569  12.150  11.277 -0.2340  0.0256 -0.0715
  288loPI    C2 4594  17.300  12.012  11.539  0.0072  0.1002  0.2206
  288loPI    C3 4595  17.690  12.007  11.630  0.0913  0.1709 -0.1201
  288loPI   PO4 4596  17.555  12.027  10.965  0.0282  0.2177  0.2118
  288loPI   GL1 4597  17.539  12.211  10.584  0.1633  0.1864 -0.0209
  288loPI   GL2 4598  17.613  11.900  10.477  0.1683  0.0131 -0.1971
  288loPI   C1A 4599  17.494  12.396  10.201 -0.0681 -0.0993  0.2171
  288loPI   C2A 4600  17.539  12.392   9.768  0.0151 -0.1374  0.1479
  288loPI   C3A 4601  17.469  12.421   9.312 -0.1324  0.0088  0.1055
  288loPI   C4A 4602  17.556  12.595   8.947  0.3825  0.2029  0.3017
  288loPI   C5A 4603  17.595  12.613   8.484  0.1203  0.1373  0.5055
  288loPI   C6A 4604  17.714  12.606   8.065 -0.2152 -0.2707 -0.0798
  288loPI   C1B 4605  17.709  12.014  10.026  0.1140 -0.1587  0.1198
  288loPI   C2B 4606  17.686  11.980   9.516  0.0984 -0.1488 -0.0520
  288loPI   C3B 4607  17.799  12.132   9.102 -0.3347  0.2504 -0.0449
  288loPI   C4B 4608  17.868  12.128   8.659  0.1594  0.2980  0.0079
  289loPI    C1 4609   2.178   1.300  11.037  0.2689 -0.0939  0.3203
  289loPI    C2 4610   2.249   1.614  10.800 -0.3248 -0.1788  0.0094
  289loPI    C3 4611   2.279   1.652  11.197 -0.1660  0.2043 -0.0344
  289loPI   PO4 4612   2.345   1.083  10.822  0.3180  0.1075  0.2294
  289loPI   GL1 4613   2.526   0.858  10.382  0.4980 -0.3531  0.4670
  289loPI   GL2 4614   2.434   0.985  10.078 -0.2916 -0.1436 -0.2915
  289loPI   C1A 4615   2.588   0.513  10.025 -0.2858  0.1304  0.2957
  289loPI   C2A 4616   2.730   0.484   9.569  0.0514  0.0363  0.2843
  289loPI   C3A 4617   2.721   0.383   9.100  0.0519 -0.0362  0.1750
  289loPI   C4A 4618   2.807   0.383   8.613 -0.0476  0.2502  0.1735
  289loPI   C5A 4619   2.631   0.175   8.159 -0.1810 -0.2393  0.4865
  289loPI   C6A 4620   2.299   0.070   7.878 -0.1959  0.1401 -0.2407
  289loPI   C1B 4621   2.453   0.946   9.663  0.0553  0.2395 -0.2773
  289loPI   C2B 4622   2.400   0.853   9.252  0.1194 -0.0574  0.2307
  289loPI   C3B 4623   2.546   0.744   8.774  0.2051 -0.2982 -0.1161
  289loPI   C4B 4624   2.623   0.884   8.429  0.0783  0.0422 -0.2031
  290loPI    C1 4625   5.137   9.461  11.254  0.2076 -0.2908  0.3338
  290loPI    C2 4626   4.800   9.553  11.448  0.0182 -0.2843  0.0084
  290loPI    C3 4627   5.142   9.512  11.650 -0.0659  0.2517  0.2774
  290loPI   PO4 4628   5.040   9.322  11.053  0.1164 -0.0885 -0.0788
  290loPI   GL1 4629   5.023   9.226  10.704  0.1944 -0.2528  0.2055
  290loPI   GL2 4630   4.780   9.099  10.661 -0.1758 -0.0633 -0.1189
  290loPI   C1A 4631   5.215   9.325  10.177  0.2164 -0.0569 -0.0699
  290loPI   C2A 4632   5.378   9.301   9.772 -0.1171 -0.0525  0.3192
  290loPI   C3A 4633   5.397   9.300   9.312  0.1545  0.2865 -0.2476
  290loPI   C4A 4634   5.495   9.405   8.905  0.1756  0.3569 -0.0585
  290loPI   C5A 4635   5.492   9.267   8.431  0.1403 -0.1695  0.3205
  290loPI   C6A 4636   5.336   8.973   8.072 -0.0582 -0.1800  0.2513
  290loPI   C1B 4637   4.715   9.142  10.162 -0.1490  0.1688 -0.0588
  290loPI   C2B 4638   4.831   9.199   9.728 -0.3213  0.0487  0.3327
  290loPI   C3B 4639   4.864   9.299   9.422 -0.1187 -0.0817 -0.2192
  290loPI   C4B 4640   4.894   9.374   9.012 -0.0701  0.0248  0.1638
  291loPI    C1 4641   3.073  17.332  11.287 -0.4070  0.0606 -0.1705
  291loPI    C2 4642   2.881  17.662  11.407  0.0063  0.2757 -0.0796
  291loPI    C3 4643   3.211  17.542  11.599  0.0828  0.0305 -0.3572
  291loPI   PO4 4644   3.141  17.359  11.040 -0.1619  0.1258 -0.0970
  291loPI   GL1 4645   2.984  17.433  10.524 -0.0804 -0.1839  0.0799
  291loPI   GL2 4646   2.647  17.306  10.646  0.0752 -0.4470 -0.0487
  291loPI   C1A 4647   3.107  17.366  10.094 -0.2955 -0.0261 -0.1644
  291loPI   C2A 4648   3.116  17.303   9.657 -0.0528 -0.0648 -0.1643
  291loPI   C3A 4649   3.189  17.336   9.146  0.1669  0.1183  0.1984
  291loPI   C4A 4650   3.271  17.214   8.688 -0.0544  0.1284  0.2882
  291loPI   C5A 4651   3.349  16.805   8.621  0.2562 -0.1643  0.0709
  291loPI   C6A 4652   3.188  16.407   8.516 -0.0376  0.2274  0.1111
  291loPI   C1B 4653   2.601  17.340  10.165 -0.1288 -0.0495 -0.2233
  291loPI   C2B 4654   2.626  17.235   9.756  0.0417  0.2469 -0.1025
  291loPI   C3B 4655   2.637  17.310   9.352 -0.0108 -0.0675  0.1207
  291loPI   C4B 4656   2.699  17.286   8.946  0.0113  0.2232 -0.3112
  292loPI    C1 4657   1.084  12.575  11.323  0.1874  0.0413 -0.0821
  292loPI    C2 4658   1.045  12.804  11.649  0.3615  0.0888 -0.0941
  292loPI    C3 4659   1.292  12.490  11.654  0.0467 -0.1625 -0.0439
  292loPI   PO4 4660   1.086  12.706  11.048 -0.0620 -0.0567 -0.3685
  292loPI   GL1 4661   1.251  12.752  10.643  0.3671 -0.1417  0.0047
  292loPI   GL2 4662   1.448  12.538  10.482  0.0032  0.1631  0.1014
  292loPI   C1A 4663   0.993  12.978  10.258 -0.2439 -0.0497 -0.0028
  292loPI   C2A 4664   1.145  13.065  10.000 -0.0988  0.0768  0.0385
  292loPI   C3A 4665   1.193  13.076   9.484  0.0449 -0.1099 -0.3107
  292loPI   C4A 4666   1.168  13.062   9.059  0.1223  0.1329 -0.3018
  292loPI   C5A 4667   1.262  13.171   8.625 -0.0875 -0.3442 -0.3942
  292loPI   C6A 4668   1.717  13.083   8.422  0.0969  0.2043  0.1462
  292loPI   C1B 4669   1.313  12.587  10.047 -0.0945  0.1657 -0.0713
  292loPI   C2B 4670   1.470  12.688   9.639 -0.0147 -0.2097  0.1826
  292loPI   C3B 4671   1.406  12.646   9.188  0.0009  0.1731 -0.0309
  292loPI   C4B 4672   1.469  12.666   8.692 -0.5070  0.2386 -0.0360
  293loPI    C1 4673  12.725   0.464  11.354  0.2069 -0.1005  0.1700
  293loPI    C2 4674  12.848   0.723  11.633  0.0784  0.0180  0.1174
  293loPI    C3 4675  13.111   0.479  11.457  0.1764  0.0124  0.2700
  293loPI   PO4 4676  12.649   0.642  11.117 -0.1068 -0.1230 -0.2060
  293loPI   GL1 4677  12.654   0.544  10.708  0.0130 -0.0873  0.3506
  293loPI   GL2 4678  12.804   0.291  10.544 -0.2249  0.4240  0.0764
  293loPI   C1A 4679  12.390   0.496  10.354 -0.0954 -0.4268  0.1098
  293loPI   C2A 4680  12.328   0.427   9.952 -0.1010 -0.0118 -0.0852
  293loPI   C3A 4681  12.246   0.346   9.504 -0.0199  0.1208 -0.2118
  293loPI   C4A 4682  12.233   0.283   9.062 -0.2070  0.1142 -0.1914
  293loPI   C5A 4683  12.195   0.169   8.646 -0.0028 -0.0208 -0.1063
  293loPI   C6A 4684  12.543  -0.032   8.349 -0.4317 -0.0795 -0.3829
  293loPI   C1B 4685  12.886   0.506  10.123  0.0641  0.1234 -0.1453
  293loPI   C2B 4686  12.782   0.470   9.660 -0.2315 -0.1742  0.2871
  293loPI   C3B 4687  12.724   0.348   9.312 -0.2194  0.1909 -0.0564
  293loPI   C4B 4688  12.718   0.269   8.936 -0.1042 -0.0264 -0.2040
  294loPI    C1 4689   8.878   9.723  11.095 -0.2332 -0.1881 -0.1888
  294loPI    C2 4690   8.562   9.968  11.096 -0.1673 -0.1014  0.0292
  294loPI    C3 4691   8.582   9.668  11.359 -0.1135 -0.1667 -0.0491
  294loPI   PO4 4692   8.964   9.683  10.824 -0.1457  0.0769 -0.2598
  294loPI   GL1 4693   8.968   9.612  10.470 -0.0598  0.4979  0.0158
  294loPI   GL2 4694   8.879   9.232  10.506  0.0453 -0.1466  0.0613
  294loPI   C1A 4695   8.970   9.645  10.069  0.0104 -0.2457  0.2444
  294loPI   C2A 4696   9.070   9.659   9.681 -0.1916  0.0882  0.0996
  294loPI   C3A 4697   9.118   9.680   9.185 -0.2339 -0.1273 -0.4809
  294loPI   C4A 4698   9.067   9.698   8.815  0.1820 -0.2234  0.2194
  294loPI   C5A 4699   8.891  10.013   8.546 -0.0413  0.1403 -0.0890
  294loPI   C6A 4700   8.866  10.416   8.436 -0.0659  0.1041 -0.1074
  294loPI   C1B 4701   8.867   9.131  10.070  0.0388 -0.0338  0.0166
  294loPI   C2B 4702   8.894   9.151   9.585 -0.0714 -0.2103  0.1984
  294loPI   C3B 4703   8.878   9.187   9.065 -0.1161 -0.0939  0.1344
  294loPI   C4B 4704   8.894   9.234   8.605 -0.2050 -0.0327  0.0048
  295loPI    C1 4705   7.443  15.365  11.044 -0.0935  0.0160 -0.0881
  295loPI    C2 4706   7.259  15.292  11.392  0.0375  0.1251  0.0053
  295loPI    C3 4707   7.432  15.647  11.328  0.0830  0.0772 -0.1410
  295loPI   PO4 4708   7.308  15.271  10.897  0.0160  0.0686 -0.2528
  295loPI   GL1 4709   7.336  15.174  10.503  0.3516  0.1809  0.2928
  295loPI   GL2 4710   7.547  14.859  10.528  0.4931  0.0204  0.2787
  295loPI   C1A 4711   7.011  14.889  10.277 -0.0360 -0.4068 -0.0713
  295loPI   C2A 4712   7.009  14.890   9.811 -0.0323  0.0083 -0.0107
  295loPI   C3A 4713   7.096  14.925   9.447 -0.0623  0.0301 -0.0797
  295loPI   C4A 4714   7.022  14.817   9.070 -0.1575 -0.4764 -0.0290
  295loPI   C5A 4715   7.050  14.694   8.636  0.1655  0.0291 -0.0987
  295loPI   C6A 4716   6.971  14.768   8.188 -0.1226  0.1102 -0.0819
  295loPI   C1B 4717   7.476  14.910  10.016  0.0702 -0.1872  0.0896
  295loPI   C2B 4718   7.545  15.010   9.582 -0.3862 -0.0345  0.4908
  295loPI   C3B 4719   7.574  14.847   9.122 -0.0085  0.0408 -0.1968
  295loPI   C4B 4720   7.483  14.879   8.695  0.1319  0.0584 -0.0724
  296loPI    C1 4721  11.629   0.495  11.170  0.1857  0.0526  0.0466
  296loPI    C2 4722  11.831   0.151  11.144 -0.0117 -0.0499 -0.1659
  296loPI    C3 4723  11.435   0.147  11.199 -0.0421  0.1401 -0.3568
  296loPI   PO4 4724  11.699   0.645  10.900  0.0290 -0.2362 -0.0908
  296loPI   GL1 4725  11.590   0.585  10.581  0.0204  0.0156 -0.1433
  296loPI   GL2 4726  11.462   0.840  10.434 -0.1240 -0.0986 -0.0609
  296loPI   C1A 4727  11.866   0.396  10.209 -0.1356  0.2078  0.3874
  296loPI   C2A 4728  11.807   0.338   9.730 -0.2645  0.0545 -0.2966
  296loPI   C3A 4729  11.742   0.368   9.278 -0.5851 -0.0751 -0.0387
  296loPI   C4A 4730  11.678   0.185   8.836  0.3839  0.1874  0.1040
  296loPI   C5A 4731  11.753   0.336   8.465 -0.2113 -0.1942 -0.2093
  296loPI   C6A 4732  11.902   0.044   8.116  0.1528 -0.1025  0.0944
  296loPI   C1B 4733  11.465   0.780   9.997 -0.0758 -0.0455  0.2880
  296loPI   C2B 4734  11.289   0.729   9.598  0.2169 -0.0249  0.3702
  296loPI   C3B 4735  11.407   0.723   9.092  0.4491 -0.0265 -0.0024
  296loPI   C4B 4736  11.449   0.645   8.599 -0.0853 -0.1462 -0.1410
  297loPI    C1 4737   5.101   4.721  10.620  0.1730 -0.1273  0.1695
  297loPI    C2 4738   5.362   5.023  10.608 -0.0180  0.0295 -0.1591
  297loPI    C3 4739   5.085   5.010  10.896  0.1084  0.0670 -0.0348
  297loPI   PO4 4740   5.178   4.567  10.502  0.0439  0.0721  0.0309
  297loPI   GL1 4741   5.455   4.404  10.170  0.0832 -0.2773  0.0066
  297loPI   GL2 4742   5.217   4.693   9.999  0.0759  0.0064 -0.0688
  297loPI   C1A 4743   5.544   4.360   9.724  0.0367  0.0465 -0.2667
  297loPI   C2A 4744   5.663   4.456   9.241  0.0435  0.0222  0.1308
  297loPI   C3A 4745   5.646   4.467   8.878 -0.3874 -0.0415 -0.2773
  297loPI   C4A 4746   5.748   4.407   8.434 -0.1323  0.0140  0.2127
  297loPI   C5A 4747   5.919   4.460   7.950 -0.1213  0.1208  0.0072
  297loPI   C6A 4748   6.011   4.471   7.557 -0.2435 -0.3464  0.0197
  297loPI   C1B 4749   5.343   4.724   9.484 -0.1464 -0.1641 -0.1395
  297loPI   C2B 4750   5.363   4.867   9.052 -0.0085 -0.0170 -0.4075
  297loPI   C3B 4751   5.552   4.911   8.633  0.1872  0.0028 -0.2519
  297loPI   C4B 4752   5.709   4.853   8.175  0.2340 -0.1581  0.0466
  298loPI    C1 4753  11.984  15.095  10.862 -0.1071  0.1125  0.2974
  298loPI    C2 4754  11.975  14.972  11.243  0.0817  0.2641  0.3522
  298loPI    C3 4755  12.273  15.206  11.115  0.1375  0.0371  0.0560
  298loPI   PO4 4756  11.770  15.061  10.790  0.3426 -0.0986  0.0823
  298loPI   GL1 4757  11.602  14.906  10.442 -0.0325 -0.2716  0.3406
  298loPI   GL2 4758  11.960  14.789  10.444  0.1959 -0.0359 -0.1360
  298loPI   C1A 4759  11.427  14.815   9.966 -0.0680  0.1498 -0.4807
  298loPI   C2A 4760  11.505  14.694   9.611 -0.0810  0.1895  0.0829
  298loPI   C3A 4761  11.481  14.826   9.191  0.1982  0.2891  0.0907
  298loPI   C4A 4762  11.440  14.968   8.748 -0.0365  0.2200  0.4776
  298loPI   C5A 4763  11.267  15.072   8.324  0.2800 -0.0837  0.0474
  298loPI   C6A 4764  11.162  15.082   7.813  0.1721 -0.0095  0.0007
  298loPI   C1B 4765  11.957  14.814  10.037 -0.1454  0.0506 -0.1870
  298loPI   C2B 4766  12.105  14.735   9.609  0.0990 -0.1033 -0.1697
  298loPI   C3B 4767  12.011  14.866   9.230 -0.0678 -0.1366  0.1658
  298loPI   C4B 4768  11.990  15.005   8.755 -0.2393 -0.1561 -0.1071
  299loPI    C1 4769  15.535  15.298  10.877 -0.0245  0.1988 -0.2236
  299loPI    C2 4770  15.839  15.130  11.075 -0.0668 -0.0516 -0.3664
  299loPI    C3 4771  15.819  15.528  11.038  0.1634 -0.0259 -0.2297
  299loPI   PO4 4772  15.579  15.142  10.635 -0.0324 -0.1707 -0.1126
  299loPI   GL1 4773  15.794  15.260  10.331  0.1212  0.1225  0.1903
  299loPI   GL2 4774  15.695  15.061   9.981 -0.0202 -0.3799 -0.1416
  299loPI   C1A 4775  15.839  15.543  10.000 -0.2744  0.0902  0.0177
  299loPI   C2A 4776  15.826  15.602   9.566  0.0054  0.1303 -0.2853
  299loPI   C3A 4777  15.846  15.467   9.204 -0.0675 -0.3636 -0.0632
  299loPI   C4A 4778  15.903  15.380   8.784  0.1000 -0.0386  0.2733
  299loPI   C5A 4779  16.185  15.393   8.372  0.2453  0.1310 -0.1626
  299loPI   C6A 4780  16.336  15.700   8.092  0.0654  0.1479 -0.0066
  299loPI   C1B 4781  15.651  15.111   9.631 -0.1579  0.3645 -0.2153
  299loPI   C2B 4782  15.718  14.924   9.284 -0.0313  0.0245 -0.0802
  299loPI   C3B 4783  15.700  14.976   8.883 -0.0131  0.0300 -0.5604
  299loPI   C4B 4784  15.973  14.917   8.449 -0.0593  0.0073  0.0667
  300loPI    C1 4785   8.083   6.266  10.985 -0.1574 -0.2139 -0.0472
  300loPI    C2 4786   8.368   6.012  11.105  0.1675  0.1886  0.0565
  300loPI    C3 4787   8.264   6.320  11.338 -0.3300  0.0715  0.0012
  300loPI   PO4 4788   8.166   6.393  10.778 -0.1112 -0.0175  0.0960
  300loPI   GL1 4789   7.955   6.471  10.402 -0.0916 -0.0253  0.2841
  300loPI   GL2 4790   8.197   6.727  10.343  0.3319 -0.2003 -0.4096
  300loPI   C1A 4791   7.956   6.258   9.918 -0.2896 -0.1297 -0.0997
  300loPI   C2A 4792   7.957   6.279   9.469 -0.1855  0.1737 -0.1074
  300loPI   C3A 4793   7.917   6.419   9.042  0.1986  0.1414  0.1342
  300loPI   C4A 4794   7.882   6.398   8.494 -0.0529 -0.1099  0.0194
  300loPI   C5A 4795   8.033   6.718   8.182 -0.0185  0.2495 -0.1355
  300loPI   C6A 4796   8.360   6.789   7.918  0.1611 -0.2558 -0.1580
  300loPI   C1B 4797   8.157   6.847   9.948 -0.1312  0.1503 -0.0444
  300loPI   C2B 4798   8.221   6.801   9.540 -0.0086 -0.0462  0.2938
  300loPI   C3B 4799   8.177   6.789   9.097  0.2380  0.2097 -0.0138
  300loPI   C4B 4800   8.113   6.951   8.709  0.2128 -0.1563  0.1993
  301loPI    C1 4801   1.550   5.029   9.959 -0.2186  0.0833 -0.0048
  301loPI    C2 4802   1.398   4.660   9.928 -0.1814  0.0659  0.0184
  301loPI    C3 4803   1.732   4.722  10.140 -0.0909  0.0853 -0.1285
  301loPI   PO4 4804   1.541   5.177   9.666 -0.0024  0.0819  0.2985
  301loPI   GL1 4805   1.619   5.234   9.284 -0.0240 -0.0287 -0.1562
  301loPI   GL2 4806   1.149   5.300   9.318  0.0090  0.0117 -0.1858
  301loPI   C1A 4807   2.024   5.115   9.035  0.0297  0.0233 -0.0567
  301loPI   C2A 4808   2.121   5.147   8.535 -0.1480  0.1894 -0.1839
  301loPI   C3A 4809   1.999   5.252   8.258 -0.1537  0.0149  0.1064
  301loPI   C4A 4810   1.970   5.186   7.903 -0.1888  0.1407 -0.3163
  301loPI   C5A 4811   1.897   5.159   7.526  0.2092  0.0099 -0.1794
  301loPI   C6A 4812   1.799   5.014   7.196  0.1756  0.0504  0.0918
  301loPI   C1B 4813   1.134   5.375   8.860 -0.1581  0.2281  0.0371
  301loPI   C2B 4814   1.177   5.445   8.471  0.2531 -0.1140 -0.1009
  301loPI   C3B 4815   1.247   5.759   8.123 -0.1033  0.2147  0.1181
  301loPI   C4B 4816   1.220   6.103   7.924 -0.0188 -0.1704 -0.1868
  302loPI    C1 4817   7.851  14.287  11.080 -0.0381 -0.0156 -0.0212
  302loPI    C2 4818   7.906  14.647  11.246  0.0660 -0.0401 -0.0023
  302loPI    C3 4819   7.652  14.387  11.412  0.0480 -0.0038  0.0271
  302loPI   PO4 4820   7.823  14.368  10.866 -0.3051  0.3878 -0.0953
  302loPI   GL1 4821   7.895  14.334  10.462  0.1335  0.0871 -0.0398
  302loPI   GL2 4822   8.178  14.258  10.494 -0.2041 -0.2247  0.0391
  302loPI   C1A 4823   7.759  14.518  10.083 -0.0253  0.1313  0.1596
  302loPI   C2A 4824   7.829  14.622   9.660  0.3656  0.1950 -0.3048
  302loPI   C3A 4825   7.928  14.452   9.228  0.1437 -0.1387 -0.0809
  302loPI   C4A 4826   7.824  14.474   8.750  0.3125 -0.2815  0.2558
  302loPI   C5A 4827   7.920  14.674   8.390  0.0223 -0.1717 -0.0029
  302loPI   C6A 4828   8.211  14.965   8.202 -0.2179 -0.0915 -0.2270
  302loPI   C1B 4829   8.111  14.066  10.084 -0.2201  0.0212  0.1991
  302loPI   C2B 4830   8.075  14.090   9.577 -0.0839 -0.4195 -0.0114
  302loPI   C3B 4831   8.138  14.009   9.042  0.3529 -0.3582 -0.2624
  302loPI   C4B 4832   8.130  13.974   8.598 -0.1315  0.0320  0.0372
  303loPI    C1 4833   6.134  13.708  11.269  0.1174  0.1228 -0.0125
  303loPI    C2 4834   6.457  13.550  11.443  0.0433 -0.0614 -0.0395
  303loPI    C3 4835   6.301  13.892  11.582 -0.0339 -0.2219  0.2772
  303loPI   PO4 4836   6.170  13.656  10.999  0.0336  0.2006  0.2951
  303loPI   GL1 4837   6.111  13.492  10.605  0.0881 -0.0648 -0.0318
  303loPI   GL2 4838   6.437  13.543  10.585 -0.3162 -0.1547  0.1251
  303loPI   C1A 4839   5.824  13.531  10.324 -0.1336  0.4422  0.2130
  303loPI   C2A 4840   5.773  13.489   9.982 -0.5045 -0.2813  0.3625
  303loPI   C3A 4841   5.819  13.490   9.506  0.0227  0.1650 -0.1665
  303loPI   C4A 4842   5.826  13.442   9.072 -0.1044  0.0914  0.3442
  303loPI   C5A 4843   5.928  13.556   8.711  0.3837 -0.0173 -0.0851
  303loPI   C6A 4844   6.082  13.907   8.428 -0.2070 -0.1987 -0.1768
  303loPI   C1B 4845   6.331  13.539  10.116  0.2470  0.2355  0.3198
  303loPI   C2B 4846   6.347  13.504   9.723 -0.0087 -0.1413  0.1568
  303loPI   C3B 4847   6.332  13.446   9.351 -0.1485  0.1506  0.0621
  303loPI   C4B 4848   6.338  13.471   8.975  0.3243 -0.1003  0.2801
  304loPI    C1 4849  17.870   3.855   9.947  0.2561  0.2306 -0.1639
  304loPI    C2 4850  18.090   3.982  10.256 -0.0074  0.0329  0.1117
  304loPI    C3 4851  17.921   3.619  10.266  0.0433 -0.0077 -0.3008
  304loPI   PO4 4852  18.031   3.950   9.695 -0.1788  0.1619  0.0726
  304loPI   GL1 4853  17.886   3.893   9.206 -0.0409  0.1024 -0.0618
  304loPI   GL2 4854  17.560   3.804   9.208 -0.1326  0.0164  0.2977
  304loPI   C1A 4855  18.081   4.039   8.802  0.2987  0.1584  0.4574
  304loPI   C2A 4856  18.039   3.919   8.360  0.2908 -0.2085 -0.0678
  304loPI   C3A 4857  18.140   4.044   7.952 -0.2813  0.1114 -0.2699
  304loPI   C4A 4858  17.970   4.393   7.805 -0.1014 -0.0704 -0.1691
  304loPI   C5A 4859  18.110   4.713   7.586  0.2721  0.2400 -0.0592
  304loPI   C6A 4860  17.996   5.030   7.298  0.1089  0.2061 -0.3770
  304loPI   C1B 4861  17.643   3.727   8.835 -0.0963  0.1475 -0.2130
  304loPI   C2B 4862  17.623   3.716   8.495 -0.0130 -0.0553  0.0653
  304loPI   C3B 4863  17.745   3.668   8.114 -0.1339 -0.3232  0.2252
  304loPI   C4B 4864  17.813   3.515   7.753  0.0122 -0.0384 -0.2939
  305loPI    C1 4865  14.079  15.777  10.888  0.1462 -0.1410 -0.0892
  305loPI    C2 4866  14.243  15.878  11.239  0.2581 -0.0033 -0.1799
  305loPI    C3 4867  13.954  15.602  11.225  0.0585  0.1892  0.0540
  305loPI   PO4 4868  14.229  15.733  10.731  0.1979  0.0318  0.1740
  305loPI   GL1 4869  14.047  15.678  10.345  0.2537 -0.2396  0.0177
  305loPI   GL2 4870  14.084  15.897  10.057 -0.3772 -0.2257 -0.2924
  305loPI   C1A 4871  14.314  15.445  10.020  0.0595  0.0012 -0.0017
  305loPI   C2A 4872  14.425  15.368   9.581 -0.0478 -0.0622  0.1209
  305loPI   C3A 4873  14.343  15.490   9.196 -0.0070 -0.0359 -0.1472
  305loPI   C4A 4874  14.463  15.297   8.876  0.0349 -0.4020  0.0379
  305loPI   C5A 4875  14.448  15.158   8.478 -0.0276 -0.1477 -0.1081
  305loPI   C6A 4876  14.524  15.321   8.048  0.1536  0.0008  0.0106
  305loPI   C1B 4877  14.039  15.916   9.651  0.0913  0.1930  0.0792
  305loPI   C2B 4878  14.049  15.904   9.199  0.4554 -0.0934  0.1634
  305loPI   C3B 4879  14.148  15.843   8.823 -0.2222  0.1645 -0.1217
  305loPI   C4B 4880  14.232  15.606   8.505  0.0627 -0.1486  0.0970
  306loPI    C1 4881  16.195  14.411  10.915 -0.0144  0.3165  0.0702
  306loPI    C2 4882  15.862  14.604  11.023 -0.3618 -0.2077 -0.0244
  306loPI    C3 4883  15.938  14.238  11.167  0.2024 -0.0799  0.0290
  306loPI   PO4 4884  16.200  14.430  10.648 -0.3458 -0.1495  0.2006
  306loPI   GL1 4885  15.948  14.233  10.354  0.2227  0.1345  0.1055
  306loPI   GL2 4886  16.015  14.552  10.191  0.1051  0.0823 -0.2067
  306loPI   C1A 4887  15.743  14.153   9.964  0.1476 -0.0065  0.0408
  306loPI   C2A 4888  15.824  14.090   9.579 -0.0704 -0.0502 -0.2194
  306loPI   C3A 4889  15.797  13.993   9.146 -0.2968  0.2534  0.1146
  306loPI   C4A 4890  15.782  13.988   8.819  0.2641 -0.1213  0.0130
  306loPI   C5A 4891  15.808  14.010   8.380 -0.3667  0.0126 -0.2480
  306loPI   C6A 4892  16.041  13.995   8.153 -0.2517 -0.0581  0.1157
  306loPI   C1B 4893  16.036  14.499   9.749  0.1685 -0.2683 -0.0607
  306loPI   C2B 4894  15.927  14.502   9.332 -0.2828 -0.1053 -0.1976
  306loPI   C3B 4895  16.029  14.537   8.902  0.0547 -0.1465 -0.1898
  306loPI   C4B 4896  15.993  14.439   8.551  0.0733 -0.2034  0.4071
  307loPI    C1 4897   7.280   5.911  11.214  0.0207  0.1931  0.0218
  307loPI    C2 4898   6.942   5.700  11.243  0.1863 -0.0882 -0.0557
  307loPI    C3 4899   7.118   5.841  11.573 -0.0493  0.1325 -0.0213
  307loPI   PO4 4900   7.244   6.034  10.975  0.0692  0.1328  0.1363
  307loPI   GL1 4901   7.195   6.270  10.557 -0.0105  0.0396 -0.1123
  307loPI   GL2 4902   7.135   5.945  10.510  0.0474 -0.0192 -0.1840
  307loPI   C1A 4903   7.396   6.347  10.163 -0.1782  0.0533 -0.2924
  307loPI   C2A 4904   7.455   6.273   9.719 -0.0571  0.1348 -0.3776
  307loPI   C3A 4905   7.459   6.373   9.236  0.0547 -0.0988 -0.2916
  307loPI   C4A 4906   7.460   6.408   8.780 -0.2374 -0.3362 -0.2087
  307loPI   C5A 4907   7.356   6.307   8.398  0.2413  0.0283 -0.0701
  307loPI   C6A 4908   7.039   6.007   8.263  0.2777 -0.0450  0.1950
  307loPI   C1B 4909   7.230   5.892  10.092 -0.0441  0.3312  0.1159
  307loPI   C2B 4910   7.187   5.801   9.628  0.0951  0.0277 -0.4412
  307loPI   C3B 4911   7.290   5.919   9.129 -0.0209 -0.1210 -0.1616
  307loPI   C4B 4912   7.315   5.852   8.659 -0.0099  0.0604  0.5054
  308loPI    C1 4913   8.760   7.805  11.149  0.0302 -0.1192 -0.0226
  308loPI    C2 4914   8.679   7.453  11.320  0.1808 -0.0628  0.1683
  308loPI    C3 4915   8.397   7.737  11.303  0.0176 -0.2368 -0.1033
  308loPI   PO4 4916   8.785   7.807  10.926  0.1132 -0.2168 -0.4794
  308loPI   GL1 4917   8.916   7.584  10.532  0.0062 -0.2760  0.0967
  308loPI   GL2 4918   8.641   7.689  10.411 -0.0545 -0.1232 -0.1323
  308loPI   C1A 4919   9.180   7.744  10.200 -0.0856  0.0833  0.0156
  308loPI   C2A 4920   9.175   7.821   9.763  0.0216 -0.0945 -0.2288
  308loPI   C3A 4921   9.209   7.816   9.396  0.2884 -0.1089  0.0469
  308loPI   C4A 4922   9.201   7.858   8.968  0.3247 -0.1863  0.3596
  308loPI   C5A 4923   9.092   7.754   8.633 -0.1776 -0.4222 -0.2701
  308loPI   C6A 4924   9.231   7.873   8.239 -0.0296  0.0574 -0.1670
  308loPI   C1B 4925   8.635   7.718   9.930 -0.4282  0.0579  0.0043
  308loPI   C2B 4926   8.701   7.790   9.498 -0.2198  0.0107 -0.0085
  308loPI   C3B 4927   8.579   7.853   9.025  0.1590  0.0108 -0.4172
  308loPI   C4B 4928   8.602   7.881   8.549  0.2954 -0.0613 -0.0363
  309loPI    C1 4929  12.672  13.574  11.002  0.2278 -0.1961 -0.2052
  309loPI    C2 4930  12.354  13.338  11.058  0.1426 -0.0565 -0.0947
  309loPI    C3 4931  12.309  13.700  10.895  0.1659  0.1742  0.3934
  309loPI   PO4 4932  12.902  13.509  10.755  0.2580  0.1527 -0.0964
  309loPI   GL1 4933  12.817  13.272  10.430  0.2386 -0.0454  0.1471
  309loPI   GL2 4934  13.025  13.540  10.263 -0.0305 -0.0441 -0.0922
  309loPI   C1A 4935  12.736  13.070  10.101  0.0118  0.4468  0.0425
  309loPI   C2A 4936  12.639  13.122   9.697  0.2980  0.0236 -0.1472
  309loPI   C3A 4937  12.628  13.023   9.235 -0.1042 -0.2188  0.0067
  309loPI   C4A 4938  12.657  13.141   8.777 -0.1732 -0.1361 -0.2803
  309loPI   C5A 4939  12.904  13.108   8.370  0.0349  0.0015  0.1565
  309loPI   C6A 4940  13.259  13.361   8.181 -0.4306 -0.3573  0.0924
  309loPI   C1B 4941  12.966  13.534   9.886 -0.0323 -0.1654  0.0434
  309loPI   C2B 4942  12.903  13.440   9.398 -0.0919  0.0931 -0.3322
  309loPI   C3B 4943  12.975  13.460   8.946 -0.2806  0.1605 -0.2396
  309loPI   C4B 4944  13.114  13.590   8.580  0.3088 -0.3408 -0.0044
  310loPI    C1 4945   7.977  12.975  11.362  0.4223 -0.1067 -0.0427
  310loPI    C2 4946   8.044  13.367  11.405 -0.1109 -0.0129 -0.0032
  310loPI    C3 4947   7.712  13.203  11.556 -0.0075 -0.4388 -0.2232
  310loPI   PO4 4948   7.927  12.940  11.119  0.0193  0.7321 -0.1113
  310loPI   GL1 4949   7.819  12.746  10.729  0.0178 -0.1706 -0.2643
  310loPI   GL2 4950   8.229  12.772  10.766 -0.0755 -0.2059 -0.0555
  310loPI   C1A 4951   7.865  12.592  10.362 -0.1398  0.5302 -0.0727
  310loPI   C2A 4952   7.999  12.595   9.973 -0.2999 -0.0792 -0.1296
  310loPI   C3A 4953   8.018  12.623   9.509 -0.3775 -0.3030 -0.2033
  310loPI   C4A 4954   8.081  12.582   9.016  0.0795 -0.2311 -0.1659
  310loPI   C5A 4955   8.129  12.778   8.716 -0.1301  0.0951 -0.0916
  310loPI   C6A 4956   7.935  12.741   8.308 -0.0737  0.0613  0.1780
  310loPI   C1B 4957   8.430  12.623  10.440 -0.0508  0.0529  0.2140
  310loPI   C2B 4958   8.538  12.657  10.040  0.0963  0.1774  0.2697
  310loPI   C3B 4959   8.520  12.752   9.625 -0.1309 -0.3350 -0.2843
  310loPI   C4B 4960   8.571  12.715   9.253 -0.0188  0.3673 -0.0980
  311loPI    C1 4961   1.780   0.355  11.013  0.0713 -0.1190 -0.1753
  311loPI    C2 4962   1.887   0.277  11.390  0.1442 -0.1793 -0.2082
  311loPI    C3 4963   1.573   0.089  11.228 -0.1526  0.1580 -0.0406
  311loPI   PO4 4964   2.007   0.246  10.888  0.1879 -0.1221 -0.1858
  311loPI   GL1 4965   2.143   0.282  10.387  0.0165  0.0744 -0.3078
  311loPI   GL2 4966   2.403   0.270  10.381 -0.1064 -0.1439  0.2132
  311loPI   C1A 4967   2.001  -0.045   9.957 -0.0364 -0.0223  0.3227
  311loPI   C2A 4968   2.000  -0.046   9.484  0.2140 -0.1601  0.1814
  311loPI   C3A 4969   2.032  -0.108   9.077  0.0482  0.1514  0.0003
  311loPI   C4A 4970   2.010  -0.141   8.728 -0.2503  0.5107 -0.3978
  311loPI   C5A 4971   2.326  -0.192   8.362  0.4309 -0.1727  0.0920
  311loPI   C6A 4972   2.680  -0.305   8.081 -0.3135 -0.1502 -0.0946
  311loPI   C1B 4973   2.441   0.027  10.048  0.3378  0.1984  0.0893
  311loPI   C2B 4974   2.509   0.026   9.598 -0.0579  0.0531  0.1125
  311loPI   C3B 4975   2.595  -0.022   9.215 -0.0425  0.1342  0.1649
  311loPI   C4B 4976   2.548  -0.041   8.799 -0.1068 -0.2543  0.1589
  312loPI    C1 4977   6.406  10.032  11.403 -0.0999  0.1158  0.0748
  312loPI    C2 4978   6.695  10.039  11.680 -0.0207  0.3023 -0.0106
  312loPI    C3 4979   6.326   9.918  11.778  0.1378 -0.1511  0.0471
  312loPI   PO4 4980   6.438   9.817  11.117 -0.0008  0.0548  0.0057
  312loPI   GL1 4981   6.450  10.004  10.690 -0.0779 -0.3233 -0.3738
  312loPI   GL2 4982   6.124  10.012  10.645 -0.0521  0.1561  0.3317
  312loPI   C1A 4983   6.530   9.908  10.228 -0.0119  0.0830 -0.0711
  312loPI   C2A 4984   6.582   9.857   9.853 -0.2018 -0.0609 -0.0317
  312loPI   C3A 4985   6.636   9.883   9.419  0.1550 -0.3075 -0.3968
  312loPI   C4A 4986   6.648   9.892   9.085  0.0434  0.0137  0.3225
  312loPI   C5A 4987   6.789   9.967   8.675  0.1027  0.1556  0.3282
  312loPI   C6A 4988   7.138  10.075   8.386  0.0580 -0.1526 -0.1153
  312loPI   C1B 4989   5.979   9.873  10.200  0.0018 -0.7067 -0.1920
  312loPI   C2B 4990   6.074   9.906   9.724 -0.1765 -0.0688 -0.1387
  312loPI   C3B 4991   6.151   9.890   9.257  0.1226  0.1829 -0.2398
  312loPI   C4B 4992   6.216   9.945   8.818 -0.4956  0.3151 -0.4067
  313loPI    C1 4993   2.428  15.743  10.894  0.0831  0.2583  0.1038
  313loPI    C2 4994   2.357  15.964  11.220 -0.1061  0.3425  0.0070
  313loPI    C3 4995   2.147  15.630  11.155  0.2262  0.0922  0.1880
  313loPI   PO4 4996   2.656  15.760  10.907  0.1665 -0.0329  0.1550
  313loPI   GL1 4997   2.762  15.950  10.558 -0.1118  0.0043  0.1031
  313loPI   GL2 4998   2.922  15.812  10.411 -0.1065  0.3139 -0.1957
  313loPI   C1A 4999   2.453  15.910  10.265  0.0626  0.1271 -0.2345
  313loPI   C2A 5000   2.320  15.884   9.919  0.0971 -0.3834  0.3280
  313loPI   C3A 5001   2.380  15.810   9.596 -0.1834  0.1814  0.0271
  313loPI   C4A 5002   2.349  15.856   9.060 -0.0217  0.0834  0.2847
  313loPI   C5A 5003   2.449  15.775   8.666  0.0493 -0.1534  0.2290
  313loPI   C6A 5004   2.366  15.662   8.092 -0.0377 -0.0640 -0.1054
  313loPI   C1B 5005   2.904  15.931  10.007  0.1513 -0.0522 -0.0133
  313loPI   C2B 5006   2.867  15.936   9.635 -0.2266 -0.2341  0.0717
  313loPI   C3B 5007   2.934  15.903   9.228  0.0458  0.2906  0.3453
  313loPI   C4B 5008   3.044  15.990   8.835 -0.3399  0.1168  0.3003
  314loPI    C1 5009   1.045   6.235  10.456 -0.1667 -0.1024 -0.0174
  314loPI    C2 5010   1.104   6.579  10.651 -0.0529 -0.1571  0.0458
  314loPI    C3 5011   1.053   6.239  10.856  0.1902 -0.2349 -0.0197
  314loPI   PO4 5012   1.219   6.344  10.216  0.2452  0.1257 -0.0190
  314loPI   GL1 5013   1.258   6.322   9.753  0.0420 -0.0613  0.1908
  314loPI   GL2 5014   1.108   6.635   9.671 -0.0232 -0.1849 -0.1345
  314loPI   C1A 5015   1.160   6.247   9.261  0.0624  0.0099 -0.1966
  314loPI   C2A 5016   1.088   6.296   8.825  0.1235  0.3022  0.1798
  314loPI   C3A 5017   1.069   6.425   8.403  0.1475  0.1189 -0.1487
  314loPI   C4A 5018   0.936   6.489   7.971  0.0709 -0.0500  0.1648
  314loPI   C5A 5019   0.906   6.696   7.632 -0.3736  0.0713 -0.2231
  314loPI   C6A 5020   0.574   6.888   7.401 -0.4437 -0.0446  0.1853
  314loPI   C1B 5021   0.808   6.621   9.251 -0.1215 -0.2586 -0.1898
  314loPI   C2B 5022   0.751   6.722   8.828  0.0974  0.0035  0.2091
  314loPI   C3B 5023   0.867   6.981   8.565  0.1303 -0.0280  0.0394
  314loPI   C4B 5024   1.078   6.910   8.126  0.0005 -0.0705  0.0361
  315loPI    C1 5025   1.642   7.520  10.244  0.0444  0.0450 -0.2218
  315loPI    C2 5026   1.565   7.444  10.629  0.2869 -0.1825 -0.2149
  315loPI    C3 5027   1.791   7.759  10.528  0.0687 -0.0137 -0.1851
  315loPI   PO4 5028   1.427   7.382  10.160 -0.0312  0.1148  0.0625
  315loPI   GL1 5029   1.052   7.552   9.916 -0.0671  0.1529 -0.1375
  315loPI   GL2 5030   0.766   7.779   9.820 -0.0281  0.0432  0.0707
  315loPI   C1A 5031   1.254   7.879   9.631  0.0020 -0.2673 -0.2194
  315loPI   C2A 5032   1.285   8.159   9.249 -0.2451  0.0394 -0.1468
  315loPI   C3A 5033   1.330   8.112   8.862 -0.1298  0.0259 -0.1136
  315loPI   C4A 5034   1.444   8.086   8.549  0.4220  0.0449  0.3236
  315loPI   C5A 5035   1.320   8.313   8.251 -0.1221 -0.1842 -0.0595
  315loPI   C6A 5036   1.379   8.564   7.907 -0.0979  0.1178  0.0905
  315loPI   C1B 5037   0.756   8.015   9.502  0.0272 -0.1255  0.3590
  315loPI   C2B 5038   0.842   8.078   9.011  0.0415 -0.1826 -0.2567
  315loPI   C3B 5039   0.880   8.078   8.640  0.0857 -0.0925  0.0877
  315loPI   C4B 5040   0.963   7.959   8.090 -0.0391 -0.1347 -0.1307
  316loPI    C1 5041   1.669  17.562  10.791  0.1078  0.0318 -0.2911
  316loPI    C2 5042   1.816  17.834  11.045  0.2522 -0.1865 -0.1361
  316loPI    C3 5043   1.799  17.450  11.153 -0.2808 -0.1934 -0.2159
  316loPI   PO4 5044   1.662  17.625  10.551 -0.1252 -0.0490  0.1456
  316loPI   GL1 5045   1.715  17.717  10.122 -0.1883 -0.1138  0.2288
  316loPI   GL2 5046   1.375  17.692  10.082  0.0575  0.1009  0.0183
  316loPI   C1A 5047   1.785  17.650   9.767  0.0490 -0.0110  0.1465
  316loPI   C2A 5048   1.876  17.685   9.337  0.2251  0.1121 -0.0120
  316loPI   C3A 5049   1.938  17.546   8.825  0.0177 -0.0949 -0.1841
  316loPI   C4A 5050   2.014  17.547   8.460 -0.0066  0.0773 -0.1072
  316loPI   C5A 5051   2.359  17.378   8.188 -0.3775 -0.2592  0.2891
  316loPI   C6A 5052   2.205  17.020   8.111 -0.1460 -0.1954  0.2042
  316loPI   C1B 5053   1.154  17.664   9.723 -0.1567 -0.0114 -0.2575
  316loPI   C2B 5054   1.241  17.572   9.222  0.2930  0.3950 -0.0416
  316loPI   C3B 5055   1.373  17.590   8.744 -0.1338  0.0542 -0.1033
  316loPI   C4B 5056   1.101  17.542   8.402  0.0749  0.0872  0.3139
  317loPI    C1 5057  13.587  18.039  11.026 -0.2681 -0.1138  0.0618
  317loPI    C2 5058  13.803  17.911  11.337 -0.1482  0.0099  0.0310
  317loPI    C3 5059  13.515  17.679  11.184  0.0117 -0.1881  0.0259
  317loPI   PO4 5060  13.890  17.984  10.849 -0.1496 -0.0811 -0.1250
  317loPI   GL1 5061  14.012  17.878  10.459  0.2151 -0.1259 -0.2643
  317loPI   GL2 5062  13.656  18.172  10.472 -0.1979  0.2608 -0.0449
  317loPI   C1A 5063  13.927  17.885  10.010 -0.2586  0.0471 -0.2064
  317loPI   C2A 5064  13.902  17.705   9.547 -0.2750 -0.1727  0.1324
  317loPI   C3A 5065  13.958  17.661   9.116 -0.1385  0.0326 -0.2057
  317loPI   C4A 5066  13.915  17.671   8.718 -0.1522  0.2415 -0.1118
  317loPI   C5A 5067  13.861  17.798   8.280 -0.0100  0.0628 -0.3927
  317loPI   C6A 5068  13.856  18.190   7.871  0.0488 -0.1939 -0.1953
  317loPI   C1B 5069  13.702  18.357  10.043 -0.0339 -0.1262 -0.2721
  317loPI   C2B 5070  13.604  18.271   9.571 -0.1327  0.0243 -0.1078
  317loPI   C3B 5071  13.617  18.067   9.191 -0.1024  0.1046  0.0100
  317loPI   C4B 5072  13.568  18.119   8.753  0.1089  0.2132  0.0284
  318loPI    C1 5073   9.908  11.700  11.325 -0.1300  0.1349 -0.1883
  318loPI    C2 5074  10.066  11.714  11.693  0.1925 -0.2548 -0.3046
  318loPI    C3 5075   9.885  12.037  11.540  0.1103 -0.0693  0.1679
  318loPI   PO4 5076  10.184  11.558  11.220  0.2830 -0.0580 -0.1605
  318loPI   GL1 5077  10.209  11.488  10.803  0.0004  0.3773  0.4111
  318loPI   GL2 5078   9.993  11.704  10.723  0.1608  0.0655  0.1495
  318loPI   C1A 5079  10.508  11.554  10.350 -0.1744  0.2731 -0.0585
  318loPI   C2A 5080  10.383  11.524  10.010 -0.0242  0.0443 -0.0214
  318loPI   C3A 5081  10.408  11.545   9.635  0.1687 -0.1432  0.0098
  318loPI   C4A 5082  10.496  11.543   9.225 -0.2854  0.2461 -0.2269
  318loPI   C5A 5083  10.535  11.492   8.753 -0.0286 -0.0357 -0.2545
  318loPI   C6A 5084  10.480  11.461   8.353  0.1946  0.0194  0.0144
  318loPI   C1B 5085  10.158  11.927  10.392  0.1909 -0.0229  0.1852
  318loPI   C2B 5086  10.133  12.004   9.976  0.0564  0.0598 -0.6820
  318loPI   C3B 5087  10.185  11.972   9.456  0.2835 -0.1912  0.2114
  318loPI   C4B 5088  10.157  11.996   8.968  0.0612  0.0795 -0.1210
  319loPI    C1 5089   3.227  17.992  11.337 -0.0153  0.1793 -0.0010
  319loPI    C2 5090   3.428  18.328  11.417  0.1551  0.1370 -0.2399
  319loPI    C3 5091   3.501  17.995  11.627  0.2380  0.1575 -0.2355
  319loPI   PO4 5092   3.310  17.943  11.085 -0.1377  0.2446 -0.2233
  319loPI   GL1 5093   3.555  17.830  10.748 -0.0964  0.1770 -0.1245
  319loPI   GL2 5094   3.459  17.591  10.717 -0.3126  0.2157 -0.2061
  319loPI   C1A 5095   3.310  17.888  10.385 -0.0708 -0.0855  0.2920
  319loPI   C2A 5096   3.299  17.834   9.915 -0.0444  0.0320 -0.0696
  319loPI   C3A 5097   3.374  17.802   9.515  0.1131  0.1095  0.3873
  319loPI   C4A 5098   3.413  17.779   9.071 -0.0974  0.0497  0.3512
  319loPI   C5A 5099   3.352  17.714   8.596 -0.0976 -0.1191  0.0606
  319loPI   C6A 5100   3.209  17.629   8.215 -0.2865 -0.1499  0.0779
  319loPI   C1B 5101   3.609  17.430  10.241 -0.2571 -0.0967 -0.4259
  319loPI   C2B 5102   3.659  17.367   9.791  0.0816  0.0187 -0.3714
  319loPI   C3B 5103   3.632  17.318   9.340 -0.3370 -0.0465 -0.2954
  319loPI   C4B 5104   3.683  17.334   8.929  0.0362 -0.0841 -0.0151
  320loPI    C1 5105  11.262  17.873  11.350  0.0150  0.0638  0.0839
  320loPI    C2 5106  10.953  17.965  11.586  0.0132  0.1823  0.0361
  320loPI    C3 5107  11.303  18.153  11.633  0.0077  0.2184 -0.0665
  320loPI   PO4 5108  11.213  17.898  11.056  0.1060 -0.0260 -0.0830
  320loPI   GL1 5109  11.098  17.844  10.619  0.1151  0.0487 -0.0076
  320loPI   GL2 5110  11.337  17.653  10.444 -0.0794 -0.2502  0.2407
  320loPI   C1A 5111  11.103  17.974  10.132  0.1956  0.0005 -0.1548
  320loPI   C2A 5112  10.969  17.965   9.707  0.0444 -0.1400 -0.0307
  320loPI   C3A 5113  10.883  18.042   9.298  0.1509  0.0087  0.3085
  320loPI   C4A 5114  10.974  17.834   8.932  0.1399  0.3066 -0.1401
  320loPI   C5A 5115  10.948  17.826   8.441  0.0395 -0.2616  0.0689
  320loPI   C6A 5116  10.535  17.791   8.103  0.0525  0.0543  0.0896
  320loPI   C1B 5117  11.397  17.541  10.020 -0.3649  0.1457 -0.1472
  320loPI   C2B 5118  11.293  17.484   9.591  0.2348  0.3655 -0.0943
  320loPI   C3B 5119  11.280  17.436   9.160  0.1105  0.0369 -0.4451
  320loPI   C4B 5120  11.249  17.501   8.714 -0.0788  0.0617  0.0681
  321loPI    C1 5121  11.501  13.370  11.311  0.2045 -0.1468 -0.1383
  321loPI    C2 5122  11.650  13.736  11.377  0.0474 -0.0296 -0.4132
  321loPI    C3 5123  11.834  13.414  11.528 -0.0573  0.1887  0.2092
  321loPI   PO4 5124  11.367  13.345  11.080  0.1089  0.1527 -0.1055
  321loPI   GL1 5125  11.136  13.085  10.778 -0.0818  0.0805  0.0401
  321loPI   GL2 5126  10.932  13.358  10.797 -0.1305 -0.0933  0.0525
  321loPI   C1A 5127  11.116  13.020  10.323  0.0996 -0.0051 -0.1867
  321loPI   C2A 5128  10.979  12.879   9.954  0.2030 -0.0778 -0.0585
  321loPI   C3A 5129  10.998  12.915   9.493  0.0652  0.0564  0.0455
  321loPI   C4A 5130  10.993  12.937   9.020 -0.2684  0.0412  0.0209
  321loPI   C5A 5131  10.876  13.236   8.784  0.0253 -0.1762  0.1374
  321loPI   C6A 5132  10.598  13.341   8.498 -0.0232  0.1242 -0.2146
  321loPI   C1B 5133  10.743  13.401  10.495 -0.0409 -0.0989  0.1291
  321loPI   C2B 5134  10.797  13.314  10.092  0.0977  0.0522 -0.0431
  321loPI   C3B 5135  10.759  13.306   9.675  0.3090 -0.0725  0.0861
  321loPI   C4B 5136  10.818  13.400   9.308  0.0032 -0.2288 -0.0006
  322loPI    C1 5137   8.923  14.904  11.105 -0.2225 -0.0203  0.0188
  322loPI    C2 5138   8.719  15.177  11.315  0.0562  0.0079  0.2585
  322loPI    C3 5139   8.847  14.843  11.493 -0.0233 -0.1409  0.0398
  322loPI   PO4 5140   8.715  14.896  10.930 -0.2075 -0.2451  0.2698
  322loPI   GL1 5141   8.634  15.012  10.545 -0.0908 -0.0260 -0.2909
  322loPI   GL2 5142   8.225  14.997  10.448 -0.0385  0.1342 -0.0826
  322loPI   C1A 5143   8.654  15.152  10.235  0.1440 -0.0559  0.0596
  322loPI   C2A 5144   8.555  14.961   9.845  0.1557  0.0212  0.2001
  322loPI   C3A 5145   8.516  14.992   9.438  0.3584  0.0793  0.1464
  322loPI   C4A 5146   8.658  15.038   9.073  0.0304 -0.4904  0.1194
  322loPI   C5A 5147   8.723  14.930   8.624  0.3442 -0.1150 -0.0743
  322loPI   C6A 5148   8.682  14.613   8.260 -0.2534  0.0728 -0.2665
  322loPI   C1B 5149   8.071  14.987  10.017  0.1288  0.0975  0.0277
  322loPI   C2B 5150   8.060  15.040   9.562 -0.2840 -0.1150  0.1957
  322loPI   C3B 5151   8.082  14.933   9.124 -0.1630 -0.2703  0.2494
  322loPI   C4B 5152   8.202  14.911   8.735  0.0518  0.0254 -0.0112
  323loPI    C1 5153   1.756   1.531  10.671 -0.0846  0.0896  0.1058
  323loPI    C2 5154   1.405   1.591  10.855 -0.0088  0.3120  0.1811
  323loPI    C3 5155   1.742   1.566  11.069 -0.0122 -0.2273  0.1395
  323loPI   PO4 5156   1.629   1.441  10.409  0.1136 -0.2347 -0.0637
  323loPI   GL1 5157   1.829   1.405   9.996  0.3997 -0.3311 -0.2398
  323loPI   GL2 5158   2.120   1.416   9.977 -0.0216 -0.0914  0.2563
  323loPI   C1A 5159   1.618   1.409   9.652 -0.2072 -0.0563 -0.2576
  323loPI   C2A 5160   1.638   1.201   9.237 -0.2506 -0.2892  0.1298
  323loPI   C3A 5161   1.659   1.296   8.798 -0.0041  0.1797  0.0637
  323loPI   C4A 5162   1.808   1.173   8.407 -0.0982 -0.0572 -0.0571
  323loPI   C5A 5163   1.917   1.335   8.064 -0.2387  0.1411 -0.2648
  323loPI   C6A 5164   1.792   1.351   7.679  0.1437  0.2460 -0.0976
  323loPI   C1B 5165   2.140   1.310   9.604  0.3000 -0.1514 -0.1011
  323loPI   C2B 5166   2.136   1.293   9.213  0.1484  0.0721 -0.3122
  323loPI   C3B 5167   2.206   1.340   8.737  0.0055 -0.5891 -0.2863
  323loPI   C4B 5168   2.350   1.323   8.363 -0.0754 -0.0616  0.2318
  324loPI    C1 5169   9.857   9.286  11.071 -0.0079  0.3139  0.0704
  324loPI    C2 5170   9.532   9.392  11.279  0.0688  0.0097  0.3526
  324loPI    C3 5171   9.730   9.057  11.373  0.2472 -0.0064 -0.0592
  324loPI   PO4 5172   9.861   9.292  10.772  0.2104  0.0544  0.0222
  324loPI   GL1 5173   9.995   9.188  10.380 -0.1424  0.0771  0.0208
  324loPI   GL2 5174  10.278   9.244  10.553  0.2499 -0.1691  0.0139
  324loPI   C1A 5175   9.984   9.188   9.959  0.0565  0.2613  0.1170
  324loPI   C2A 5176   9.916   9.133   9.554 -0.4195  0.2928 -0.0688
  324loPI   C3A 5177   9.885   9.170   9.146  0.2027  0.0705  0.1251
  324loPI   C4A 5178   9.951   9.263   8.752  0.2841 -0.1134  0.1351
  324loPI   C5A 5179  10.173   9.450   8.458  0.0250 -0.1101 -0.0197
  324loPI   C6A 5180  10.003   9.992   8.415 -0.0263 -0.1539  0.0124
  324loPI   C1B 5181  10.467   9.318  10.086 -0.0801  0.3372  0.1599
  324loPI   C2B 5182  10.427   9.175   9.706 -0.1107 -0.0898  0.0979
  324loPI   C3B 5183  10.415   9.125   9.107 -0.3913  0.1027 -0.0378
  324loPI   C4B 5184  10.497   9.106   8.669  0.2110 -0.0838 -0.1450
  325loPI    C1 5185   0.454   1.984  10.396 -0.1055  0.0676 -0.1125
  325loPI    C2 5186   0.204   1.691  10.505 -0.0201  0.0609  0.0692
  325loPI    C3 5187   0.333   1.955  10.776  0.0413  0.1626 -0.0579
  325loPI   PO4 5188   0.713   1.895  10.277  0.0147 -0.2793 -0.0939
  325loPI   GL1 5189   0.962   2.008   9.807  0.3015 -0.1637 -0.0691
  325loPI   GL2 5190   0.753   1.850   9.758  0.0566  0.0566 -0.0255
  325loPI   C1A 5191   1.254   1.768   9.496  0.1020  0.1762 -0.1179
  325loPI   C2A 5192   1.269   1.623   9.150 -0.0797  0.2899 -0.1520
  325loPI   C3A 5193   1.362   1.703   8.820  0.3630 -0.1660 -0.2057
  325loPI   C4A 5194   1.438   1.716   8.390  0.1016 -0.0918  0.2079
  325loPI   C5A 5195   1.425   1.679   7.957  0.1684 -0.0415  0.0569
  325loPI   C6A 5196   1.526   1.811   7.610 -0.0052 -0.0369 -0.0689
  325loPI   C1B 5197   0.738   1.710   9.288  0.0517  0.0208 -0.0219
  325loPI   C2B 5198   0.817   1.550   8.932  0.0695  0.1149  0.2223
  325loPI   C3B 5199   0.909   1.624   8.621  0.1173 -0.0157  0.2256
  325loPI   C4B 5200   0.975   1.540   8.187 -0.0991 -0.3287 -0.0366
  326loPI    C1 5201  14.457  16.787  10.612 -0.2411 -0.0503  0.0446
  326loPI    C2 5202  14.440  16.857  11.006 -0.0414  0.1257  0.0242
  326loPI    C3 5203  14.230  17.084  10.753 -0.1593  0.0212  0.0268
  326loPI   PO4 5204  14.433  16.520  10.587 -0.1715  0.0344  0.2845
  326loPI   GL1 5205  14.285  16.559  10.108  0.0666  0.0289  0.1455
  326loPI   GL2 5206  14.420  16.276  10.102  0.1043 -0.0595  0.0887
  326loPI   C1A 5207  14.335  16.454   9.661  0.2042 -0.1268 -0.1281
  326loPI   C2A 5208  14.214  16.428   9.276  0.1122  0.4487  0.0485
  326loPI   C3A 5209  14.318  16.302   8.932 -0.1237  0.0218  0.1872
  326loPI   C4A 5210  14.282  16.173   8.502 -0.0903  0.0204  0.1523
  326loPI   C5A 5211  14.515  15.988   8.202  0.0286 -0.2439  0.0601
  326loPI   C6A 5212  14.701  15.798   7.848  0.0112 -0.0774  0.1294
  326loPI   C1B 5213  14.764  16.262   9.670 -0.2250 -0.0441  0.2831
  326loPI   C2B 5214  14.817  16.421   9.209  0.2047 -0.1362  0.1656
  326loPI   C3B 5215  14.777  16.315   8.679 -0.1211  0.1070  0.1467
  326loPI   C4B 5216  14.837  16.477   8.212 -0.0140  0.2718 -0.1530
  327loPI    C1 5217   7.752   3.221  11.157  0.1776 -0.0130 -0.0325
  327loPI    C2 5218   7.423   3.003  11.219  0.3089 -0.2046 -0.0016
  327loPI    C3 5219   7.420   3.395  11.297  0.0876 -0.2041 -0.0052
  327loPI   PO4 5220   7.810   3.110  10.898  0.1297  0.2352  0.0492
  327loPI   GL1 5221   7.802   3.021  10.457 -0.1892 -0.2008  0.2113
  327loPI   GL2 5222   7.558   3.209  10.404 -0.0923  0.1611  0.0407
  327loPI   C1A 5223   7.749   2.787  10.023  0.0073 -0.2813 -0.0921
  327loPI   C2A 5224   7.727   2.759   9.556  0.0257  0.1284  0.1224
  327loPI   C3A 5225   7.756   2.723   9.169 -0.3714 -0.3096 -0.0964
  327loPI   C4A 5226   7.869   2.664   8.816  0.3612  0.0077 -0.1079
  327loPI   C5A 5227   7.830   2.542   8.343 -0.0136 -0.1632 -0.0359
  327loPI   C6A 5228   8.010   2.334   8.043  0.2074  0.1250 -0.1030
  327loPI   C1B 5229   7.469   3.187   9.878  0.0782  0.2674 -0.0839
  327loPI   C2B 5230   7.450   3.178   9.328 -0.1236 -0.0336  0.2824
  327loPI   C3B 5231   7.460   3.163   8.926 -0.2331  0.0646  0.1232
  327loPI   C4B 5232   7.446   2.944   8.535 -0.1138 -0.2657 -0.0133
  328loPI    C1 5233  15.202   2.305  10.376  0.1054  0.0264  0.0384
  328loPI    C2 5234  15.410   2.084  10.637  0.0930 -0.0204  0.0089
  328loPI    C3 5235  15.084   2.282  10.757  0.1689  0.0738  0.0610
  328loPI   PO4 5236  15.193   2.211  10.101  0.2455 -0.0311 -0.3401
  328loPI   GL1 5237  15.095   2.101   9.626 -0.0015 -0.1162  0.2718
  328loPI   GL2 5238  15.311   2.448   9.624  0.0505 -0.1614 -0.1320
  328loPI   C1A 5239  15.324   2.018   9.342  0.0458  0.0568  0.0516
  328loPI   C2A 5240  15.206   1.814   8.918  0.0313 -0.1405 -0.0523
  328loPI   C3A 5241  14.865   1.796   8.614  0.2098  0.3910 -0.3589
  328loPI   C4A 5242  14.738   1.810   8.213  0.1305  0.1008  0.3644
  328loPI   C5A 5243  14.608   1.472   7.977 -0.0864 -0.4079 -0.0666
  328loPI   C6A 5244  14.843   1.154   7.835 -0.5709 -0.0664 -0.0972
  328loPI   C1B 5245  15.283   2.484   9.179  0.1608  0.1719  0.2530
  328loPI   C2B 5246  15.227   2.413   8.729  0.2316 -0.0969  0.0896
  328loPI   C3B 5247  15.095   2.176   8.350 -0.3515  0.5027  0.3027
  328loPI   C4B 5248  15.095   2.301   7.915  0.1217  0.1604 -0.0077
  329loPI    C1 5249   7.956   7.628  11.062  0.3187 -0.0518  0.2727
  329loPI    C2 5250   7.925   7.937  11.315 -0.0414  0.0140  0.1539
  329loPI    C3 5251   7.871   7.563  11.448 -0.4667  0.0640  0.1367
  329loPI   PO4 5252   7.889   7.746  10.801  0.1816 -0.0696 -0.0937
  329loPI   GL1 5253   7.808   7.676  10.268  0.0146 -0.5246  0.1020
  329loPI   GL2 5254   8.129   7.735  10.320  0.0161  0.0483  0.2814
  329loPI   C1A 5255   7.595   7.692   9.863  0.1047 -0.0191  0.3305
  329loPI   C2A 5256   7.612   7.698   9.438 -0.1233 -0.0027 -0.0290
  329loPI   C3A 5257   7.682   7.812   9.036 -0.1064 -0.1703  0.0546
  329loPI   C4A 5258   7.610   7.737   8.596 -0.1186  0.2042 -0.1648
  329loPI   C5A 5259   7.644   7.642   8.168 -0.1084 -0.2706  0.2614
  329loPI   C6A 5260   7.953   7.616   7.895 -0.0422 -0.0386  0.1459
  329loPI   C1B 5261   8.125   7.698   9.778 -0.0779  0.0299 -0.2881
  329loPI   C2B 5262   8.146   7.803   9.304 -0.0985 -0.0861  0.1027
  329loPI   C3B 5263   8.149   7.766   8.866 -0.0919 -0.0752  0.0881
  329loPI   C4B 5264   8.104   7.711   8.418  0.0855 -0.1022 -0.2464
  330loPI    C1 5265  15.096   1.101  10.357 -0.0213  0.0312  0.1160
  330loPI    C2 5266  14.993   1.254  10.713 -0.0710  0.0870  0.0778
  330loPI    C3 5267  15.358   1.098  10.660  0.0388  0.3417  0.0707
  330loPI   PO4 5268  15.014   1.290  10.198  0.0829  0.0454  0.0278
  330loPI   GL1 5269  14.701   1.209   9.935  0.1039  0.0454 -0.0598
  330loPI   GL2 5270  14.495   0.979   9.949 -0.0020 -0.1000 -0.2943
  330loPI   C1A 5271  14.928   1.156   9.515 -0.2974 -0.0803  0.3029
  330loPI   C2A 5272  14.996   1.059   9.032 -0.0428  0.2427  0.0591
  330loPI   C3A 5273  15.037   0.832   8.605 -0.0560 -0.1094 -0.2254
  330loPI   C4A 5274  15.357   0.750   8.264  0.1768  0.0145 -0.3478
  330loPI   C5A 5275  15.646   0.672   7.898 -0.1072  0.2168  0.0534
  330loPI   C6A 5276  15.976   0.930   7.852  0.2284  0.1529  0.0563
  330loPI   C1B 5277  14.481   0.900   9.575 -0.1480 -0.1038  0.2189
  330loPI   C2B 5278  14.389   0.844   9.088 -0.1043  0.0600  0.0128
  330loPI   C3B 5279  14.449   0.854   8.598  0.0608  0.1803 -0.1890
  330loPI   C4B 5280  14.721   0.725   8.245  0.2849  0.1159 -0.2431
  331loPI    C1 5281  13.675   4.725  10.464  0.0120 -0.0309  0.4426
  331loPI    C2 5282  13.954   4.554  10.694  0.0046 -0.1143  0.3902
  331loPI    C3 5283  13.648   4.748  10.862  0.1609  0.0867  0.4468
  331loPI   PO4 5284  13.766   4.599  10.181  0.0411 -0.1140 -0.3111
  331loPI   GL1 5285  13.865   4.370   9.839  0.1010  0.0862 -0.1611
  331loPI   GL2 5286  13.556   4.181   9.757  0.1095 -0.3106 -0.1626
  331loPI   C1A 5287  13.923   4.260   9.414  0.4917 -0.0176 -0.4267
  331loPI   C2A 5288  13.969   4.301   8.983  0.0561  0.0005  0.2417
  331loPI   C3A 5289  14.077   4.558   8.655  0.2509 -0.3460 -0.3090
  331loPI   C4A 5290  14.125   4.639   8.296 -0.2263 -0.2270 -0.0348
  331loPI   C5A 5291  14.148   4.561   7.928  0.1912  0.2761  0.1367
  331loPI   C6A 5292  14.393   4.837   7.640 -0.0269  0.0468  0.0841
  331loPI   C1B 5293  13.397   4.231   9.281 -0.1185 -0.0959 -0.1744
  331loPI   C2B 5294  13.380   4.315   8.826 -0.2121  0.1748  0.0975
  331loPI   C3B 5295  13.626   4.427   8.523 -0.1101 -0.1659  0.2192
  331loPI   C4B 5296  13.723   4.415   8.096  0.0479  0.0622  0.0372
  332loPI    C1 5297  17.237   8.822  10.202 -0.0774 -0.2854 -0.1534
  332loPI    C2 5298  16.997   8.759  10.516  0.0150 -0.1089 -0.0456
  332loPI    C3 5299  17.375   8.875  10.574  0.0478 -0.1259 -0.2214
  332loPI   PO4 5300  17.253   8.659  10.080 -0.2666 -0.2850 -0.1950
  332loPI   GL1 5301  17.434   8.572   9.607  0.4521  0.4677 -0.3457
  332loPI   GL2 5302  17.671   8.590   9.841  0.1240  0.1312  0.3274
  332loPI   C1A 5303  17.669   8.775   9.229  0.0665  0.0580 -0.1683
  332loPI   C2A 5304  17.798   9.035   8.970 -0.3548  0.1559 -0.2316
  332loPI   C3A 5305  18.018   8.932   8.570 -0.0523  0.2962 -0.1144
  332loPI   C4A 5306  18.125   9.115   8.204  0.0211 -0.4547 -0.0764
  332loPI   C5A 5307  18.328   9.481   8.090  0.1063 -0.0275 -0.1199
  332loPI   C6A 5308  18.648   9.807   7.913  0.2250  0.0596 -0.1254
  332loPI   C1B 5309  17.755   9.004   9.685  0.1504  0.1390 -0.2790
  332loPI   C2B 5310  17.983   9.305   9.478 -0.1225 -0.0685  0.2611
  332loPI   C3B 5311  18.178   9.427   9.087  0.2429 -0.6157 -0.1271
  332loPI   C4B 5312  18.177   9.340   8.678  0.0122 -0.1650 -0.0800
  333loPI    C1 5313   1.578   9.662  10.881  0.1646 -0.1248 -0.2448
  333loPI    C2 5314   1.475   9.301  11.019 -0.0591 -0.0000 -0.0780
  333loPI    C3 5315   1.619   9.577  11.270  0.0376  0.0527 -0.1910
  333loPI   PO4 5316   1.386   9.843  10.802 -0.2457 -0.1348  0.2104
  333loPI   GL1 5317   1.128  10.016  10.513  0.1058 -0.0662  0.0452
  333loPI   GL2 5318   1.404  10.199  10.431  0.0097 -0.0876  0.1854
  333loPI   C1A 5319   0.960  10.079  10.147  0.2035 -0.0915  0.0349
  333loPI   C2A 5320   0.857  10.359   9.899 -0.0186 -0.0018  0.1691
  333loPI   C3A 5321   0.809  10.347   9.528  0.1034 -0.0963 -0.0079
  333loPI   C4A 5322   0.883  10.366   8.999  0.0208  0.0911  0.0066
  333loPI   C5A 5323   0.914  10.476   8.475  0.0612 -0.0707  0.1467
  333loPI   C6A 5324   1.144  10.664   8.090  0.0568  0.2111 -0.0565
  333loPI   C1B 5325   1.343  10.441   9.971 -0.3305 -0.2909 -0.1266
  333loPI   C2B 5326   1.325  10.516   9.627 -0.3929  0.0086 -0.2126
  333loPI   C3B 5327   1.323  10.399   9.267  0.2421 -0.0924  0.1817
  333loPI   C4B 5328   1.361  10.488   8.816 -0.1327  0.0387 -0.2518
  334loPI    C1 5329   2.204   2.827  10.559 -0.1102  0.0223 -0.0345
  334loPI    C2 5330   2.371   2.654  10.879  0.0357  0.0844 -0.0768
  334loPI    C3 5331   2.062   2.904  10.925 -0.0045  0.0195  0.0073
  334loPI   PO4 5332   2.437   2.748  10.394  0.1568  0.0059  0.0019
  334loPI   GL1 5333   2.360   2.489   9.983  0.0148 -0.0751 -0.2383
  334loPI   GL2 5334   2.210   2.236  10.063  0.3470 -0.0040  0.0142
  334loPI   C1A 5335   2.581   2.342   9.585 -0.0149 -0.1749 -0.1212
  334loPI   C2A 5336   2.525   2.190   9.213 -0.0654  0.0600  0.3227
  334loPI   C3A 5337   2.691   2.365   8.730  0.2800 -0.2373  0.1868
  334loPI   C4A 5338   2.736   2.178   8.378  0.0905  0.1047 -0.1112
  334loPI   C5A 5339   2.483   1.840   8.125 -0.1530 -0.0287  0.0633
  334loPI   C6A 5340   2.326   1.485   7.810  0.1290 -0.1490  0.3016
  334loPI   C1B 5341   2.335   1.971   9.816 -0.1517  0.1594 -0.0556
  334loPI   C2B 5342   2.301   1.811   9.465  0.1209  0.2056  0.0072
  334loPI   C3B 5343   2.342   1.784   8.974  0.0683 -0.3262 -0.1339
  334loPI   C4B 5344   2.448   1.844   8.626 -0.1137 -0.2729  0.0042
  335loPI    C1 5345   1.941  13.845  11.280  0.0042  0.0594 -0.0081
  335loPI    C2 5346   1.999  14.196  11.462 -0.0869 -0.0979  0.3324
  335loPI    C3 5347   1.627  14.072  11.380 -0.0484 -0.0493  0.0756
  335loPI   PO4 5348   2.063  13.843  11.090  0.0889  0.0746  0.0123
  335loPI   GL1 5349   2.145  13.646  10.659  0.3960  0.0714  0.2147
  335loPI   GL2 5350   2.062  13.244  10.604  0.0137 -0.2328  0.4285
  335loPI   C1A 5351   2.326  13.670  10.345 -0.1866  0.1200 -0.5025
  335loPI   C2A 5352   2.363  13.659   9.923 -0.4976 -0.1005 -0.4280
  335loPI   C3A 5353   2.292  13.657   9.427 -0.1557  0.0301  0.0150
  335loPI   C4A 5354   2.388  13.677   8.999  0.0585 -0.1578  0.3099
  335loPI   C5A 5355   2.589  13.777   8.654  0.1405  0.3328  0.2930
  335loPI   C6A 5356   2.651  13.920   8.239 -0.0110  0.1247  0.0399
  335loPI   C1B 5357   2.098  13.236  10.166 -0.0445  0.1633  0.0246
  335loPI   C2B 5358   2.113  13.216   9.670  0.0530 -0.3631 -0.0946
  335loPI   C3B 5359   2.168  13.190   9.264  0.0679  0.0152 -0.1492
  335loPI   C4B 5360   2.186  13.198   8.881 -0.0524 -0.3042 -0.3391
  336loPI    C1 5361   5.098   7.431  10.949  0.1842  0.4019  0.0877
  336loPI    C2 5362   5.169   7.101  11.164  0.0353  0.2897 -0.0334
  336loPI    C3 5363   4.842   7.319  11.235 -0.1080  0.1532 -0.2632
  336loPI   PO4 5364   5.291   7.292  10.716 -0.3183 -0.0069 -0.0606
  336loPI   GL1 5365   5.476   7.214  10.308 -0.1696  0.2173 -0.2474
  336loPI   GL2 5366   5.142   6.946  10.373 -0.0119  0.0613 -0.0971
  336loPI   C1A 5367   5.555   7.478   9.942  0.2572 -0.1301  0.0291
  336loPI   C2A 5368   5.483   7.529   9.529  0.1354 -0.0356  0.0082
  336loPI   C3A 5369   5.501   7.625   9.100  0.3417  0.1573 -0.0262
  336loPI   C4A 5370   5.611   7.664   8.665  0.1832 -0.0980 -0.1292
  336loPI   C5A 5371   5.750   7.563   8.182 -0.0329 -0.2317 -0.0100
  336loPI   C6A 5372   5.840   7.524   7.748  0.1879 -0.0621  0.0641
  336loPI   C1B 5373   5.265   6.985   9.906 -0.1295  0.1790  0.1764
  336loPI   C2B 5374   5.361   6.966   9.568  0.2273  0.2229  0.2451
  336loPI   C3B 5375   5.322   7.160   9.312  0.1272  0.1165  0.1624
  336loPI   C4B 5376   5.429   7.043   8.953  0.2243 -0.1439  0.4239
  337loPI    C1 5377   1.313   5.853  10.188  0.0485 -0.0231  0.1444
  337loPI    C2 5378   1.001   5.750  10.417 -0.0251  0.0582  0.0817
  337loPI    C3 5379   1.335   5.529  10.421 -0.0356  0.0444  0.2471
  337loPI   PO4 5380   1.170   5.881   9.941 -0.0579 -0.0130 -0.0369
  337loPI   GL1 5381   0.893   5.845   9.573 -0.0289 -0.0802 -0.1646
  337loPI   GL2 5382   0.764   6.074   9.462  0.1488  0.0418 -0.2922
  337loPI   C1A 5383   0.967   5.851   9.026  0.1532 -0.0223  0.0072
  337loPI   C2A 5384   0.938   5.854   8.549 -0.0094  0.0563  0.1487
  337loPI   C3A 5385   0.729   5.984   8.191 -0.0884 -0.0023 -0.1563
  337loPI   C4A 5386   0.558   5.859   7.828  0.2296  0.3109 -0.0513
  337loPI   C5A 5387   0.336   5.785   7.485 -0.0769 -0.1221 -0.1732
  337loPI   C6A 5388   0.138   5.471   7.141  0.0513 -0.3918  0.1836
  337loPI   C1B 5389   0.575   6.228   9.086 -0.0203 -0.2002 -0.0239
  337loPI   C2B 5390   0.551   6.302   8.604 -0.0261  0.2562  0.1190
  337loPI   C3B 5391   0.599   6.622   8.323  0.0142  0.1207  0.1472
  337loPI   C4B 5392   0.525   6.740   7.900  0.0363 -0.2525  0.1446
  338loPI    C1 5393   2.156   7.744  10.874 -0.1745  0.3304 -0.0658
  338loPI    C2 5394   1.856   7.515  11.009  0.0011  0.1121 -0.0403
  338loPI    C3 5395   2.151   7.626  11.256  0.0093  0.2180 -0.0969
  338loPI   PO4 5396   2.252   7.738  10.659  0.1654  0.2700  0.2285
  338loPI   GL1 5397   2.283   7.896  10.277 -0.0188  0.1041  0.1437
  338loPI   GL2 5398   1.955   8.044  10.130 -0.0695  0.0546 -0.1512
  338loPI   C1A 5399   2.292   8.000   9.746  0.1633 -0.1274 -0.2469
  338loPI   C2A 5400   2.268   8.243   9.377  0.4272 -0.0451 -0.0273
  338loPI   C3A 5401   2.373   8.299   8.969 -0.0913 -0.3125  0.2370
  338loPI   C4A 5402   2.442   8.330   8.603 -0.1144 -0.0090 -0.1965
  338loPI   C5A 5403   2.323   8.553   8.248 -0.0599 -0.0886  0.0205
  338loPI   C6A 5404   2.394   9.037   8.025  0.1779  0.2516  0.2122
  338loPI   C1B 5405   1.830   8.054   9.690  0.0541  0.2166  0.1557
  338loPI   C2B 5406   1.788   8.119   9.206  0.0589  0.0702 -0.0587
  338loPI   C3B 5407   1.856   8.179   8.775  0.0266 -0.1233  0.0911
  338loPI   C4B 5408   1.798   8.293   8.328  0.1094 -0.0146 -0.0884
  339loPI    C1 5409  11.414  11.331  11.312 -0.0343 -0.1569 -0.0423
  339loPI    C2 5410  11.646  11.435  11.621 -0.0523  0.1540 -0.1291
  339loPI    C3 5411  11.471  11.075  11.614  0.1280  0.0586  0.1133
  339loPI   PO4 5412  11.523  11.368  11.079  0.2129  0.2215  0.0532
  339loPI   GL1 5413  11.328  11.426  10.564  0.2079  0.0793 -0.1005
  339loPI   GL2 5414  11.006  11.480  10.560 -0.4108  0.0903 -0.3870
  339loPI   C1A 5415  11.290  11.164  10.323  0.0308 -0.1188  0.3122
  339loPI   C2A 5416  11.290  11.189   9.924 -0.1060  0.1153 -0.2341
  339loPI   C3A 5417  11.229  11.212   9.626 -0.1300  0.6593  0.3198
  339loPI   C4A 5418  11.279  11.174   9.238  0.1774  0.3106  0.3449
  339loPI   C5A 5419  11.250  11.096   8.749 -0.0837 -0.1225  0.1526
  339loPI   C6A 5420  11.497  11.069   8.320 -0.4060 -0.0013 -0.0631
  339loPI   C1B 5421  10.986  11.564  10.228 -0.0815 -0.1330  0.1112
  339loPI   C2B 5422  10.940  11.637   9.841 -0.2538  0.0476 -0.4162
  339loPI   C3B 5423  10.929  11.541   9.433 -0.1114 -0.1348 -0.0190
  339loPI   C4B 5424  10.938  11.622   8.977  0.0635 -0.0779  0.1327
  340loPI    C1 5425  10.539  10.053  11.100 -0.2172 -0.0987  0.0681
  340loPI    C2 5426  10.425  10.349  11.344 -0.3606 -0.0696 -0.0326
  340loPI    C3 5427  10.491   9.983  11.491  0.0521  0.0649  0.1333
  340loPI   PO4 5428  10.545  10.134  10.833 -0.0444 -0.4316 -0.0589
  340loPI   GL1 5429  10.320  10.290  10.522  0.2702 -0.0744 -0.0804
  340loPI   GL2 5430  10.537  10.522  10.404  0.2929 -0.3146 -0.0579
  340loPI   C1A 5431  10.335  10.201  10.061  0.1666 -0.0490 -0.0946
  340loPI   C2A 5432  10.322  10.167   9.605  0.0206  0.4194 -0.4990
  340loPI   C3A 5433  10.335  10.206   9.185  0.0131  0.4027 -0.0157
  340loPI   C4A 5434  10.409  10.182   8.733 -0.0574 -0.0560 -0.0909
  340loPI   C5A 5435  10.369  10.328   8.264  0.2028  0.1982  0.0487
  340loPI   C6A 5436  10.329  10.405   7.869  0.2219  0.0300 -0.1044
  340loPI   C1B 5437  10.547  10.672   9.934 -0.3117 -0.0152 -0.3207
  340loPI   C2B 5438  10.528  10.578   9.542  0.1401 -0.1549 -0.0105
  340loPI   C3B 5439  10.603  10.596   9.078  0.3485  0.0776  0.0426
  340loPI   C4B 5440  10.543  10.620   8.634  0.4001  0.1049 -0.0703
  341loPI    C1 5441   2.698   4.608  10.336  0.2118 -0.3669 -0.0624
  341loPI    C2 5442   2.851   4.706  10.692  0.0241  0.1939 -0.1251
  341loPI    C3 5443   2.465   4.606  10.662  0.1196 -0.1894 -0.1254
  341loPI   PO4 5444   2.755   4.404  10.190  0.2611 -0.1114 -0.1600
  341loPI   GL1 5445   2.899   4.106   9.840 -0.0415  0.0253 -0.1683
  341loPI   GL2 5446   3.196   4.156  10.066  0.0650  0.1041 -0.1682
  341loPI   C1A 5447   2.867   4.161   9.461  0.5945  0.4758  0.0524
  341loPI   C2A 5448   3.061   4.200   9.118  0.1128 -0.1020 -0.0708
  341loPI   C3A 5449   3.216   4.300   8.700 -0.1100  0.0511  0.0245
  341loPI   C4A 5450   3.227   4.747   8.421  0.1394  0.2037  0.2015
  341loPI   C5A 5451   3.169   4.852   8.022  0.0176  0.0348 -0.4501
  341loPI   C6A 5452   3.282   4.783   7.567 -0.1560  0.1206  0.1828
  341loPI   C1B 5453   3.328   4.226   9.717  0.0538  0.2885 -0.1499
  341loPI   C2B 5454   3.476   4.227   9.346 -0.1496 -0.0738 -0.1174
  341loPI   C3B 5455   3.703   4.293   8.918  0.1600  0.2946 -0.1170
  341loPI   C4B 5456   3.700   4.270   8.536 -0.2346 -0.0163 -0.1074
  342loPI    C1 5457  12.448  14.237  11.365 -0.0483 -0.1353  0.2276
  342loPI    C2 5458  12.767  14.463  11.454 -0.0085 -0.1010  0.0028
  342loPI    C3 5459  12.412  14.543  11.621  0.0390  0.0342  0.0402
  342loPI   PO4 5460  12.496  14.131  11.070 -0.0558  0.1897  0.1015
  342loPI   GL1 5461  12.439  14.257  10.715 -0.3022 -0.0953  0.1011
  342loPI   GL2 5462  12.385  14.439  10.511 -0.5249 -0.0593  0.2823
  342loPI   C1A 5463  12.533  13.950  10.419 -0.1834  0.1167  0.1437
  342loPI   C2A 5464  12.590  13.967  10.017  0.0597 -0.1766  0.0056
  342loPI   C3A 5465  12.571  13.888   9.610  0.2186  0.3131  0.1457
  342loPI   C4A 5466  12.660  13.965   9.200  0.2945  0.2388 -0.2282
  342loPI   C5A 5467  12.631  14.186   8.854 -0.0368  0.1066 -0.1482
  342loPI   C6A 5468  12.776  14.357   8.398  0.1465  0.1000 -0.0825
  342loPI   C1B 5469  12.276  14.385  10.108  0.4854  0.0747  0.2068
  342loPI   C2B 5470  12.262  14.268   9.768  0.1559 -0.4354  0.1715
  342loPI   C3B 5471  12.396  14.367   9.366  0.1071 -0.1362 -0.0495
  342loPI   C4B 5472  12.260  14.483   9.023 -0.2135 -0.0004 -0.1134
  343loPI    C1 5473  13.288  12.260  11.143 -0.0127 -0.1358 -0.1257
  343loPI    C2 5474  12.892  12.221  11.179  0.0150 -0.3835 -0.0748
  343loPI    C3 5475  13.132  12.106  11.477  0.1095  0.1214  0.0528
  343loPI   PO4 5476  13.389  12.105  10.889 -0.2386  0.2195 -0.4568
  343loPI   GL1 5477  13.469  12.107  10.473 -0.1971 -0.1430  0.0282
  343loPI   GL2 5478  13.815  12.014  10.479 -0.0432 -0.1009 -0.1322
  343loPI   C1A 5479  13.240  12.166  10.117  0.0676  0.1519  0.1474
  343loPI   C2A 5480  13.145  12.136   9.679  0.3179  0.0286 -0.0954
  343loPI   C3A 5481  13.237  12.098   9.205  0.3574  0.0689  0.0020
  343loPI   C4A 5482  13.313  12.053   8.732 -0.2264 -0.0709  0.2468
  343loPI   C5A 5483  13.144  12.299   8.318 -0.0625 -0.2757  0.1286
  343loPI   C6A 5484  13.049  12.667   8.147 -0.1917  0.0600 -0.0032
  343loPI   C1B 5485  13.759  12.107  10.002 -0.3023 -0.2208  0.0462
  343loPI   C2B 5486  13.860  12.110   9.479  0.4006  0.1597 -0.0993
  343loPI   C3B 5487  13.744  12.099   9.038  0.1315 -0.2198 -0.0615
  343loPI   C4B 5488  13.856  12.335   8.631  0.1096  0.1844  0.2289
  344loPI    C1 5489  10.056   1.048  10.996 -0.0929  0.2332 -0.2307
  344loPI    C2 5490   9.717   1.196  11.149 -0.1256 -0.0059 -0.0657
  344loPI    C3 5491   9.890   0.877  11.318  0.1291  0.0537 -0.2088
  344loPI   PO4 5492  10.016   1.107  10.733  0.2132  0.0212  0.1146
  344loPI   GL1 5493  10.040   1.147  10.379 -0.2154 -0.1274 -0.1819
  344loPI   GL2 5494   9.592   1.003  10.432  0.0733 -0.1704  0.0323
  344loPI   C1A 5495  10.040   1.079   9.953  0.0132 -0.0349  0.0762
  344loPI   C2A 5496   9.978   1.078   9.492  0.0928 -0.2788  0.1690
  344loPI   C3A 5497  10.020   1.017   9.002  0.0922 -0.2271  0.1282
  344loPI   C4A 5498  10.175   1.090   8.540 -0.1295 -0.0223 -0.2767
  344loPI   C5A 5499  10.618   1.041   8.281  0.0709 -0.2197 -0.0769
  344loPI   C6A 5500  10.943   1.188   7.928  0.3659  0.0637 -0.0300
  344loPI   C1B 5501   9.543   1.058  10.077  0.1741  0.3228  0.2262
  344loPI   C2B 5502   9.513   1.072   9.692  0.1620  0.1149  0.3965
  344loPI   C3B 5503   9.444   1.080   9.255 -0.0938  0.0086  0.1019
  344loPI   C4B 5504   9.515   1.056   8.789 -0.4934 -0.2892 -0.1273
  345loPI    C1 5505  15.237   7.417  10.344 -0.1656  0.0782 -0.1380
  345loPI    C2 5506  15.053   7.545  10.676 -0.0122  0.0392 -0.0366
  345loPI    C3 5507  15.386   7.727  10.549  0.0604 -0.0941 -0.0382
  345loPI   PO4 5508  14.960   7.393  10.169  0.0532 -0.2543 -0.1861
  345loPI   GL1 5509  14.717   7.647   9.770  0.0177 -0.1644 -0.0993
  345loPI   GL2 5510  14.744   7.295   9.695  0.1527 -0.0377 -0.1939
  345loPI   C1A 5511  14.704   7.876   9.422 -0.0642  0.1663  0.2564
  345loPI   C2A 5512  14.782   8.022   9.091 -0.1352  0.2132  0.0266
  345loPI   C3A 5513  14.957   7.993   8.631  0.0266 -0.3348  0.0511
  345loPI   C4A 5514  15.117   8.127   8.308  0.0909  0.1361 -0.1270
  345loPI   C5A 5515  15.038   8.146   7.940  0.0654 -0.2293 -0.0176
  345loPI   C6A 5516  15.215   8.361   7.589  0.3366 -0.1079 -0.1668
  345loPI   C1B 5517  14.818   7.351   9.290  0.1183 -0.0028  0.1024
  345loPI   C2B 5518  14.792   7.585   8.900 -0.0323  0.3437 -0.1721
  345loPI   C3B 5519  14.738   7.430   8.514 -0.2166 -0.1277  0.3268
  345loPI   C4B 5520  14.911   7.683   8.109  0.2845  0.1229  0.2524
  346loPI    C1 5521   7.049   3.379  10.972  0.0148 -0.1186 -0.2824
  346loPI    C2 5522   7.163   3.091  10.720  0.0844 -0.2333 -0.1217
  346loPI    C3 5523   6.899   3.011  11.009 -0.0906 -0.0713 -0.2340
  346loPI   PO4 5524   6.969   3.619  10.809 -0.2669  0.2278  0.3494
  346loPI   GL1 5525   6.716   3.680  10.463  0.3829 -0.2649  0.2676
  346loPI   GL2 5526   6.438   3.600  10.293 -0.3400  0.2206 -0.1999
  346loPI   C1A 5527   6.875   3.996  10.140  0.2164  0.0959  0.1270
  346loPI   C2A 5528   6.836   4.103   9.763  0.0104  0.0231  0.1921
  346loPI   C3A 5529   6.907   3.962   9.386  0.1933  0.0593  0.0523
  346loPI   C4A 5530   6.910   4.129   8.934  0.1244 -0.0087 -0.0879
  346loPI   C5A 5531   6.908   4.085   8.443  0.0745  0.2940  0.5030
  346loPI   C6A 5532   6.944   4.164   7.925  0.1573  0.3170 -0.2388
  346loPI   C1B 5533   6.632   3.601   9.792  0.1314 -0.0538 -0.1049
  346loPI   C2B 5534   6.653   3.482   9.307 -0.1184  0.1670  0.0046
  346loPI   C3B 5535   6.609   3.673   8.864 -0.1063  0.1947 -0.0888
  346loPI   C4B 5536   6.787   3.627   8.510 -0.0927  0.0172  0.3353
  347loPI    C1 5537  14.164  11.917  11.287  0.0943 -0.0757 -0.3732
  347loPI    C2 5538  13.897  11.969  10.994 -0.0519 -0.2358 -0.2703
  347loPI    C3 5539  13.833  11.693  11.276 -0.1580  0.2476  0.1943
  347loPI   PO4 5540  14.344  11.982  11.204 -0.1146  0.0646 -0.1216
  347loPI   GL1 5541  14.371  11.897  10.761 -0.0506 -0.3769  0.0569
  347loPI   GL2 5542  14.254  11.795  10.554  0.0003 -0.0432 -0.2270
  347loPI   C1A 5543  14.705  11.735  10.406  0.0539 -0.0957  0.2693
  347loPI   C2A 5544  14.680  11.600  10.054 -0.1777 -0.1427  0.1083
  347loPI   C3A 5545  14.573  11.741   9.752  0.2899  0.0356 -0.4933
  347loPI   C4A 5546  14.697  11.743   9.296  0.1730  0.1021  0.2303
  347loPI   C5A 5547  14.546  11.690   8.851  0.0487 -0.1653 -0.1851
  347loPI   C6A 5548  14.500  11.931   8.452  0.1722  0.0004 -0.1002
  347loPI   C1B 5549  14.333  12.044  10.208  0.0773 -0.3834 -0.0437
  347loPI   C2B 5550  14.314  12.173   9.754  0.0653 -0.0756 -0.1751
  347loPI   C3B 5551  14.295  12.043   9.296  0.1542  0.2116  0.2234
  347loPI   C4B 5552  14.247  12.174   8.917 -0.2466  0.1318 -0.4191
  348loPI    C1 5553  13.769   6.462  10.479  0.2606  0.2876 -0.2162
  348loPI    C2 5554  14.038   6.501  10.772  0.0206 -0.1396  0.0710
  348loPI    C3 5555  13.666   6.639  10.822  0.0163 -0.0906 -0.0890
  348loPI   PO4 5556  13.899   6.592  10.261  0.0100 -0.2361  0.0697
  348loPI   GL1 5557  13.845   6.455   9.817  0.0103  0.1710 -0.0941
  348loPI   GL2 5558  13.552   6.600   9.821 -0.1663 -0.1018  0.1428
  348loPI   C1A 5559  13.695   6.263   9.483  0.3569  0.1272  0.0329
  348loPI   C2A 5560  13.542   6.214   9.001 -0.0215  0.1446 -0.2222
  348loPI   C3A 5561  13.405   6.142   8.599 -0.1004  0.2703 -0.1313
  348loPI   C4A 5562  13.369   6.025   8.182  0.0835  0.0705  0.0587
  348loPI   C5A 5563  13.019   5.900   7.965  0.2144  0.0889 -0.1348
  348loPI   C6A 5564  12.850   5.714   7.543  0.0493 -0.2104 -0.1753
  348loPI   C1B 5565  13.294   6.570   9.442  0.0956 -0.0025  0.0168
  348loPI   C2B 5566  13.215   6.593   9.020 -0.3077  0.0588  0.2508
  348loPI   C3B 5567  13.141   6.618   8.617  0.0968 -0.0288  0.0098
  348loPI   C4B 5568  12.969   6.802   8.286 -0.1329 -0.1694  0.2128
  349loPI    C1 5569  12.881   1.083  11.327 -0.0044 -0.2883 -0.0649
  349loPI    C2 5570  12.990   1.241  11.677 -0.0431  0.2595 -0.2910
  349loPI    C3 5571  13.250   1.020  11.468 -0.0212 -0.0750  0.0780
  349loPI   PO4 5572  12.848   1.239  11.083 -0.1401 -0.0462 -0.1200
  349loPI   GL1 5573  12.751   1.035  10.755  0.1282 -0.0643  0.0674
  349loPI   GL2 5574  12.532   1.017  10.743  0.0672  0.1465  0.2656
  349loPI   C1A 5575  12.691   0.940  10.272  0.0616  0.0557 -0.1490
  349loPI   C2A 5576  12.530   0.901   9.949  0.2214  0.3219 -0.1356
  349loPI   C3A 5577  12.444   0.897   9.593  0.3352  0.0383 -0.1029
  349loPI   C4A 5578  12.398   0.801   9.160  0.1522  0.3199  0.2375
  349loPI   C5A 5579  12.383   0.686   8.804 -0.2793  0.2367 -0.1573
  349loPI   C6A 5580  12.030   0.722   8.533  0.0042  0.0191 -0.0335
  349loPI   C1B 5581  12.330   1.274  10.412 -0.5309  0.1140 -0.3246
  349loPI   C2B 5582  12.248   1.265   9.946  0.0477 -0.0822 -0.0997
  349loPI   C3B 5583  11.989   1.292   9.560  0.2153 -0.4283 -0.1819
  349loPI   C4B 5584  12.103   1.245   9.226  0.1341 -0.0476  0.1261
  350loPI    C1 5585  12.360   6.787  11.111  0.0198 -0.1279  0.1045
  350loPI    C2 5586  12.502   7.077  11.347  0.0895 -0.0270 -0.0593
  350loPI    C3 5587  12.536   6.694  11.458  0.1656  0.0167  0.0706
  350loPI   PO4 5588  12.314   7.017  10.873 -0.3523  0.2543  0.0338
  350loPI   GL1 5589  12.268   7.059  10.427 -0.1305 -0.0291 -0.0400
  350loPI   GL2 5590  12.345   7.359  10.210 -0.1126 -0.1500 -0.0706
  350loPI   C1A 5591  12.130   6.871  10.027  0.1700  0.5208  0.1473
  350loPI   C2A 5592  11.967   7.098   9.672  0.5339  0.0752 -0.0847
  350loPI   C3A 5593  11.935   7.064   9.273 -0.0297  0.1707  0.1332
  350loPI   C4A 5594  11.850   6.994   8.850  0.2444 -0.0039  0.2433
  350loPI   C5A 5595  11.878   7.168   8.366  0.3434  0.0429 -0.0613
  350loPI   C6A 5596  12.083   7.125   8.002  0.2983 -0.0550  0.0590
  350loPI   C1B 5597  12.189   7.499   9.816 -0.0461  0.1425 -0.0169
  350loPI   C2B 5598  12.200   7.439   9.378 -0.2414  0.0108 -0.0758
  350loPI   C3B 5599  12.075   7.538   9.028  0.1286  0.0423  0.1628
  350loPI   C4B 5600  12.104   7.520   8.577 -0.2628  0.1867  0.2250
  351loPI    C1 5601   0.005  12.547  11.405 -0.1232  0.0827 -0.1919
  351loPI    C2 5602   0.047  12.171  11.536  0.0926  0.1691 -0.0066
  351loPI    C3 5603  -0.175  12.432  11.744 -0.0552  0.1464 -0.1339
  351loPI   PO4 5604   0.280  12.443  11.210  0.1411  0.0917  0.0593
  351loPI   GL1 5605   0.376  12.350  10.838 -0.1034 -0.3780  0.1620
  351loPI   GL2 5606   0.608  12.511  10.849  0.2213  0.0249 -0.1905
  351loPI   C1A 5607   0.344  12.464  10.346 -0.0414  0.0996  0.1936
  351loPI   C2A 5608   0.352  12.499   9.858 -0.2816  0.1576  0.1176
  351loPI   C3A 5609   0.498  12.577   9.532 -0.1837 -0.4164  0.1841
  351loPI   C4A 5610   0.396  12.577   9.089 -0.2063 -0.1462  0.1712
  351loPI   C5A 5611   0.408  12.569   8.716  0.1756 -0.1728  0.0437
  351loPI   C6A 5612   0.454  12.651   8.346  0.0881 -0.2225  0.3051
  351loPI   C1B 5613   0.840  12.572  10.501  0.2301 -0.2629 -0.0720
  351loPI   C2B 5614   0.849  12.507  10.086  0.0326 -0.0516  0.1367
  351loPI   C3B 5615   0.918  12.665   9.685 -0.4225 -0.1086 -0.0245
  351loPI   C4B 5616   0.895  12.587   9.240 -0.0254  0.0803 -0.0558
  352loPI    C1 5617   3.632   1.784  10.883  0.1646 -0.0111 -0.0271
  352loPI    C2 5618   3.902   1.501  10.801  0.2454  0.0562  0.0060
  352loPI    C3 5619   3.589   1.416  11.035  0.0656 -0.1103 -0.2881
  352loPI   PO4 5620   3.626   1.916  10.698  0.1446  0.1339 -0.2936
  352loPI   GL1 5621   3.719   2.204  10.321  0.0392 -0.2243 -0.1923
  352loPI   GL2 5622   3.351   2.163  10.217 -0.1206 -0.0138  0.0138
  352loPI   C1A 5623   3.799   1.982   9.918 -0.0338  0.1077 -0.1819
  352loPI   C2A 5624   3.800   1.919   9.429 -0.0518 -0.0650  0.2431
  352loPI   C3A 5625   4.087   1.914   9.125  0.1422 -0.1851  0.0777
  352loPI   C4A 5626   3.980   2.004   8.795  0.1740 -0.1371 -0.1283
  352loPI   C5A 5627   4.073   2.082   8.371 -0.0681 -0.3066  0.1201
  352loPI   C6A 5628   4.225   2.175   8.013 -0.4988  0.3435 -0.2395
  352loPI   C1B 5629   3.308   1.962   9.807  0.0726 -0.0897 -0.1393
  352loPI   C2B 5630   3.305   1.829   9.397 -0.2465 -0.1544  0.0327
  352loPI   C3B 5631   3.484   1.866   8.999 -0.2254  0.0670  0.1371
  352loPI   C4B 5632   3.470   2.019   8.573  0.1489 -0.1237 -0.1812
  353loPI    C1 5633   8.023   5.405  11.104  0.2529 -0.0150  0.1337
  353loPI    C2 5634   8.195   5.192  11.396  0.4697  0.2651  0.2153
  353loPI    C3 5635   7.916   5.463  11.485  0.0890 -0.0777  0.0980
  353loPI   PO4 5636   8.241   5.513  10.945  0.1505 -0.2311  0.0769
  353loPI   GL1 5637   8.079   5.399  10.547 -0.0399 -0.2480  0.2243
  353loPI   GL2 5638   7.950   5.391  10.198 -0.4964 -0.3084 -0.1591
  353loPI   C1A 5639   8.257   5.727  10.292 -0.1618  0.1114  0.2387
  353loPI   C2A 5640   8.313   5.868   9.832 -0.0497 -0.1388 -0.0925
  353loPI   C3A 5641   8.283   5.901   9.437  0.0167  0.3002 -0.1549
  353loPI   C4A 5642   8.300   5.978   8.973 -0.0285  0.1622 -0.1996
  353loPI   C5A 5643   8.241   5.975   8.538 -0.1500  0.1423 -0.3890
  353loPI   C6A 5644   8.328   5.945   8.084 -0.1659  0.2855  0.3307
  353loPI   C1B 5645   8.100   5.437   9.715 -0.4086 -0.2439  0.0693
  353loPI   C2B 5646   8.077   5.481   9.282 -0.0768 -0.0414 -0.1315
  353loPI   C3B 5647   8.122   5.519   8.851  0.0309 -0.3476 -0.3435
  353loPI   C4B 5648   7.937   5.483   8.432  0.4235 -0.3807 -0.2119
  354loPI    C1 5649  17.387  14.736  10.752 -0.0351  0.1616 -0.0674
  354loPI    C2 5650  17.003  14.843  10.784 -0.1022 -0.0991  0.0158
  354loPI    C3 5651  17.113  14.567  10.516  0.0062 -0.1225  0.0834
  354loPI   PO4 5652  17.552  14.980  10.697 -0.2429 -0.0433  0.0305
  354loPI   GL1 5653  17.373  15.188  10.294 -0.0079  0.2563 -0.2352
  354loPI   GL2 5654  17.174  15.037  10.308  0.0821 -0.0538 -0.0569
  354loPI   C1A 5655  17.285  15.142   9.770 -0.0816 -0.0372 -0.2515
  354loPI   C2A 5656  17.243  15.070   9.336 -0.0602 -0.0214  0.1669
  354loPI   C3A 5657  17.321  14.995   8.977 -0.0225  0.1284 -0.0706
  354loPI   C4A 5658  17.311  15.053   8.588  0.0993  0.3121 -0.1125
  354loPI   C5A 5659  17.118  14.983   8.230  0.1221 -0.0890  0.2280
  354loPI   C6A 5660  16.931  14.889   7.871  0.0510 -0.2548  0.0524
  354loPI   C1B 5661  17.058  14.680   9.992  0.0948 -0.1991  0.1265
  354loPI   C2B 5662  16.995  14.618   9.534  0.0211 -0.0002 -0.2701
  354loPI   C3B 5663  17.049  14.644   9.137 -0.1089 -0.1578  0.4479
  354loPI   C4B 5664  17.059  14.597   8.668  0.0369 -0.3746  0.2330
  355loPI    C1 5665   1.849   4.206  10.034  0.3185 -0.0221  0.2155
  355loPI    C2 5666   1.603   4.300  10.334 -0.0199 -0.1020 -0.0306
  355loPI    C3 5667   1.873   4.009  10.381 -0.0292 -0.0739  0.2136
  355loPI   PO4 5668   1.784   4.299   9.835  0.0732  0.1813  0.0898
  355loPI   GL1 5669   1.710   4.198   9.425 -0.0377  0.1703  0.2307
  355loPI   GL2 5670   1.483   4.013   9.368 -0.1693 -0.1132 -0.1656
  355loPI   C1A 5671   1.943   4.300   9.110 -0.0827 -0.0282  0.1345
  355loPI   C2A 5672   2.123   4.240   8.738 -0.0670 -0.1784  0.0792
  355loPI   C3A 5673   2.198   4.197   8.305 -0.0260 -0.1058  0.1466
  355loPI   C4A 5674   2.009   4.017   8.029  0.0245  0.1887  0.3371
  355loPI   C5A 5675   1.733   4.045   7.755 -0.2222 -0.2969  0.1609
  355loPI   C6A 5676   1.395   3.911   7.547  0.0287 -0.1056 -0.1540
  355loPI   C1B 5677   1.576   4.015   8.861 -0.0042  0.1714 -0.2630
  355loPI   C2B 5678   1.624   4.073   8.444  0.0134 -0.1529 -0.1311
  355loPI   C3B 5679   1.391   4.053   8.128 -0.0635 -0.2326 -0.0167
  355loPI   C4B 5680   1.373   4.337   7.934  0.2176 -0.0217  0.3302
  356loPI    C1 5681  13.291  15.389  10.918  0.0951 -0.0833  0.0834
  356loPI    C2 5682  13.567  15.199  11.137  0.0201  0.0345  0.2826
  356loPI    C3 5683  13.191  15.228  11.271 -0.1040 -0.1706 -0.0110
  356loPI   PO4 5684  13.362  15.382  10.610  0.0252 -0.0801  0.1916
  356loPI   GL1 5685  13.176  15.241  10.257 -0.2667 -0.1528  0.0336
  356loPI   GL2 5686  12.913  15.305  10.245 -0.3476  0.3713 -0.0308
  356loPI   C1A 5687  13.311  15.275   9.830  0.0460  0.2640  0.1616
  356loPI   C2A 5688  13.335  15.324   9.395 -0.4051  0.0989 -0.0987
  356loPI   C3A 5689  13.298  15.375   8.923  0.1085 -0.1359 -0.0720
  356loPI   C4A 5690  13.208  15.532   8.408  0.0388  0.1155  0.1630
  356loPI   C5A 5691  13.400  15.661   7.980  0.0380  0.2190 -0.0001
  356loPI   C6A 5692  13.703  16.104   7.841  0.2809  0.0187 -0.0931
  356loPI   C1B 5693  12.812  15.265   9.699 -0.0208  0.0375  0.0031
  356loPI   C2B 5694  12.765  15.257   9.184  0.0379  0.0357  0.0163
  356loPI   C3B 5695  12.814  15.337   8.704 -0.1252  0.0378 -0.2787
  356loPI   C4B 5696  12.655  15.091   8.339  0.1132 -0.0686 -0.0839
  357loPI    C1 5697   6.327   0.252  11.034 -0.0174 -0.0398  0.1415
  357loPI    C2 5698   6.560   0.555  11.151  0.2362 -0.1718 -0.0121
  357loPI    C3 5699   6.447   0.276  11.415 -0.0458  0.0828  0.1431
  357loPI   PO4 5700   6.355   0.264  10.811  0.0151  0.0872 -0.2560
  357loPI   GL1 5701   6.383   0.097  10.463 -0.2391  0.0238  0.2344
  357loPI   GL2 5702   6.098   0.301  10.318  0.0154  0.2806 -0.0970
  357loPI   C1A 5703   6.480  -0.174  10.257 -0.1026  0.2576  0.0388
  357loPI   C2A 5704   6.550  -0.225   9.870  0.3591 -0.1136 -0.1399
  357loPI   C3A 5705   6.562  -0.135   9.416  0.0786 -0.0559  0.2854
  357loPI   C4A 5706   6.467  -0.091   8.932 -0.1722  0.0657  0.0569
  357loPI   C5A 5707   6.609   0.044   8.540 -0.2380  0.0683 -0.4001
  357loPI   C6A 5708   6.614   0.285   8.210  0.4822  0.0811 -0.0211
  357loPI   C1B 5709   6.300   0.268   9.889  0.3930  0.1375  0.3145
  357loPI   C2B 5710   6.155   0.208   9.485  0.2344 -0.1109 -0.1086
  357loPI   C3B 5711   6.212   0.338   9.123  0.0958  0.3371 -0.1049
  357loPI   C4B 5712   6.175   0.345   8.754  0.2266  0.0084 -0.0840
  358loPI    C1 5713  15.987  10.344  10.827 -0.0671  0.4586  0.0831
  358loPI    C2 5714  16.211  10.547  11.089  0.2010  0.1247  0.1197
  358loPI    C3 5715  15.872  10.373  11.209  0.2017  0.1714  0.1901
  358loPI   PO4 5716  15.981  10.473  10.609  0.0586  0.3040  0.2934
  358loPI   GL1 5717  16.094  10.608  10.251  0.1181  0.1945  0.1297
  358loPI   GL2 5718  15.959  10.435  10.101  0.0396  0.2146 -0.1573
  358loPI   C1A 5719  16.177  10.893   9.934 -0.1468 -0.0423 -0.2161
  358loPI   C2A 5720  16.344  10.966   9.503  0.2059 -0.0988 -0.0459
  358loPI   C3A 5721  16.226  11.020   9.046 -0.0390  0.0214  0.1439
  358loPI   C4A 5722  16.286  10.896   8.575 -0.2144  0.0766  0.0391
  358loPI   C5A 5723  16.162  10.806   8.258  0.2423 -0.0962  0.0111
  358loPI   C6A 5724  16.206  10.505   8.022  0.3356  0.0208 -0.0819
  358loPI   C1B 5725  16.093  10.403   9.774 -0.0372 -0.2967 -0.2438
  358loPI   C2B 5726  16.120  10.422   9.423  0.1990 -0.0860 -0.1407
  358loPI   C3B 5727  16.016  10.474   9.028  0.3970  0.2881  0.0026
  358loPI   C4B 5728  15.998  10.522   8.658  0.1278 -0.1514  0.1334
  359loPI    C1 5729   0.597  10.883  11.105 -0.0184  0.2154 -0.0348
  359loPI    C2 5730   0.930  10.759  10.920 -0.0715  0.0185 -0.0010
  359loPI    C3 5731   0.808  10.578  11.256 -0.3023 -0.0198 -0.1033
  359loPI   PO4 5732   0.401  10.988  10.993  0.1173  0.1716 -0.1481
  359loPI   GL1 5733   0.310  10.686  10.630 -0.1243 -0.0285 -0.3927
  359loPI   GL2 5734   0.031  10.538  10.411  0.0044 -0.1002 -0.0732
  359loPI   C1A 5735   0.512  10.575  10.198 -0.3528 -0.1931 -0.0303
  359loPI   C2A 5736   0.576  10.795   9.717  0.2292 -0.0079  0.2063
  359loPI   C3A 5737   0.501  10.847   9.285  0.2953 -0.1115  0.1987
  359loPI   C4A 5738   0.585  10.756   8.949  0.2967  0.1783  0.0066
  359loPI   C5A 5739   0.553  10.922   8.573  0.1962 -0.0658  0.0304
  359loPI   C6A 5740   0.789  11.041   8.226 -0.1884 -0.1400  0.3592
  359loPI   C1B 5741  -0.041  10.672  10.005 -0.0455  0.2023 -0.0062
  359loPI   C2B 5742   0.088  10.799   9.502  0.0472  0.0312 -0.0153
  359loPI   C3B 5743  -0.054  10.771   9.101 -0.0632  0.3946  0.6110
  359loPI   C4B 5744   0.118  10.749   8.702 -0.1281 -0.2345 -0.1401
  360loPI    C1 5745   6.089  15.963  11.305 -0.0309 -0.1923 -0.0468
  360loPI    C2 5746   6.304  16.293  11.238  0.0803 -0.2189  0.1701
  360loPI    C3 5747   6.487  15.952  11.337 -0.0308 -0.3590 -0.0971
  360loPI   PO4 5748   5.881  15.970  11.085 -0.0259 -0.2199  0.1137
  360loPI   GL1 5749   5.769  16.099  10.720  0.0464 -0.0222  0.1253
  360loPI   GL2 5750   5.584  15.831  10.639  0.0741  0.3585 -0.2955
  360loPI   C1A 5751   5.853  16.236  10.288  0.0813  0.0994  0.1936
  360loPI   C2A 5752   6.097  16.265   9.884 -0.2372  0.1182 -0.0711
  360loPI   C3A 5753   6.057  16.196   9.509  0.0751 -0.4147 -0.1377
  360loPI   C4A 5754   6.139  16.259   9.081 -0.1747 -0.2428  0.0366
  360loPI   C5A 5755   6.089  16.157   8.621  0.4870  0.0864 -0.0606
  360loPI   C6A 5756   5.726  16.250   8.380 -0.0134  0.1209 -0.2924
  360loPI   C1B 5757   5.410  15.824  10.306  0.0568  0.1194  0.1409
  360loPI   C2B 5758   5.349  15.769   9.872 -0.2354  0.0162  0.0801
  360loPI   C3B 5759   5.329  15.658   9.520 -0.3006 -0.0830  0.1245
  360loPI   C4B 5760   5.459  15.660   9.231  0.0655  0.1415 -0.1253
  361loPI    C1 5761   7.268   1.572  11.053 -0.1794 -0.1203 -0.1338
  361loPI    C2 5762   7.325   1.329  11.365 -0.2297  0.0073 -0.0244
  361loPI    C3 5763   7.226   1.712  11.425  0.1155  0.1269 -0.1897
  361loPI   PO4 5764   7.003   1.551  10.816 -0.0579 -0.3355 -0.1441
  361loPI   GL1 5765   6.823   1.347  10.534  0.0365 -0.1166 -0.2956
  361loPI   GL2 5766   6.693   1.688  10.422  0.2420  0.1403 -0.1568
  361loPI   C1A 5767   6.664   1.214  10.196 -0.0911 -0.5128  0.0708
  361loPI   C2A 5768   6.661   1.299   9.771 -0.1318  0.1508  0.0702
  361loPI   C3A 5769   6.620   1.313   9.309 -0.0913  0.2013  0.0724
  361loPI   C4A 5770   6.607   1.286   8.995  0.0834  0.1946  0.1105
  361loPI   C5A 5771   6.573   1.121   8.551 -0.1158 -0.2825  0.0703
  361loPI   C6A 5772   6.914   0.974   8.311  0.3152  0.1206  0.2756
  361loPI   C1B 5773   6.877   1.698   9.945 -0.1464 -0.1500 -0.1270
  361loPI   C2B 5774   6.866   1.699   9.525  0.0726 -0.0193 -0.1320
  361loPI   C3B 5775   6.854   1.763   9.133 -0.1692  0.0117  0.4487
  361loPI   C4B 5776   6.940   1.738   8.751 -0.2441 -0.0972  0.0169
  362loPI    C1 5777  14.966   6.422   9.969  0.0681  0.0087 -0.1129
  362loPI    C2 5778  15.097   6.533  10.331 -0.1635  0.2522 -0.1012
  362loPI    C3 5779  15.348   6.530  10.020 -0.0310  0.3170  0.0044
  362loPI   PO4 5780  14.768   6.518   9.948  0.3425  0.0501  0.1135
  362loPI   GL1 5781  14.544   6.666   9.524  0.1968 -0.1496 -0.0529
  362loPI   GL2 5782  14.786   6.422   9.435 -0.0034 -0.3066  0.0240
  362loPI   C1A 5783  14.353   7.019   9.270  0.1260  0.1074 -0.0754
  362loPI   C2A 5784  14.052   7.003   8.954 -0.1543 -0.0408  0.0681
  362loPI   C3A 5785  13.940   7.120   8.486 -0.0033 -0.0921 -0.1207
  362loPI   C4A 5786  13.900   7.293   8.108 -0.2316 -0.3055  0.1313
  362loPI   C5A 5787  14.007   7.334   7.641  0.0547 -0.0575  0.2432
  362loPI   C6A 5788  14.287   7.292   7.303 -0.2877  0.1558  0.1710
  362loPI   C1B 5789  14.705   6.454   9.012 -0.0456  0.0547  0.2865
  362loPI   C2B 5790  14.527   6.403   8.606  0.1102 -0.2056  0.1751
  362loPI   C3B 5791  14.735   6.533   8.153  0.0007  0.1140  0.2399
  362loPI   C4B 5792  14.890   6.372   7.840  0.5439  0.2096 -0.2686
  363loPI    C1 5793  17.963   4.890   9.700  0.0735 -0.1583  0.2102
  363loPI    C2 5794  17.803   5.250   9.771 -0.0553 -0.1176 -0.2579
  363loPI    C3 5795  17.875   5.000  10.075 -0.3172  0.1533  0.0337
  363loPI   PO4 5796  17.735   4.822   9.457 -0.1642  0.1040 -0.0651
  363loPI   GL1 5797  17.640   4.607   9.124  0.0322 -0.1334  0.3336
  363loPI   GL2 5798  17.639   4.241   8.980  0.4383  0.0443  0.1064
  363loPI   C1A 5799  17.616   4.797   8.652 -0.2114 -0.1915 -0.3901
  363loPI   C2A 5800  17.671   4.637   8.304  0.0782  0.2921 -0.0747
  363loPI   C3A 5801  17.578   4.649   7.853  0.2753 -0.0297 -0.0955
  363loPI   C4A 5802  17.525   4.421   7.452  0.1364 -0.0672  0.1249
  363loPI   C5A 5803  17.830   4.058   7.472 -0.0912 -0.0732  0.0796
  363loPI   C6A 5804  18.299   3.923   7.464  0.1382  0.2266 -0.2238
  363loPI   C1B 5805  17.659   4.231   8.553 -0.2947  0.1078 -0.0107
  363loPI   C2B 5806  17.641   4.170   8.121  0.2939 -0.3357 -0.0688
  363loPI   C3B 5807  17.445   4.008   7.892 -0.0335 -0.0959  0.0687
  363loPI   C4B 5808  17.159   4.047   7.572  0.2067  0.0151 -0.0325
  364loPI    C1 5809   3.788   3.517  10.724 -0.1331  0.3464 -0.1919
  364loPI    C2 5810   4.070   3.709  10.934  0.0719 -0.1730  0.0247
  364loPI    C3 5811   3.720   3.618  11.105 -0.0619  0.0815 -0.1072
  364loPI   PO4 5812   3.825   3.630  10.480 -0.0215  0.2874 -0.0102
  364loPI   GL1 5813   3.782   3.822  10.076  0.1127  0.2191  0.0793
  364loPI   GL2 5814   4.145   3.808  10.073 -0.2465  0.2349 -0.1217
  364loPI   C1A 5815   3.741   3.852   9.637 -0.1230  0.0857  0.3649
  364loPI   C2A 5816   3.779   3.768   9.208 -0.1259  0.0635  0.1328
  364loPI   C3A 5817   3.885   3.759   8.756  0.0242 -0.1153  0.0825
  364loPI   C4A 5818   3.970   3.826   8.305 -0.0172 -0.1134 -0.0164
  364loPI   C5A 5819   3.719   4.092   8.019 -0.3054 -0.0582  0.1930
  364loPI   C6A 5820   3.405   4.271   8.125  0.1946 -0.3712 -0.2033
  364loPI   C1B 5821   4.248   3.804   9.568 -0.1447  0.0127 -0.1182
  364loPI   C2B 5822   4.295   3.835   9.110 -0.0307 -0.3572 -0.1172
  364loPI   C3B 5823   4.503   3.833   8.691 -0.1303  0.1235  0.2743
  364loPI   C4B 5824   4.596   3.880   8.240  0.0506 -0.1654  0.0918
  365loPI    C1 5825  11.599  12.809  10.821  0.1469  0.1251 -0.1896
  365loPI    C2 5826  11.432  12.858  11.182  0.1936  0.0064 -0.1512
  365loPI    C3 5827  11.735  12.601  11.135  0.1627 -0.0067 -0.2830
  365loPI   PO4 5828  11.680  13.110  10.765 -0.0807 -0.3295 -0.4119
  365loPI   GL1 5829  12.049  13.284  10.559  0.2858 -0.2422 -0.0494
  365loPI   GL2 5830  11.909  13.358  10.304  0.1638  0.0246  0.1483
  365loPI   C1A 5831  12.357  13.529  10.284  0.1545  0.0681 -0.1051
  365loPI   C2A 5832  12.362  13.512   9.902  0.3019 -0.0126 -0.2333
  365loPI   C3A 5833  12.339  13.443   9.523  0.1022 -0.1504 -0.1622
  365loPI   C4A 5834  12.322  13.582   9.131 -0.2842  0.0966  0.2209
  365loPI   C5A 5835  12.520  13.625   8.711  0.2780 -0.1699  0.1469
  365loPI   C6A 5836  12.700  13.904   8.450 -0.0494 -0.0384  0.2188
  365loPI   C1B 5837  11.840  13.418   9.906 -0.1042  0.3379  0.0624
  365loPI   C2B 5838  11.729  13.411   9.556 -0.2256  0.0099 -0.0757
  365loPI   C3B 5839  11.865  13.411   9.174 -0.0290 -0.0901  0.0062
  365loPI   C4B 5840  11.811  13.521   8.799  0.1584 -0.0496  0.1626
  366loPI    C1 5841   6.011  12.130  10.930  0.1544  0.1786  0.0898
  366loPI    C2 5842   5.784  12.353  11.173  0.0720  0.2148 -0.0197
  366loPI    C3 5843   6.026  12.073  11.326 -0.2961 -0.0569  0.0791
  366loPI   PO4 5844   5.907  12.070  10.714  0.1189  0.0909 -0.1771
  366loPI   GL1 5845   5.688  12.211  10.367 -0.0728  0.2157 -0.0468
  366loPI   GL2 5846   5.905  12.445  10.308 -0.2752  0.2157  0.1060
  366loPI   C1A 5847   5.782  12.104   9.900  0.3687  0.0948 -0.2723
  366loPI   C2A 5848   5.691  12.068   9.409 -0.1750  0.0304 -0.1523
  366loPI   C3A 5849   5.622  12.058   8.914 -0.0727 -0.1180  0.1201
  366loPI   C4A 5850   5.590  12.127   8.390 -0.0831  0.0802  0.2804
  366loPI   C5A 5851   5.477  12.332   7.945  0.2703  0.2997 -0.1301
  366loPI   C6A 5852   5.827  12.465   7.691  0.2482  0.0991  0.1996
  366loPI   C1B 5853   5.896  12.618   9.950  0.1348 -0.2082 -0.3337
  366loPI   C2B 5854   5.843  12.633   9.476  0.1048  0.0045  0.0649
  366loPI   C3B 5855   5.833  12.471   9.128 -0.1492 -0.0184  0.2248
  366loPI   C4B 5856   5.827  12.597   8.772  0.0659 -0.1706 -0.0256
  367loPI    C1 5857  10.170   0.597  11.025  0.0391 -0.3273 -0.2173
  367loPI    C2 5858  10.409   0.399  11.276  0.1861  0.0485 -0.0529
  367loPI    C3 5859  10.370   0.795  11.309 -0.3693  0.0100 -0.1555
  367loPI   PO4 5860  10.075   0.392  10.913  0.0796  0.0185 -0.4495
  367loPI   GL1 5861  10.110   0.053  10.455 -0.4718 -0.2820  0.0979
  367loPI   GL2 5862   9.823   0.272  10.510  0.5170  0.0338 -0.5452
  367loPI   C1A 5863  10.100   0.247   9.927  0.0853  0.0038  0.0117
  367loPI   C2A 5864  10.069   0.219   9.473  0.1245  0.0619 -0.1627
  367loPI   C3A 5865  10.084   0.149   8.956 -0.0320  0.0701 -0.0785
  367loPI   C4A 5866   9.944   0.054   8.548  0.0889 -0.4463 -0.2518
  367loPI   C5A 5867   9.635   0.242   8.305  0.2414 -0.1470  0.1259
  367loPI   C6A 5868   9.187   0.248   8.063 -0.1938  0.0397  0.1169
  367loPI   C1B 5869   9.650   0.156  10.085 -0.3505  0.4639 -0.2159
  367loPI   C2B 5870   9.600   0.153   9.652  0.0783  0.2637  0.3469
  367loPI   C3B 5871   9.580   0.159   9.191 -0.2768  0.1359 -0.1947
  367loPI   C4B 5872   9.506   0.162   8.837 -0.2065  0.0850 -0.0050
  368loPI    C1 5873   5.762   4.083  10.968  0.0894  0.2105 -0.1204
  368loPI    C2 5874   5.806   4.034  11.363  0.0062 -0.1618 -0.1533
  368loPI    C3 5875   5.442   4.095  11.208  0.0451  0.0378 -0.1689
  368loPI   PO4 5876   5.846   3.942  10.866 -0.0781  0.0162  0.1175
  368loPI   GL1 5877   6.019   4.061  10.461  0.3254 -0.1280 -0.2470
  368loPI   GL2 5878   6.400   4.087  10.364 -0.0490  0.1091 -0.2768
  368loPI   C1A 5879   5.717   3.948  10.042 -0.1287  0.0073  0.1009
  368loPI   C2A 5880   5.803   3.919   9.691 -0.1020 -0.0142  0.0743
  368loPI   C3A 5881   5.886   3.802   9.366  0.0850 -0.0237  0.1717
  368loPI   C4A 5882   5.921   4.000   8.953  0.2111  0.1991 -0.0049
  368loPI   C5A 5883   5.884   3.901   8.529 -0.0134  0.0523  0.0070
  368loPI   C6A 5884   6.169   3.987   8.187 -0.0207 -0.1388 -0.1438
  368loPI   C1B 5885   6.255   3.964   9.896 -0.1338 -0.0931 -0.1942
  368loPI   C2B 5886   6.390   3.900   9.503 -0.0243 -0.0479  0.2807
  368loPI   C3B 5887   6.406   4.039   9.111 -0.0215 -0.3459  0.1893
  368loPI   C4B 5888   6.472   4.037   8.619  0.2632  0.0711  0.2660
  369loPI    C1 5889   2.808   0.728  10.965 -0.0323 -0.0555  0.2020
  369loPI    C2 5890   2.925   0.812  11.338  0.1980  0.0524  0.1069
  369loPI    C3 5891   2.543   0.862  11.233  0.1166 -0.0498  0.3483
  369loPI   PO4 5892   3.061   0.833  10.781  0.1235  0.0266 -0.1885
  369loPI   GL1 5893   3.148   0.932  10.334  0.0228 -0.0321 -0.0370
  369loPI   GL2 5894   2.968   1.050  10.262  0.0154 -0.0712  0.0086
  369loPI   C1A 5895   3.397   0.955   9.938 -0.1044  0.1066  0.2598
  369loPI   C2A 5896   3.395   0.989   9.499  0.1604 -0.1006 -0.0656
  369loPI   C3A 5897   3.447   0.952   9.091  0.1904 -0.0639 -0.0556
  369loPI   C4A 5898   3.626   0.956   8.675  0.0318 -0.4068  0.1178
  369loPI   C5A 5899   3.576   0.989   8.288 -0.4310  0.1948  0.0506
  369loPI   C6A 5900   3.706   0.543   7.963  0.2911 -0.0040  0.1059
  369loPI   C1B 5901   2.876   0.938   9.870  0.2703 -0.1013 -0.1180
  369loPI   C2B 5902   2.898   0.949   9.408 -0.3300  0.3519  0.1383
  369loPI   C3B 5903   2.999   0.800   9.008 -0.0251  0.1222 -0.0325
  369loPI   C4B 5904   3.071   0.910   8.540 -0.1324  0.3211  0.4765
  370loPI    C1 5905  17.261  15.501  11.116  0.1304  0.0425  0.0268
  370loPI    C2 5906  17.539  15.213  11.129  0.0885 -0.0006 -0.0313
  370loPI    C3 5907  17.196  15.170  11.331  0.0298 -0.0474 -0.1404
  370loPI   PO4 5908  17.196  15.458  10.865  0.2164  0.1575  0.1654
  370loPI   GL1 5909  17.109  15.583  10.474  0.0063  0.1254  0.1268
  370loPI   GL2 5910  17.414  15.788  10.425  0.2059 -0.3496 -0.1672
  370loPI   C1A 5911  16.997  15.525  10.041  0.4041  0.3884 -0.0153
  370loPI   C2A 5912  17.082  15.569   9.612  0.2608 -0.0798  0.0782
  370loPI   C3A 5913  17.013  15.471   9.211 -0.0623  0.2089 -0.1277
  370loPI   C4A 5914  17.065  15.488   8.818 -0.0608  0.0180 -0.2683
  370loPI   C5A 5915  17.144  15.456   8.308  0.3128  0.1102 -0.2565
  370loPI   C6A 5916  17.119  15.517   7.945 -0.1895  0.1453  0.2866
  370loPI   C1B 5917  17.461  15.712  10.048  0.2915  0.0572  0.0231
  370loPI   C2B 5918  17.534  15.675   9.553 -0.2852  0.1136 -0.0114
  370loPI   C3B 5919  17.556  15.541   9.098 -0.0263  0.1436  0.2767
  370loPI   C4B 5920  17.523  15.622   8.599  0.0366 -0.0204 -0.1696
  371loPI    C1 5921  17.942  15.945  10.863 -0.0686  0.0842  0.0641
  371loPI    C2 5922  17.542  15.939  10.858 -0.0660  0.0016 -0.2162
  371loPI    C3 5923  17.742  15.703  11.111 -0.1929 -0.0753 -0.1869
  371loPI   PO4 5924  17.988  15.965  10.627  0.0031 -0.3154  0.3737
  371loPI   GL1 5925  18.018  15.763  10.241  0.0405  0.2475  0.0605
  371loPI   GL2 5926  18.327  15.773  10.207 -0.1130  0.4565 -0.1214
  371loPI   C1A 5927  17.961  15.657   9.866  0.1075 -0.1994 -0.1438
  371loPI   C2A 5928  18.049  15.627   9.418  0.0638  0.2206  0.1327
  371loPI   C3A 5929  18.062  15.673   8.981 -0.1250 -0.2400  0.1931
  371loPI   C4A 5930  18.050  15.627   8.580  0.0816  0.2785  0.2085
  371loPI   C5A 5931  18.207  15.355   8.325  0.0139 -0.2025 -0.1087
  371loPI   C6A 5932  18.544  15.184   8.236 -0.2155 -0.0102 -0.2530
  371loPI   C1B 5933  18.503  15.696   9.816 -0.1337  0.2185  0.0980
  371loPI   C2B 5934  18.553  15.709   9.370  0.0203 -0.1295  0.0195
  371loPI   C3B 5935  18.567  15.678   8.874 -0.1634 -0.0500  0.3781
  371loPI   C4B 5936  18.541  15.703   8.478  0.0975  0.0678 -0.1667
  372loPI    C1 5937  17.694   7.476  10.271  0.1490 -0.2627  0.1057
  372loPI    C2 5938  17.904   7.676  10.547  0.1906 -0.1624  0.0025
  372loPI    C3 5939  17.602   7.437  10.658  0.1411 -0.0429  0.1269
  372loPI   PO4 5940  17.708   7.529   9.970  0.3959  0.2801  0.2995
  372loPI   GL1 5941  17.588   7.501   9.591  0.1781  0.1989 -0.0679
  372loPI   GL2 5942  17.679   7.255   9.374  0.1934  0.0929 -0.3206
  372loPI   C1A 5943  17.589   7.780   9.271  0.1007  0.0870  0.1399
  372loPI   C2A 5944  17.520   7.926   8.831 -0.0146  0.0428  0.0500
  372loPI   C3A 5945  17.250   7.754   8.566  0.0455 -0.2785  0.4891
  372loPI   C4A 5946  17.176   7.818   8.057 -0.0954  0.0650  0.1879
  372loPI   C5A 5947  17.196   8.151   7.684  0.1605 -0.4284  0.0584
  372loPI   C6A 5948  17.339   8.521   7.664  0.0210  0.0798  0.1566
  372loPI   C1B 5949  17.821   7.360   8.936  0.4011 -0.1349 -0.0482
  372loPI   C2B 5950  18.180   7.483   8.738 -0.3371  0.1096  0.2115
  372loPI   C3B 5951  18.234   7.784   8.431 -0.2125  0.1595 -0.1849
  372loPI   C4B 5952  18.127   8.070   8.082 -0.1306 -0.0890 -0.2773
  373loPI    C1 5953  10.706  10.820  11.482 -0.2451  0.0982  0.0202
  373loPI    C2 5954  11.082  10.815  11.345 -0.2062 -0.0658  0.1294
  373loPI    C3 5955  11.013  10.835  11.738 -0.3088 -0.2497  0.1216
  373loPI   PO4 5956  10.597  10.925  11.185  0.0456  0.3214  0.1267
  373loPI   GL1 5957  10.592  10.917  10.687  0.1150 -0.3897 -0.0151
  373loPI   GL2 5958  10.285  10.934  10.543 -0.3361  0.1995  0.0145
  373loPI   C1A 5959  10.740  11.121  10.341  0.0481  0.0711  0.0041
  373loPI   C2A 5960  10.741  11.158   9.876  0.0675  0.0377 -0.1054
  373loPI   C3A 5961  10.736  11.074   9.423  0.2227  0.2087  0.0220
  373loPI   C4A 5962  10.731  11.104   9.025  0.1913 -0.4296 -0.0600
  373loPI   C5A 5963  10.745  11.096   8.589 -0.0343  0.2359  0.0982
  373loPI   C6A 5964  10.569  10.952   8.225 -0.3134  0.0816  0.5232
  373loPI   C1B 5965  10.249  11.028  10.084 -0.0758 -0.1020 -0.3440
  373loPI   C2B 5966  10.273  11.072   9.606 -0.2497 -0.1461 -0.0184
  373loPI   C3B 5967  10.271  11.104   9.203  0.1769  0.3265 -0.2501
  373loPI   C4B 5968  10.202  11.064   8.763 -0.2068 -0.1313  0.3039
  374loPI    C1 5969   7.718  12.036  11.472 -0.0610  0.0266 -0.1058
  374loPI    C2 5970   7.398  12.263  11.554  0.0073  0.0690  0.0464
  374loPI    C3 5971   7.354  11.871  11.487 -0.0467  0.0237  0.3342
  374loPI   PO4 5972   7.889  12.236  11.319 -0.0566  0.1731 -0.3561
  374loPI   GL1 5973   8.075  12.345  10.952 -0.1066  0.1578  0.0427
  374loPI   GL2 5974   7.833  12.251  10.777  0.2454  0.0850  0.2000
  374loPI   C1A 5975   8.240  12.199  10.551 -0.1047  0.2210 -0.1044
  374loPI   C2A 5976   8.285  12.245  10.156 -0.0459 -0.0067 -0.0069
  374loPI   C3A 5977   8.302  12.227   9.721 -0.1443  0.1239  0.0262
  374loPI   C4A 5978   8.281  12.189   9.217  0.1284  0.0643 -0.4893
  374loPI   C5A 5979   8.429  12.279   8.803  0.0280  0.0684  0.0489
  374loPI   C6A 5980   8.644  12.608   8.788  0.1796 -0.2949  0.2310
  374loPI   C1B 5981   7.715  12.150  10.375  0.2811 -0.1938 -0.0126
  374loPI   C2B 5982   7.707  12.183   9.934  0.0745 -0.2457  0.1734
  374loPI   C3B 5983   7.810  12.176   9.494  0.0488  0.0024 -0.1731
  374loPI   C4B 5984   7.671  12.248   9.083 -0.2120  0.0955 -0.0312
  375loPI    C1 5985  15.483   4.134   9.808  0.0230  0.0764  0.0999
  375loPI    C2 5986  15.259   3.802   9.812 -0.4099  0.3587  0.0707
  375loPI    C3 5987  15.438   3.928  10.148  0.3301 -0.2650 -0.0594
  375loPI   PO4 5988  15.390   4.255   9.706 -0.1456 -0.0636 -0.2123
  375loPI   GL1 5989  15.299   4.054   9.311 -0.1955 -0.2811 -0.3541
  375loPI   GL2 5990  15.593   4.147   9.201  0.3523  0.1801  0.0674
  375loPI   C1A 5991  15.235   3.931   8.926  0.2506 -0.1760 -0.2163
  375loPI   C2A 5992  15.192   3.834   8.505 -0.2423 -0.2044 -0.2609
  375loPI   C3A 5993  15.271   3.613   8.153  0.2774 -0.0465 -0.2622
  375loPI   C4A 5994  15.372   3.519   7.750 -0.0990 -0.0651 -0.3654
  375loPI   C5A 5995  15.305   3.583   7.351  0.2118 -0.0505  0.1261
  375loPI   C6A 5996  15.178   4.010   7.081 -0.0993  0.0694  0.1309
  375loPI   C1B 5997  15.610   4.210   8.785 -0.0125 -0.0065 -0.1745
  375loPI   C2B 5998  15.593   4.118   8.340 -0.0079  0.1699 -0.2673
  375loPI   C3B 5999  15.521   4.012   7.910 -0.0129  0.0179 -0.1212
  375loPI   C4B 6000  15.287   4.103   7.594  0.0381 -0.0881 -0.1705
  376loPI    C1 6001   5.435   6.775  10.930 -0.3051 -0.2073  0.0112
  376loPI    C2 6002   5.439   6.375  10.912  0.0955 -0.2108  0.0874
  376loPI    C3 6003   5.495   6.560  11.262 -0.3264 -0.0856  0.0944
  376loPI   PO4 6004   5.560   6.836  10.720  0.2459  0.3325  0.0995
  376loPI   GL1 6005   5.832   6.882  10.381 -0.0602 -0.2942  0.0615
  376loPI   GL2 6006   6.114   6.710  10.275 -0.3072 -0.1150  0.1540
  376loPI   C1A 6007   5.828   7.035   9.963  0.2465 -0.0977 -0.0575
  376loPI   C2A 6008   5.875   7.146   9.601 -0.0831  0.0018 -0.4398
  376loPI   C3A 6009   5.857   7.175   9.116  0.1859 -0.0105 -0.4478
  376loPI   C4A 6010   5.886   7.213   8.676 -0.0483 -0.0168 -0.0354
  376loPI   C5A 6011   6.047   7.146   8.240  0.0075 -0.2789 -0.0583
  376loPI   C6A 6012   6.284   7.333   7.901 -0.0568  0.0602 -0.0891
  376loPI   C1B 6013   6.041   6.638   9.876  0.1614 -0.0648  0.0330
  376loPI   C2B 6014   6.072   6.700   9.455  0.1715 -0.0710  0.2014
  376loPI   C3B 6015   6.201   6.722   9.055  0.1619 -0.0506  0.0160
  376loPI   C4B 6016   6.220   6.829   8.709 -0.0118  0.0836 -0.0319
  377loPI    C1 6017  16.359   3.916   9.816  0.1743 -0.0604  0.1894
  377loPI    C2 6018  16.711   4.083   9.728  0.0961  0.0160  0.0177
  377loPI    C3 6019  16.405   4.312   9.844  0.0873 -0.0448  0.1148
  377loPI   PO4 6020  16.295   3.752   9.643  0.2754 -0.1131  0.0189
  377loPI   GL1 6021  16.189   3.674   9.320 -0.3630  0.1018  0.1036
  377loPI   GL2 6022  16.075   3.463   9.122  0.0148 -0.0388 -0.3370
  377loPI   C1A 6023  16.528   3.485   8.916  0.2552  0.0907 -0.2980
  377loPI   C2A 6024  16.561   3.166   8.629 -0.1297 -0.2289 -0.0961
  377loPI   C3A 6025  16.569   2.966   8.267  0.2657  0.1831  0.2067
  377loPI   C4A 6026  16.577   2.837   7.931 -0.2909 -0.1188 -0.0334
  377loPI   C5A 6027  16.432   2.582   7.723  0.0874  0.0133 -0.1497
  377loPI   C6A 6028  16.534   2.282   7.380 -0.4089  0.0489  0.0490
  377loPI   C1B 6029  16.090   3.379   8.698  0.1097  0.0056 -0.2576
  377loPI   C2B 6030  16.067   3.069   8.343  0.1029 -0.1853  0.0793
  377loPI   C3B 6031  16.124   2.830   8.119  0.1135 -0.1020  0.0936
  377loPI   C4B 6032  15.815   2.636   7.808 -0.0432  0.0493 -0.1184
  378loPI    C1 6033   4.030   7.644  11.061 -0.1249  0.2609  0.1520
  378loPI    C2 6034   3.988   7.821  11.417 -0.3156  0.1041  0.2091
  378loPI    C3 6035   3.713   7.560  11.289 -0.0276 -0.1710  0.1373
  378loPI   PO4 6036   4.074   7.861  10.905 -0.1433  0.1440 -0.0334
  378loPI   GL1 6037   4.028   7.798  10.374  0.3023  0.2817  0.2273
  378loPI   GL2 6038   3.826   8.071  10.372 -0.0574 -0.0729 -0.4355
  378loPI   C1A 6039   4.153   7.767   9.982  0.2831 -0.0399 -0.0414
  378loPI   C2A 6040   4.156   7.818   9.596  0.1602  0.1835  0.1416
  378loPI   C3A 6041   4.284   7.963   9.169 -0.1086  0.0712  0.1491
  378loPI   C4A 6042   4.281   7.970   8.837  0.0751  0.1330 -0.0598
  378loPI   C5A 6043   4.215   8.177   8.448 -0.1078  0.0628 -0.0757
  378loPI   C6A 6044   4.115   7.913   8.046  0.0359  0.2354 -0.3489
  378loPI   C1B 6045   3.829   8.230   9.918 -0.2264 -0.1036 -0.2571
  378loPI   C2B 6046   3.904   8.319   9.510  0.2662  0.1111  0.0655
  378loPI   C3B 6047   4.035   8.418   9.046  0.1748 -0.3579 -0.1767
  378loPI   C4B 6048   3.882   8.442   8.614  0.1810 -0.2671 -0.0548
  379loPI    C1 6049   5.768   4.548  10.779  0.2059 -0.0396  0.0038
  379loPI    C2 6050   5.429   4.551  10.991  0.2656  0.2467  0.0996
  379loPI    C3 6051   5.777   4.641  11.168  0.4180 -0.2000  0.0394
  379loPI   PO4 6052   5.729   4.638  10.619 -0.0954  0.1720  0.2137
  379loPI   GL1 6053   5.748   4.858  10.293  0.1389  0.0113  0.0252
  379loPI   GL2 6054   6.072   5.027  10.445  0.2033  0.0101 -0.2621
  379loPI   C1A 6055   5.737   4.805   9.812  0.0195 -0.1280 -0.1080
  379loPI   C2A 6056   5.813   4.838   9.425 -0.0868  0.1584 -0.1147
  379loPI   C3A 6057   5.880   4.935   9.070  0.2013 -0.1657 -0.2683
  379loPI   C4A 6058   6.015   4.857   8.628  0.3407 -0.2672  0.3815
  379loPI   C5A 6059   6.296   4.802   8.297  0.2634  0.0700  0.0636
  379loPI   C6A 6060   6.391   4.735   7.839  0.0502 -0.4914  0.1890
  379loPI   C1B 6061   6.195   4.864  10.092 -0.2947 -0.1006 -0.0295
  379loPI   C2B 6062   6.242   4.862   9.854  0.0518  0.1228 -0.1069
  379loPI   C3B 6063   6.308   4.955   9.423  0.3851  0.2228  0.1945
  379loPI   C4B 6064   6.401   4.932   9.012  0.1421 -0.3155  0.0513
  380loPI    C1 6065  14.283   3.350  10.215  0.1401 -0.1120  0.1422
  380loPI    C2 6066  14.145   3.273  10.583  0.0934 -0.2017  0.1062
  380loPI    C3 6067  14.520   3.403  10.533  0.0285  0.0270  0.2032
  380loPI   PO4 6068  14.130   3.456  10.124  0.4521 -0.0163  0.3761
  380loPI   GL1 6069  13.730   3.455   9.832 -0.1305  0.2562  0.0369
  380loPI   GL2 6070  13.615   3.314   9.622 -0.0844  0.1181  0.3950
  380loPI   C1A 6071  13.770   3.741   9.425 -0.1371  0.3759 -0.2502
  380loPI   C2A 6072  13.720   3.872   9.109  0.1961 -0.0385  0.1678
  380loPI   C3A 6073  13.740   3.888   8.736 -0.1548 -0.0233 -0.0384
  380loPI   C4A 6074  13.997   4.050   8.372  0.1851 -0.3796 -0.2946
  380loPI   C5A 6075  13.999   4.029   7.936 -0.1221 -0.4020  0.4999
  380loPI   C6A 6076  13.905   3.853   7.473 -0.2022  0.2304 -0.0783
  380loPI   C1B 6077  13.549   3.183   9.249 -0.0580  0.1487  0.3059
  380loPI   C2B 6078  13.431   3.058   8.947 -0.0661 -0.2167 -0.2368
  380loPI   C3B 6079  13.298   3.064   8.561 -0.3014 -0.0920  0.2685
  380loPI   C4B 6080  12.978   2.972   8.199  0.1061 -0.1414 -0.2952
  381loPI    C1 6081   3.480   8.530  10.991 -0.1784 -0.2045 -0.1821
  381loPI    C2 6082   3.594   8.231  10.752 -0.1271 -0.2280 -0.1285
  381loPI    C3 6083   3.685   8.221  11.141  0.3497  0.1141 -0.2229
  381loPI   PO4 6084   3.496   8.721  10.737  0.0231  0.1619  0.1344
  381loPI   GL1 6085   3.604   8.523  10.362  0.1637 -0.1709  0.3368
  381loPI   GL2 6086   3.962   8.651  10.148 -0.1209  0.1205  0.1984
  381loPI   C1A 6087   3.490   8.641   9.878  0.0656 -0.0511 -0.1737
  381loPI   C2A 6088   3.492   8.671   9.506 -0.0459  0.0393  0.1434
  381loPI   C3A 6089   3.669   8.797   9.121  0.1368 -0.1711 -0.1045
  381loPI   C4A 6090   3.659   8.962   8.703  0.0254  0.2867 -0.0883
  381loPI   C5A 6091   3.706   9.241   8.369  0.0290  0.0886 -0.2285
  381loPI   C6A 6092   3.875   9.207   8.040  0.0575 -0.2483 -0.3675
  381loPI   C1B 6093   4.040   8.659   9.795 -0.0126 -0.1820 -0.0967
  381loPI   C2B 6094   4.209   8.812   9.368  0.0454  0.1922  0.0055
  381loPI   C3B 6095   4.109   8.866   8.871 -0.0159 -0.0637 -0.2346
  381loPI   C4B 6096   4.119   8.928   8.454 -0.0009 -0.0740  0.1813
  382loPI    C1 6097  17.168   4.566   9.837  0.0416  0.0387 -0.1085
  382loPI    C2 6098  17.561   4.637   9.853  0.0442 -0.0172  0.1088
  382loPI    C3 6099  17.337   4.678  10.182 -0.1178 -0.0687  0.0061
  382loPI   PO4 6100  17.180   4.333   9.738 -0.0482 -0.3426  0.1590
  382loPI   GL1 6101  16.974   4.238   9.292  0.0620 -0.2498  0.1963
  382loPI   GL2 6102  17.222   4.192   9.266 -0.0507 -0.1354  0.0828
  382loPI   C1A 6103  16.627   3.982   8.878  0.0921 -0.1293  0.0435
  382loPI   C2A 6104  16.652   3.762   8.504 -0.2492  0.2455 -0.1335
  382loPI   C3A 6105  16.541   3.506   8.185  0.3707 -0.0037  0.0510
  382loPI   C4A 6106  16.848   3.354   7.959  0.0883  0.2546  0.2429
  382loPI   C5A 6107  17.167   3.479   7.681  0.1257 -0.2861  0.1180
  382loPI   C6A 6108  17.509   3.677   7.423 -0.0632 -0.0989 -0.0279
  382loPI   C1B 6109  17.201   3.985   8.883 -0.1042  0.0392 -0.1688
  382loPI   C2B 6110  17.233   3.980   8.400  0.0637 -0.3683 -0.2234
  382loPI   C3B 6111  17.028   3.812   8.059  0.1565  0.4173 -0.1045
  382loPI   C4B 6112  16.724   4.031   8.085  0.0610 -0.0087 -0.1815
  383loPI    C1 6113  13.364   4.355  10.704 -0.1418 -0.0561 -0.0073
  383loPI    C2 6114  13.206   4.180  11.027 -0.1482 -0.0710 -0.0186
  383loPI    C3 6115  13.433   3.967  10.775  0.1008  0.0104  0.1336
  383loPI   PO4 6116  13.217   4.446  10.575 -0.1065  0.2121  0.0107
  383loPI   GL1 6117  12.884   4.282  10.250 -0.1232  0.2776 -0.2484
  383loPI   GL2 6118  12.706   4.544  10.127  0.2790 -0.0240 -0.0338
  383loPI   C1A 6119  12.993   4.047   9.845  0.1807  0.0801 -0.1360
  383loPI   C2A 6120  12.942   4.154   9.474 -0.1752 -0.1999  0.1889
  383loPI   C3A 6121  13.041   3.991   9.034  0.4430  0.0301 -0.1311
  383loPI   C4A 6122  13.147   3.929   8.634  0.0376 -0.2232 -0.0464
  383loPI   C5A 6123  13.097   3.670   8.210 -0.5064  0.1342  0.3075
  383loPI   C6A 6124  13.341   3.322   8.059 -0.1142 -0.2289 -0.2654
  383loPI   C1B 6125  12.676   4.527   9.664  0.2396  0.1133 -0.1462
  383loPI   C2B 6126  12.573   4.583   9.231 -0.0616 -0.0959 -0.1633
  383loPI   C3B 6127  12.721   4.935   8.866 -0.1742  0.1731  0.0143
  383loPI   C4B 6128  12.969   5.113   8.470  0.1172  0.0705  0.2039
  384loPI    C1 6129   6.603   7.684  11.264  0.1652 -0.1402  0.1539
  384loPI    C2 6130   6.989   7.585  11.295  0.1345 -0.2106  0.3214
  384loPI    C3 6131   6.751   7.564  11.615 -0.0953 -0.5316  0.1359
  384loPI   PO4 6132   6.569   7.818  11.101 -0.0757  0.1529 -0.3022
  384loPI   GL1 6133   6.506   7.955  10.612  0.0152  0.2319 -0.0093
  384loPI   GL2 6134   6.250   8.037  10.421 -0.0006 -0.0098  0.0517
  384loPI   C1A 6135   6.699   8.076  10.232 -0.3466 -0.4018  0.0085
  384loPI   C2A 6136   6.758   8.123   9.851 -0.1650  0.0973 -0.2738
  384loPI   C3A 6137   6.774   8.109   9.382 -0.0978  0.2592 -0.1564
  384loPI   C4A 6138   6.839   8.193   8.978  0.1491 -0.0277  0.0895
  384loPI   C5A 6139   6.789   8.185   8.495 -0.2444  0.2386 -0.0732
  384loPI   C6A 6140   6.947   8.354   8.001 -0.1254 -0.0280  0.1630
  384loPI   C1B 6141   6.281   8.078   9.939  0.0398 -0.2419 -0.0889
  384loPI   C2B 6142   6.298   8.058   9.492 -0.1373 -0.2889  0.2798
  384loPI   C3B 6143   6.353   8.138   8.995 -0.0375 -0.3013 -0.2741
  384loPI   C4B 6144   6.304   8.158   8.545 -0.0201  0.0581 -0.1345
  385loPI    C1 6145   4.651   2.797  10.871  0.0252  0.0518  0.1441
  385loPI    C2 6146   4.429   2.912  11.183 -0.1443 -0.0808  0.0741
  385loPI    C3 6147   4.676   2.600  11.219 -0.2111 -0.1358  0.0577
  385loPI   PO4 6148   4.620   3.006  10.718 -0.0325 -0.0699  0.1096
  385loPI   GL1 6149   4.804   2.908  10.322  0.1578 -0.1426 -0.0305
  385loPI   GL2 6150   4.927   3.182  10.334 -0.1937  0.1693 -0.0065
  385loPI   C1A 6151   4.895   2.916   9.831  0.0284  0.2552 -0.0333
  385loPI   C2A 6152   4.962   3.008   9.459  0.3222 -0.0567  0.2065
  385loPI   C3A 6153   4.933   2.911   9.015 -0.0052  0.1260 -0.1199
  385loPI   C4A 6154   5.062   2.892   8.637  0.0242  0.1376  0.0892
  385loPI   C5A 6155   5.324   3.159   8.382  0.1862  0.1920  0.2083
  385loPI   C6A 6156   5.355   3.563   8.314  0.0422  0.2600  0.0636
  385loPI   C1B 6157   5.016   3.342  10.062  0.2289 -0.1150 -0.0072
  385loPI   C2B 6158   5.081   3.427   9.772  0.1698 -0.1356  0.1047
  385loPI   C3B 6159   5.165   3.483   9.375 -0.1144  0.0115  0.5210
  385loPI   C4B 6160   5.153   3.357   8.886  0.0299  0.0967  0.2038
  386loPI    C1 6161   6.872   9.642  11.356 -0.0378 -0.0119  0.0984
  386loPI    C2 6162   6.515   9.551  11.514  0.0432 -0.1158  0.2237
  386loPI    C3 6163   6.848   9.509  11.733  0.1295  0.0171  0.1200
  386loPI   PO4 6164   6.874   9.516  11.137  0.0208  0.0962  0.1620
  386loPI   GL1 6165   6.664   9.591  10.673 -0.0247 -0.1569 -0.2175
  386loPI   GL2 6166   6.944   9.838  10.635  0.1738 -0.0782 -0.0968
  386loPI   C1A 6167   6.728   9.389  10.279  0.2961 -0.0631 -0.5489
  386loPI   C2A 6168   6.924   9.453   9.846  0.0503  0.1793  0.3178
  386loPI   C3A 6169   6.967   9.516   9.431  0.0201 -0.1127  0.1431
  386loPI   C4A 6170   6.991   9.529   8.965  0.0868  0.0356 -0.0851
  386loPI   C5A 6171   7.208   9.600   8.602  0.2398 -0.2268 -0.3190
  386loPI   C6A 6172   7.154   9.249   8.376  0.1417  0.2091  0.0559
  386loPI   C1B 6173   7.064   9.872  10.260 -0.1340  0.1049  0.1518
  386loPI   C2B 6174   7.203   9.923   9.762  0.2147  0.2225  0.0144
  386loPI   C3B 6175   7.159   9.982   9.339  0.1744  0.1142 -0.2432
  386loPI   C4B 6176   7.227   9.963   8.962  0.3780 -0.2133  0.0827
  387loPI    C1 6177  16.390  14.897  10.966 -0.0372 -0.0376  0.0003
  387loPI    C2 6178  16.728  14.844  11.174  0.0426  0.0748 -0.0989
  387loPI    C3 6179  16.461  15.117  11.292  0.0222  0.0402 -0.0646
  387loPI   PO4 6180  16.455  14.857  10.729 -0.2436 -0.2751  0.0390
  387loPI   GL1 6181  16.704  14.763  10.389  0.1211 -0.2873  0.0575
  387loPI   GL2 6182  16.498  14.588  10.240 -0.0166  0.0284 -0.1107
  387loPI   C1A 6183  16.726  15.023   9.995 -0.2507 -0.0375 -0.2640
  387loPI   C2A 6184  16.818  15.081   9.573 -0.1057  0.1710 -0.2855
  387loPI   C3A 6185  16.689  15.105   9.147  0.0186 -0.0206 -0.2360
  387loPI   C4A 6186  16.836  15.054   8.694  0.1447  0.0816  0.1053
  387loPI   C5A 6187  16.607  14.997   8.277 -0.0935  0.2110  0.1295
  387loPI   C6A 6188  16.644  14.629   8.191 -0.1148  0.1184 -0.2075
  387loPI   C1B 6189  16.546  14.549   9.819 -0.0567 -0.2922 -0.0304
  387loPI   C2B 6190  16.510  14.608   9.425 -0.0977 -0.1296 -0.2062
  387loPI   C3B 6191  16.573  14.560   9.088  0.1383 -0.1886  0.3028
  387loPI   C4B 6192  16.482  14.617   8.641  0.4057 -0.1275 -0.0182
  388loPI    C1 6193   2.987   7.358  10.854 -0.1736  0.1698  0.0946
  388loPI    C2 6194   3.343   7.308  11.030 -0.1439 -0.1771 -0.0575
  388loPI    C3 6195   3.044   7.483  11.230  0.0931  0.0639  0.0915
  388loPI   PO4 6196   3.119   7.457  10.604  0.1316 -0.4344  0.0367
  388loPI   GL1 6197   3.058   7.608  10.098  0.4166  0.0954 -0.3972
  388loPI   GL2 6198   2.923   7.955  10.050 -0.2676  0.1456 -0.2449
  388loPI   C1A 6199   3.157   7.737   9.615 -0.0650  0.4359 -0.4945
  388loPI   C2A 6200   3.234   7.870   9.215  0.4080 -0.1293 -0.0530
  388loPI   C3A 6201   3.256   7.892   8.808  0.3246  0.4264  0.1319
  388loPI   C4A 6202   3.277   8.072   8.427  0.1724  0.1293 -0.4123
  388loPI   C5A 6203   3.185   8.314   8.028  0.0730  0.0228  0.3153
  388loPI   C6A 6204   3.205   8.724   7.793 -0.1050 -0.0981  0.1441
  388loPI   C1B 6205   2.788   8.132   9.652 -0.1052 -0.0000  0.0802
  388loPI   C2B 6206   2.907   8.281   9.294 -0.2030  0.1053 -0.0578
  388loPI   C3B 6207   2.925   8.336   8.862  0.3798 -0.1375  0.0486
  388loPI   C4B 6208   2.900   8.558   8.442  0.1957 -0.0732  0.2589
  389loPI    C1 6209   9.381   8.972  11.065 -0.0469 -0.0921  0.0871
  389loPI    C2 6210   9.298   8.611  11.216 -0.1781 -0.0078  0.2197
  389loPI    C3 6211   9.173   8.941  11.405 -0.3284  0.1009 -0.0622
  389loPI   PO4 6212   9.414   8.874  10.765  0.0517 -0.1278 -0.0709
  389loPI   GL1 6213   9.534   8.981  10.408  0.0563 -0.0830  0.2195
  389loPI   GL2 6214   9.331   9.192  10.233 -0.2539  0.0236 -0.2283
  389loPI   C1A 6215   9.717   8.778   9.994  0.3600 -0.1274  0.0089
  389loPI   C2A 6216   9.658   8.679   9.594  0.4463  0.0421  0.1376
  389loPI   C3A 6217   9.657   8.685   9.138  0.0593  0.1523  0.2105
  389loPI   C4A 6218   9.736   8.781   8.752 -0.1265 -0.2848 -0.0240
  389loPI   C5A 6219   9.655   8.587   8.372 -0.2534  0.0060 -0.2934
  389loPI   C6A 6220   9.403   8.429   7.993  0.2509 -0.0778  0.1316
  389loPI   C1B 6221   9.423   9.101   9.775  0.0776 -0.2461 -0.2731
  389loPI   C2B 6222   9.411   9.191   9.370  0.1669  0.2197 -0.1377
  389loPI   C3B 6223   9.367   9.118   8.937  0.0373  0.1963  0.1785
  389loPI   C4B 6224   9.406   9.224   8.484  0.1405  0.1120  0.0777
  390loPI    C1 6225   9.558   8.178  10.930 -0.2698  0.0561 -0.0530
  390loPI    C2 6226   9.314   7.953  10.707 -0.1869 -0.1479  0.0595
  390loPI    C3 6227   9.205   8.060  11.077 -0.2148 -0.0233  0.0160
  390loPI   PO4 6228   9.600   8.412  10.814  0.4134  0.4745  0.0240
  390loPI   GL1 6229   9.480   8.424  10.381  0.1300 -0.0008 -0.0333
  390loPI   GL2 6230   9.637   8.119  10.332  0.3732  0.0868  0.1444
  390loPI   C1A 6231   9.498   8.246   9.848 -0.1706  0.0781  0.2310
  390loPI   C2A 6232   9.521   8.253   9.375  0.0540 -0.1627 -0.1107
  390loPI   C3A 6233   9.426   8.268   8.978 -0.1611  0.3958  0.1922
  390loPI   C4A 6234   9.384   8.168   8.581 -0.0308  0.2738  0.0140
  390loPI   C5A 6235   9.693   8.011   8.272  0.0633 -0.0647 -0.1147
  390loPI   C6A 6236  10.056   7.798   8.415  0.0717 -0.1677 -0.0400
  390loPI   C1B 6237   9.738   7.812   9.972 -0.0872 -0.0343  0.0437
  390loPI   C2B 6238   9.673   7.793   9.553  0.0945  0.1130 -0.5180
  390loPI   C3B 6239   9.707   7.761   9.169 -0.1606 -0.3291  0.0013
  390loPI   C4B 6240   9.632   7.745   8.749  0.0445  0.0784 -0.3129
  391loPI    C1 6241  11.334  13.971  10.978  0.1388  0.0640  0.0338
  391loPI    C2 6242  11.075  13.738  11.174  0.4190 -0.1933  0.1056
  391loPI    C3 6243  11.154  14.107  11.308 -0.1449  0.0114 -0.0964
  391loPI   PO4 6244  11.487  13.863  10.925 -0.2447 -0.0082  0.3668
  391loPI   GL1 6245  11.611  13.687  10.504 -0.2686 -0.1463 -0.1954
  391loPI   GL2 6246  11.444  13.481  10.589  0.0872  0.1583 -0.1026
  391loPI   C1A 6247  11.630  13.831  10.153 -0.3715 -0.2113 -0.0849
  391loPI   C2A 6248  11.554  13.816   9.784  0.0894  0.1718 -0.0624
  391loPI   C3A 6249  11.531  13.875   9.305 -0.1355  0.0393 -0.0034
  391loPI   C4A 6250  11.716  14.035   8.882 -0.0403 -0.0043 -0.1147
  391loPI   C5A 6251  11.523  13.991   8.473 -0.1207 -0.1652  0.2961
  391loPI   C6A 6252  11.726  14.119   8.080 -0.0829 -0.0131 -0.0024
  391loPI   C1B 6253  11.379  13.334  10.090  0.2604 -0.0173 -0.1048
  391loPI   C2B 6254  11.271  13.271   9.693  0.4359  0.2317  0.0531
  391loPI   C3B 6255  11.331  13.382   9.243  0.1176 -0.0401 -0.1818
  391loPI   C4B 6256  11.349  13.392   8.785 -0.2416  0.1015  0.0694
  392loPI    C1 6257   8.096  17.738  10.798  0.0289  0.0027  0.1097
  392loPI    C2 6258   8.174  17.724  11.190 -0.2987 -0.4176  0.1662
  392loPI    C3 6259   8.285  17.422  10.953 -0.0006 -0.1140 -0.0898
  392loPI   PO4 6260   8.100  17.968  10.694 -0.1592 -0.1092  0.0964
  392loPI   GL1 6261   8.058  18.087  10.346 -0.2541  0.1120  0.0741
  392loPI   GL2 6262   8.330  17.846  10.223 -0.1236  0.3575  0.3083
  392loPI   C1A 6263   8.012  18.173   9.988  0.1185 -0.2573  0.0274
  392loPI   C2A 6264   8.112  18.126   9.502  0.3092  0.0117 -0.2228
  392loPI   C3A 6265   7.993  18.107   9.110  0.0573 -0.0064 -0.0463
  392loPI   C4A 6266   7.987  18.123   8.761  0.3755  0.1634  0.2475
  392loPI   C5A 6267   7.927  18.193   8.287 -0.0788 -0.0713 -0.2324
  392loPI   C6A 6268   7.986  17.969   7.942  0.1467  0.0394 -0.2685
  392loPI   C1B 6269   8.385  17.803   9.792  0.2230  0.0404  0.0757
  392loPI   C2B 6270   8.351  17.728   9.266 -0.3533 -0.0474  0.0453
  392loPI   C3B 6271   8.306  17.675   8.784  0.0629 -0.0522  0.1091
  392loPI   C4B 6272   8.355  17.819   8.420  0.3103  0.2275 -0.0537
  393loPI    C1 6273   0.660   4.090  10.229  0.2495 -0.1091  0.0397
  393loPI    C2 6274   0.692   3.906  10.583  0.0344  0.2508  0.2517
  393loPI    C3 6275   0.354   4.097  10.487  0.1300  0.2466 -0.1066
  393loPI   PO4 6276   0.778   3.912  10.111 -0.0400  0.1388  0.0548
  393loPI   GL1 6277   1.032   3.689   9.852 -0.0172  0.2291  0.0707
  393loPI   GL2 6278   1.180   3.678   9.623  0.0792  0.2447 -0.1035
  393loPI   C1A 6279   0.671   3.703   9.479 -0.1924 -0.0624 -0.2960
  393loPI   C2A 6280   0.687   3.629   9.089 -0.4624  0.1056 -0.0426
  393loPI   C3A 6281   0.631   3.407   8.741  0.0095 -0.1093 -0.2405
  393loPI   C4A 6282   0.598   3.577   8.503 -0.2119 -0.1237  0.2419
  393loPI   C5A 6283   0.714   3.426   8.124  0.1333  0.0976  0.2078
  393loPI   C6A 6284   0.690   3.235   7.687  0.1363  0.0029 -0.1731
  393loPI   C1B 6285   1.202   3.562   9.241 -0.2398 -0.0855 -0.0727
  393loPI   C2B 6286   1.189   3.453   8.778  0.0747  0.0556 -0.3796
  393loPI   C3B 6287   1.172   3.433   8.452  0.0982  0.0573 -0.2248
  393loPI   C4B 6288   1.339   3.518   8.118  0.4808 -0.2360  0.2485
  394loPI    C1 6289   5.525   9.758  11.389  0.1837 -0.0074 -0.1548
  394loPI    C2 6290   5.837   9.910  11.587  0.1314 -0.1539  0.0434
  394loPI    C3 6291   5.635   9.601  11.740 -0.2559  0.0881  0.0321
  394loPI   PO4 6292   5.489   9.913  11.211 -0.0905 -0.2653  0.2259
  394loPI   GL1 6293   5.567   9.932  10.841 -0.0307 -0.3992  0.2621
  394loPI   GL2 6294   5.222   9.761  10.771 -0.1718 -0.1666 -0.0618
  394loPI   C1A 6295   5.484   9.839  10.234 -0.2289 -0.0356 -0.2702
  394loPI   C2A 6296   5.537   9.771   9.765 -0.2832  0.1425 -0.1977
  394loPI   C3A 6297   5.606   9.817   9.359 -0.2239 -0.2472 -0.0080
  394loPI   C4A 6298   5.721   9.868   8.965 -0.1006  0.0038  0.2019
  394loPI   C5A 6299   5.461  10.188   8.673  0.3867 -0.0958  0.0950
  394loPI   C6A 6300   5.180  10.279   8.300  0.2520 -0.3687 -0.0104
  394loPI   C1B 6301   4.940   9.678  10.452 -0.0206  0.1390 -0.1743
  394loPI   C2B 6302   5.008   9.748   9.896  0.0914 -0.3687 -0.3526
  394loPI   C3B 6303   5.137   9.693   9.569  0.1474 -0.0110  0.1414
  394loPI   C4B 6304   5.115   9.825   9.132  0.1957  0.2443  0.1220
  395loPI    C1 6305  10.927   1.537  10.765 -0.1755 -0.0360 -0.0593
  395loPI    C2 6306  10.668   1.656  11.045 -0.0629  0.2795 -0.0857
  395loPI    C3 6307  11.052   1.767  11.067 -0.0089  0.1312 -0.2524
  395loPI   PO4 6308  10.842   1.690  10.555 -0.1581 -0.1129  0.0039
  395loPI   GL1 6309  10.754   1.452  10.197 -0.0531  0.1640  0.3866
  395loPI   GL2 6310  10.716   1.220  10.329  0.1443  0.2909 -0.3080
  395loPI   C1A 6311  10.761   1.579   9.844 -0.1633 -0.2447 -0.2386
  395loPI   C2A 6312  10.718   1.514   9.404 -0.0464 -0.0936  0.0218
  395loPI   C3A 6313  10.834   1.497   9.002  0.1991 -0.1250 -0.1555
  395loPI   C4A 6314  10.862   1.476   8.522 -0.1253  0.0227  0.1921
  395loPI   C5A 6315  10.623   1.543   8.057 -0.2870  0.5262 -0.0837
  395loPI   C6A 6316  10.340   1.595   7.793  0.1026 -0.1790 -0.1692
  395loPI   C1B 6317  10.526   1.127   9.920 -0.0765  0.3307  0.3308
  395loPI   C2B 6318  10.453   1.063   9.498  0.1857  0.0788  0.0065
  395loPI   C3B 6319  10.585   1.006   9.127  0.0016 -0.0971  0.1066
  395loPI   C4B 6320  10.634   0.991   8.770 -0.2658 -0.1042 -0.0358
  396loPI    C1 6321   0.984   7.386  10.359 -0.1250  0.1712  0.0467
  396loPI    C2 6322   0.661   7.380  10.595 -0.2541 -0.1700 -0.1323
  396loPI    C3 6323   0.734   7.699  10.364 -0.2380  0.0797  0.2093
  396loPI   PO4 6324   0.960   7.138  10.164 -0.1768 -0.2751  0.0794
  396loPI   GL1 6325   1.256   7.075   9.764  0.1370 -0.1973  0.0233
  396loPI   GL2 6326   0.823   7.163   9.701 -0.0766 -0.2251  0.0280
  396loPI   C1A 6327   1.223   7.003   9.359  0.0478 -0.2932  0.2398
  396loPI   C2A 6328   1.223   6.751   9.009 -0.0216  0.0589  0.2072
  396loPI   C3A 6329   1.404   6.777   8.613 -0.3082 -0.0845  0.0148
  396loPI   C4A 6330   1.523   6.901   8.155 -0.0320  0.2953  0.1030
  396loPI   C5A 6331   1.480   6.705   7.798 -0.0223  0.0223 -0.1467
  396loPI   C6A 6332   1.323   6.575   7.381 -0.1799 -0.1651  0.1163
  396loPI   C1B 6333   1.052   7.503   9.388 -0.3393  0.3565 -0.1337
  396loPI   C2B 6334   1.126   7.677   9.020  0.2651 -0.1800 -0.0819
  396loPI   C3B 6335   1.079   7.646   8.543 -0.1177 -0.1264  0.1002
  396loPI   C4B 6336   1.042   7.426   8.120  0.0487 -0.1309  0.0234
  397loPI    C1 6337   5.261  11.523  11.014  0.2433 -0.0354  0.1283
  397loPI    C2 6338   4.955  11.407  11.244  0.1396 -0.0740 -0.0277
  397loPI    C3 6339   5.272  11.588  11.409  0.0415 -0.0504  0.1372
  397loPI   PO4 6340   5.127  11.531  10.798  0.1698  0.0546  0.1717
  397loPI   GL1 6341   5.123  11.500  10.353 -0.1195  0.1829  0.1139
  397loPI   GL2 6342   4.866  11.578  10.120  0.3446 -0.0439  0.1217
  397loPI   C1A 6343   5.199  11.152   9.972  0.1987  0.0128 -0.0534
  397loPI   C2A 6344   5.279  11.140   9.537  0.0760  0.0519 -0.0490
  397loPI   C3A 6345   5.239  11.192   9.122  0.1753  0.1079 -0.2051
  397loPI   C4A 6346   5.262  10.959   8.760 -0.1589  0.1122  0.2203
  397loPI   C5A 6347   5.050  10.861   8.366  0.0789 -0.2981  0.2065
  397loPI   C6A 6348   4.842  10.552   8.120 -0.1649 -0.0368 -0.3267
  397loPI   C1B 6349   5.001  11.606   9.659 -0.0917 -0.0146 -0.2175
  397loPI   C2B 6350   4.902  11.645   9.220 -0.0459 -0.0339  0.0406
  397loPI   C3B 6351   4.868  11.499   8.813  0.2313 -0.1288 -0.0747
  397loPI   C4B 6352   4.695  11.226   8.448  0.2206 -0.2086 -0.3147
  398loPI    C1 6353   4.706  15.298  10.973  0.0030 -0.2745 -0.1197
  398loPI    C2 6354   4.617  15.607  10.736 -0.0664  0.1076  0.3867
  398loPI    C3 6355   4.996  15.539  10.842 -0.0261 -0.1073  0.1165
  398loPI   PO4 6356   4.509  15.152  10.983  0.0662  0.1116  0.3171
  398loPI   GL1 6357   4.374  14.839  10.602 -0.1133  0.0864  0.0960
  398loPI   GL2 6358   4.284  15.190  10.511 -0.0283 -0.0620 -0.2283
  398loPI   C1A 6359   4.425  14.698  10.102  0.0153 -0.1165  0.2364
  398loPI   C2A 6360   4.453  14.720   9.632  0.1268  0.0251  0.2551
  398loPI   C3A 6361   4.434  14.813   9.125 -0.2043  0.1316  0.3043
  398loPI   C4A 6362   4.469  14.645   8.654 -0.2014 -0.1630  0.0577
  398loPI   C5A 6363   4.491  14.742   8.226  0.0636  0.0896 -0.1522
  398loPI   C6A 6364   4.586  15.064   7.956 -0.0601 -0.3837 -0.0076
  398loPI   C1B 6365   4.143  15.129  10.129 -0.0075  0.0133  0.0299
  398loPI   C2B 6366   4.134  15.104   9.690 -0.0587 -0.1965  0.1253
  398loPI   C3B 6367   4.101  15.196   9.223  0.2180  0.0295 -0.0821
  398loPI   C4B 6368   4.299  15.180   8.876  0.1170 -0.1174 -0.1076
  399loPI    C1 6369   6.057   1.888  11.151 -0.0021  0.0488 -0.0839
  399loPI    C2 6370   6.089   1.490  11.129  0.0911  0.0442  0.1172
  399loPI    C3 6371   6.299   1.692  11.402 -0.3127  0.1854  0.3327
  399loPI   PO4 6372   6.000   1.912  10.881 -0.1671  0.1464 -0.2318
  399loPI   GL1 6373   6.172   1.843  10.464  0.2041 -0.0065  0.1933
  399loPI   GL2 6374   5.816   1.822  10.414 -0.2894 -0.0095 -0.0682
  399loPI   C1A 6375   6.363   1.726  10.030  0.1590  0.0399  0.0463
  399loPI   C2A 6376   6.379   1.784   9.567 -0.1226  0.0238 -0.3355
  399loPI   C3A 6377   6.282   1.659   9.102  0.5027 -0.0629 -0.1317
  399loPI   C4A 6378   6.460   1.676   8.667  0.2995  0.3248  0.2341
  399loPI   C5A 6379   6.758   1.542   8.332 -0.0386  0.3470  0.1084
  399loPI   C6A 6380   7.157   1.474   8.135 -0.2957 -0.2185  0.2806
  399loPI   C1B 6381   5.889   1.744   9.850 -0.1491 -0.0236  0.0409
  399loPI   C2B 6382   5.825   1.774   9.486 -0.2942  0.1745 -0.1840
  399loPI   C3B 6383   5.799   1.588   9.015 -0.3195 -0.5167  0.3504
  399loPI   C4B 6384   5.973   1.588   8.537  0.0939  0.1230 -0.1565
  400loPI    C1 6385  10.950   8.612  10.993 -0.3564  0.0018 -0.1647
  400loPI    C2 6386  11.217   8.673  11.284  0.2155  0.0261 -0.6744
  400loPI    C3 6387  10.831   8.621  11.375  0.4383 -0.4187  0.1154
  400loPI   PO4 6388  11.062   8.775  10.775 -0.0668  0.1189  0.1296
  400loPI   GL1 6389  11.063   8.858  10.386 -0.1112 -0.0183  0.1502
  400loPI   GL2 6390  10.799   8.803  10.290 -0.4231  0.1869 -0.0811
  400loPI   C1A 6391  11.209   8.841   9.945 -0.3162 -0.1642  0.0927
  400loPI   C2A 6392  11.163   8.824   9.376 -0.0596  0.0323  0.1414
  400loPI   C3A 6393  11.182   8.748   8.937  0.0690  0.0198 -0.0559
  400loPI   C4A 6394  11.292   8.734   8.568  0.1250 -0.2558  0.0587
  400loPI   C5A 6395  11.077   8.469   8.260  0.2717  0.1885  0.1770
  400loPI   C6A 6396  11.121   7.989   8.175  0.0392  0.0124  0.2225
  400loPI   C1B 6397  10.692   8.826   9.894 -0.0500  0.0038  0.4339
  400loPI   C2B 6398  10.675   8.809   9.431  0.0934  0.1392  0.1142
  400loPI   C3B 6399  10.699   8.726   9.032  0.2375 -0.1234 -0.0478
  400loPI   C4B 6400  10.707   8.655   8.677  0.0622  0.1149 -0.3827
  401loPI    C1 6401  17.081  14.425  11.157  0.0691  0.0996  0.0389
  401loPI    C2 6402  17.382  14.350  11.408 -0.0964  0.0863  0.2361
  401loPI    C3 6403  17.269  14.727  11.340 -0.1057  0.0854  0.2465
  401loPI   PO4 6404  17.115  14.236  10.916 -0.0637  0.2308 -0.2381
  401loPI   GL1 6405  17.397  14.234  10.650 -0.1736  0.0318 -0.0294
  401loPI   GL2 6406  17.190  13.860  10.625 -0.1944 -0.0418  0.1206
  401loPI   C1A 6407  17.320  14.224  10.235 -0.0657  0.1432  0.0138
  401loPI   C2A 6408  17.346  14.220   9.811 -0.1054 -0.0927  0.1562
  401loPI   C3A 6409  17.278  14.219   9.290  0.3637 -0.1557  0.3298
  401loPI   C4A 6410  17.311  14.194   8.863 -0.1316  0.1554 -0.0882
  401loPI   C5A 6411  17.251  14.208   8.375  0.1820  0.1545  0.1307
  401loPI   C6A 6412  17.147  14.430   8.011  0.0602  0.2870 -0.1080
  401loPI   C1B 6413  17.159  13.763  10.230  0.3808  0.1784  0.1005
  401loPI   C2B 6414  17.207  13.677   9.753 -0.1157 -0.0015  0.1419
  401loPI   C3B 6415  17.160  13.703   9.345 -0.2737 -0.3101  0.0874
  401loPI   C4B 6416  17.143  13.691   8.868 -0.0865  0.4060 -0.2360
  402loPI    C1 6417   4.188  16.913  11.436  0.0094  0.0578 -0.0454
  402loPI    C2 6418   4.249  16.518  11.446  0.0968  0.0747  0.1424
  402loPI    C3 6419   3.986  16.686  11.696  0.0987  0.1425  0.0991
  402loPI   PO4 6420   4.124  16.981  11.212  0.1192  0.0750  0.0823
  402loPI   GL1 6421   4.142  16.772  10.819 -0.2447 -0.1820  0.0445
  402loPI   GL2 6422   3.820  16.691  10.717 -0.2976 -0.0135  0.1969
  402loPI   C1A 6423   4.241  16.523  10.335 -0.3761 -0.0416  0.0689
  402loPI   C2A 6424   4.144  16.489   9.923  0.0358 -0.0447 -0.0374
  402loPI   C3A 6425   4.191  16.452   9.481 -0.0692  0.3591  0.1074
  402loPI   C4A 6426   4.258  16.526   9.012 -0.0425  0.0100 -0.1289
  402loPI   C5A 6427   4.380  16.424   8.650  0.1389 -0.2305  0.1084
  402loPI   C6A 6428   4.614  16.123   8.418  0.3272 -0.0298  0.2102
  402loPI   C1B 6429   3.736  16.506  10.322  0.0144 -0.1841  0.1217
  402loPI   C2B 6430   3.654  16.377   9.869  0.1980  0.2141  0.3493
  402loPI   C3B 6431   3.686  16.433   9.492 -0.1891  0.1018 -0.0859
  402loPI   C4B 6432   3.706  16.431   8.996 -0.0664 -0.0102 -0.4376
  403loPI    C1 6433  13.525   8.294  10.589 -0.0252  0.2134 -0.1136
  403loPI    C2 6434  13.808   8.370  10.861  0.1231  0.0909 -0.2315
  403loPI    C3 6435  13.428   8.316  10.976  0.1949 -0.0206 -0.0427
  403loPI   PO4 6436  13.497   8.456  10.326  0.1309  0.0770  0.0572
  403loPI   GL1 6437  13.136   8.558  10.020 -0.2125  0.0033 -0.5146
  403loPI   GL2 6438  13.203   8.831  10.113 -0.0923 -0.2637 -0.0122
  403loPI   C1A 6439  13.106   8.483   9.601 -0.0638 -0.1710 -0.1372
  403loPI   C2A 6440  13.118   8.519   9.116  0.0570  0.4635  0.2198
  403loPI   C3A 6441  13.080   8.374   8.692  0.3076 -0.1508  0.0533
  403loPI   C4A 6442  13.109   8.356   8.267  0.2217  0.0150  0.0291
  403loPI   C5A 6443  13.265   8.521   7.930  0.3056  0.4026  0.3754
  403loPI   C6A 6444  13.243   8.582   7.546 -0.3983 -0.1787 -0.3414
  403loPI   C1B 6445  13.243   8.934   9.638  0.1602 -0.1879 -0.0395
  403loPI   C2B 6446  13.245   8.986   9.211  0.1175  0.1943  0.2395
  403loPI   C3B 6447  13.300   8.820   8.769  0.4106  0.2132 -0.0067
  403loPI   C4B 6448  13.293   8.832   8.368 -0.1686 -0.0494 -0.0586
  404loPI    C1 6449   9.257  17.641  10.919  0.0902 -0.2285  0.2154
  404loPI    C2 6450   9.428  17.925  11.143  0.1578  0.0600 -0.1892
  404loPI    C3 6451   9.159  17.677  11.305  0.1652  0.2928  0.1938
  404loPI   PO4 6452   9.117  17.726  10.684 -0.0979 -0.1527  0.1083
  404loPI   GL1 6453   8.984  17.588  10.312  0.0489  0.2367  0.0403
  404loPI   GL2 6454   9.183  17.379  10.166  0.0517 -0.2376  0.0999
  404loPI   C1A 6455   8.913  17.833   9.975 -0.0307  0.1894 -0.0241
  404loPI   C2A 6456   8.800  17.836   9.479  0.0880 -0.1172 -0.1418
  404loPI   C3A 6457   8.833  17.821   9.082  0.0492 -0.3119  0.1339
  404loPI   C4A 6458   8.827  17.829   8.659  0.0069  0.0756  0.1163
  404loPI   C5A 6459   8.787  17.690   8.236 -0.5351 -0.1086 -0.0278
  404loPI   C6A 6460   8.972  17.359   7.937 -0.1979 -0.1286 -0.0295
  404loPI   C1B 6461   9.014  17.416   9.704 -0.1427 -0.0808  0.4122
  404loPI   C2B 6462   9.018  17.411   9.327  0.1505  0.0599 -0.1374
  404loPI   C3B 6463   9.122  17.406   8.866 -0.0087 -0.4146 -0.2073
  404loPI   C4B 6464   9.196  17.421   8.444  0.0980 -0.1307 -0.2670
  405loPI    C1 6465  16.576  15.567  10.684  0.1294  0.0644 -0.0211
  405loPI    C2 6466  16.761  15.273  10.486 -0.1017 -0.0058 -0.1355
  405loPI    C3 6467  16.742  15.264  10.885 -0.0502 -0.1116 -0.1353
  405loPI   PO4 6468  16.619  15.757  10.561 -0.1806  0.2560 -0.0576
  405loPI   GL1 6469  16.701  15.955  10.132  0.0026 -0.0120 -0.0410
  405loPI   GL2 6470  16.932  16.174  10.312 -0.1301  0.0868 -0.1480
  405loPI   C1A 6471  16.726  16.004   9.714 -0.1374  0.1524 -0.0146
  405loPI   C2A 6472  16.691  15.957   9.375  0.0871 -0.1822  0.2227
  405loPI   C3A 6473  16.742  15.917   8.978 -0.1139 -0.3511  0.1732
  405loPI   C4A 6474  16.749  15.943   8.530  0.2378  0.1623 -0.1610
  405loPI   C5A 6475  17.239  15.936   8.335 -0.0770 -0.0742  0.2565
  405loPI   C6A 6476  17.384  15.945   7.923  0.2710 -0.0003 -0.0655
  405loPI   C1B 6477  17.164  16.078   9.950  0.0662  0.3164 -0.0988
  405loPI   C2B 6478  17.197  16.068   9.518 -0.0459 -0.0450 -0.1391
  405loPI   C3B 6479  17.199  15.967   9.232  0.0079  0.0507  0.0167
  405loPI   C4B 6480  17.249  16.037   8.856 -0.0199  0.0021 -0.0716
  406loPI    C1 6481   1.435   8.977  10.621 -0.0010 -0.0133  0.4085
  406loPI    C2 6482   1.055   8.958  10.744 -0.1794 -0.0474 -0.1220
  406loPI    C3 6483   1.237   8.630  10.606  0.0184 -0.0131  0.0519
  406loPI   PO4 6484   1.448   9.187  10.499  0.2037 -0.0317  0.2252
  406loPI   GL1 6485   1.489   9.262  10.073 -0.1197  0.1125 -0.0887
  406loPI   GL2 6486   1.804   9.340  10.240 -0.1757  0.1564  0.1288
  406loPI   C1A 6487   1.334   9.387   9.682  0.0641  0.0996 -0.1872
  406loPI   C2A 6488   1.441   9.516   9.242  0.1102 -0.1864 -0.0340
  406loPI   C3A 6489   1.453   9.515   8.781  0.0159  0.4628 -0.0124
  406loPI   C4A 6490   1.526   9.888   8.502  0.1316 -0.1331  0.1246
  406loPI   C5A 6491   1.416  10.217   8.188  0.2756  0.2152 -0.1286
  406loPI   C6A 6492   1.289  10.351   7.752  0.1248 -0.3967  0.1386
  406loPI   C1B 6493   1.841   9.420   9.792  0.2114 -0.1643 -0.0705
  406loPI   C2B 6494   1.901   9.577   9.476  0.0156  0.1209 -0.1574
  406loPI   C3B 6495   1.969   9.660   9.082  0.0781  0.2437  0.0806
  406loPI   C4B 6496   1.954   9.637   8.692 -0.1739  0.1836 -0.0878
  407loPI    C1 6497  11.199   9.148  10.987 -0.2059  0.0932 -0.1507
  407loPI    C2 6498  11.172   9.383  11.309 -0.1849  0.0239 -0.0984
  407loPI    C3 6499  10.896   9.101  11.244 -0.0736 -0.1025 -0.0282
  407loPI   PO4 6500  11.276   9.221  10.705 -0.0571 -0.1977  0.1598
  407loPI   GL1 6501  11.058   9.384  10.454 -0.0219  0.0675  0.1637
  407loPI   GL2 6502  11.197   9.737  10.455 -0.0311  0.0362  0.1784
  407loPI   C1A 6503  10.934   9.285  10.042  0.1136 -0.0373  0.2939
  407loPI   C2A 6504  10.912   9.359   9.599 -0.0900  0.1838  0.1038
  407loPI   C3A 6505  10.949   9.172   9.125  0.0041 -0.0248 -0.3410
  407loPI   C4A 6506  11.031   9.175   8.672  0.3314  0.2410  0.1013
  407loPI   C5A 6507  10.951   9.004   8.347 -0.2884  0.0252  0.2400
  407loPI   C6A 6508  10.606   8.684   8.180  0.0381  0.0577  0.0252
  407loPI   C1B 6509  11.112   9.852   9.985  0.2653 -0.0173  0.0359
  407loPI   C2B 6510  11.078   9.828   9.670 -0.5414  0.0394 -0.5662
  407loPI   C3B 6511  11.163   9.790   9.150 -0.4728 -0.1967  0.1101
  407loPI   C4B 6512  11.173   9.619   8.852  0.0846 -0.0609 -0.0834
  408loPI    C1 6513   0.102   3.506   9.930  0.0938 -0.1089  0.0217
  408loPI    C2 6514   0.333   3.811   9.811 -0.1839  0.0740 -0.0572
  408loPI    C3 6515   0.336   3.696  10.194  0.1043  0.0149 -0.0752
  408loPI   PO4 6516   0.141   3.306   9.805  0.0793  0.0970 -0.0459
  408loPI   GL1 6517   0.427   3.162   9.483  0.2778 -0.1908  0.0166
  408loPI   GL2 6518   0.598   2.862   9.398 -0.0305  0.0538  0.2414
  408loPI   C1A 6519   0.357   3.115   9.044 -0.0088  0.1834  0.1289
  408loPI   C2A 6520   0.445   2.924   8.680  0.1607  0.0089  0.0610
  408loPI   C3A 6521   0.530   2.937   8.224  0.0622  0.1183  0.0447
  408loPI   C4A 6522   0.256   3.054   7.963  0.1189  0.0777  0.3381
  408loPI   C5A 6523  -0.147   3.128   7.998 -0.2236  0.3924 -0.3455
  408loPI   C6A 6524  -0.338   3.236   8.299 -0.1083 -0.2034  0.0966
  408loPI   C1B 6525   0.744   2.707   9.072 -0.0100 -0.0164  0.2673
  408loPI   C2B 6526   0.722   2.471   8.692 -0.0193  0.1782 -0.1731
  408loPI   C3B 6527   0.847   2.477   8.269  0.0491 -0.2564 -0.1896
  408loPI   C4B 6528   0.869   2.547   7.894 -0.0083  0.0456  0.0644
  409loPI    C1 6529  13.721  17.219  11.198 -0.0651 -0.0435  0.2119
  409loPI    C2 6530  14.101  17.127  11.283  0.0124  0.0728 -0.0016
  409loPI    C3 6531  13.929  17.446  11.454  0.0364  0.0676  0.0326
  409loPI   PO4 6532  13.705  17.134  10.909  0.2285  0.1017  0.0844
  409loPI   GL1 6533  13.862  17.318  10.434  0.2713  0.0264 -0.2124
  409loPI   GL2 6534  13.926  16.945  10.316 -0.2107 -0.2864 -0.0049
  409loPI   C1A 6535  13.734  17.409  10.095  0.1435  0.2325  0.0168
  409loPI   C2A 6536  13.712  17.278   9.683  0.1358 -0.2228 -0.0135
  409loPI   C3A 6537  13.720  17.233   9.302 -0.0365 -0.1964  0.0098
  409loPI   C4A 6538  13.638  17.181   8.840  0.0048  0.2390 -0.2644
  409loPI   C5A 6539  13.662  17.314   8.413 -0.2437  0.0748 -0.2647
  409loPI   C6A 6540  13.414  17.383   8.101 -0.1578  0.3363  0.0463
  409loPI   C1B 6541  14.032  16.888   9.840  0.2259 -0.2635 -0.1353
  409loPI   C2B 6542  13.975  16.812   9.427  0.0016  0.0340  0.1334
  409loPI   C3B 6543  13.898  16.816   8.980  0.0339  0.0797  0.0704
  409loPI   C4B 6544  13.896  16.831   8.534 -0.0207 -0.0964 -0.2705
  410loPI    C1 6545   6.110   7.370  11.171  0.1597  0.0352  0.1229
  410loPI    C2 6546   6.007   7.734  11.302 -0.0754  0.0619 -0.1283
  410loPI    C3 6547   6.217   7.488  11.538 -0.4081  0.1432  0.2636
  410loPI   PO4 6548   6.290   7.388  10.950 -0.2313  0.2138 -0.0273
  410loPI   GL1 6549   6.347   7.409  10.536 -0.2559  0.0714 -0.2510
  410loPI   GL2 6550   6.142   7.275  10.312 -0.0784  0.0379 -0.0762
  410loPI   C1A 6551   6.427   7.686  10.179 -0.0753 -0.1722  0.0272
  410loPI   C2A 6552   6.554   7.644   9.770 -0.0069 -0.1649 -0.1328
  410loPI   C3A 6553   6.585   7.627   9.238  0.1120 -0.3115 -0.2595
  410loPI   C4A 6554   6.626   7.725   8.872  0.1570  0.0601 -0.1721
  410loPI   C5A 6555   6.603   7.755   8.488 -0.0645  0.3566 -0.1002
  410loPI   C6A 6556   6.268   7.688   8.219  0.0568 -0.0889 -0.3085
  410loPI   C1B 6557   6.286   7.196   9.904 -0.3688 -0.1286  0.0542
  410loPI   C2B 6558   6.307   7.140   9.420  0.0309 -0.0974  0.0184
  410loPI   C3B 6559   6.412   7.199   8.997 -0.0416 -0.1133 -0.1243
  410loPI   C4B 6560   6.458   7.290   8.592  0.0316 -0.0785  0.2640
  411loPI    C1 6561   4.400   6.651  10.855 -0.0299  0.1014 -0.0558
  411loPI    C2 6562   4.222   6.719  11.207 -0.1652 -0.1116 -0.0812
  411loPI    C3 6563   4.463   6.403  11.163 -0.1008 -0.0514 -0.1630
  411loPI   PO4 6564   4.460   6.895  10.783 -0.0510 -0.0210  0.0722
  411loPI   GL1 6565   4.557   6.814  10.329  0.2440  0.0981  0.3298
  411loPI   GL2 6566   4.212   6.787  10.270 -0.0592 -0.1579  0.0600
  411loPI   C1A 6567   4.729   7.007  10.036 -0.0855  0.1216  0.0565
  411loPI   C2A 6568   4.780   6.972   9.703 -0.0437 -0.2822  0.0943
  411loPI   C3A 6569   4.868   7.024   9.422  0.0244  0.3048 -0.1206
  411loPI   C4A 6570   4.955   7.153   8.981 -0.0678 -0.2144  0.1215
  411loPI   C5A 6571   5.020   7.152   8.598 -0.2796 -0.3036 -0.0225
  411loPI   C6A 6572   5.456   7.208   8.370  0.0977  0.0074  0.0759
  411loPI   C1B 6573   4.178   6.949   9.835 -0.2158 -0.1712  0.0367
  411loPI   C2B 6574   4.326   7.059   9.471  0.1718 -0.3037  0.1626
  411loPI   C3B 6575   4.449   7.025   9.100  0.1172 -0.0810  0.1954
  411loPI   C4B 6576   4.544   6.969   8.676 -0.2000 -0.0013  0.2485
  412loPI    C1 6577   8.206  15.404  11.224  0.0013 -0.2202  0.2333
  412loPI    C2 6578   8.317  15.199  10.899 -0.2547 -0.0663  0.0447
  412loPI    C3 6579   8.258  15.008  11.246 -0.2949 -0.2814 -0.0786
  412loPI   PO4 6580   7.948  15.492  11.127  0.0999  0.2102 -0.1191
  412loPI   GL1 6581   7.865  15.482  10.628  0.2487 -0.1183  0.1547
  412loPI   GL2 6582   7.611  15.599  10.425 -0.1204 -0.2957 -0.1344
  412loPI   C1A 6583   8.166  15.497  10.268  0.0098 -0.1549 -0.0363
  412loPI   C2A 6584   8.358  15.439   9.905 -0.0021  0.0509  0.1960
  412loPI   C3A 6585   8.251  15.463   9.386 -0.1103  0.0723 -0.0245
  412loPI   C4A 6586   8.244  15.384   9.005 -0.2098  0.0897  0.1353
  412loPI   C5A 6587   8.238  15.400   8.576 -0.1197 -0.3596  0.1665
  412loPI   C6A 6588   8.136  15.452   8.216  0.3408  0.0234 -0.1305
  412loPI   C1B 6589   7.683  15.547  10.070  0.0458 -0.2158 -0.0275
  412loPI   C2B 6590   7.849  15.433   9.749 -0.0889 -0.1310 -0.1400
  412loPI   C3B 6591   7.766  15.428   9.281 -0.0815  0.3243  0.1603
  412loPI   C4B 6592   7.787  15.226   8.900  0.1647  0.2490 -0.0597
  413loPI    C1 6593   0.508   6.931  10.086  0.0222  0.1412 -0.2269
  413loPI    C2 6594   0.658   6.680   9.812 -0.2140 -0.2895  0.0268
  413loPI    C3 6595   0.805   6.682  10.184  0.1265  0.3150 -0.0973
  413loPI   PO4 6596   0.294   7.001   9.917 -0.0339 -0.0357  0.4112
  413loPI   GL1 6597   0.265   6.843   9.473 -0.1701 -0.2144 -0.0259
  413loPI   GL2 6598   0.047   7.047   9.423  0.1056  0.0028 -0.2359
  413loPI   C1A 6599   0.568   7.064   9.217  0.3217 -0.1799  0.1891
  413loPI   C2A 6600   0.874   7.215   9.042 -0.1814 -0.1094 -0.1773
  413loPI   C3A 6601   1.277   7.226   8.793 -0.1568 -0.0715  0.1610
  413loPI   C4A 6602   1.410   7.310   8.437 -0.3059  0.0059 -0.1850
  413loPI   C5A 6603   1.412   7.673   8.106  0.2227  0.2187  0.0682
  413loPI   C6A 6604   1.667   7.770   7.757  0.3566  0.1763 -0.0796
  413loPI   C1B 6605   0.113   7.150   9.041  0.1525  0.0442  0.2509
  413loPI   C2B 6606   0.369   7.126   8.657 -0.4411 -0.5259  0.2547
  413loPI   C3B 6607   0.581   7.121   8.190 -0.2235 -0.1024 -0.1448
  413loPI   C4B 6608   0.791   7.230   7.757 -0.1958  0.1303  0.0868
  414loPI    C1 6609  16.500  13.979  10.931  0.1175  0.0606 -0.0733
  414loPI    C2 6610  16.630  14.235  11.210  0.0031 -0.0420  0.0754
  414loPI    C3 6611  16.331  13.982  11.294 -0.0875 -0.0174 -0.1669
  414loPI   PO4 6612  16.699  13.952  10.814 -0.2034 -0.1475 -0.1428
  414loPI   GL1 6613  16.777  14.098  10.417 -0.0731 -0.2873 -0.1920
  414loPI   GL2 6614  16.438  14.036  10.445  0.0569 -0.1650 -0.2745
  414loPI   C1A 6615  16.797  14.179   9.978 -0.2741 -0.0631  0.0930
  414loPI   C2A 6616  16.871  14.090   9.688  0.1847  0.2150 -0.1758
  414loPI   C3A 6617  16.776  14.122   9.263 -0.1775 -0.2905  0.1697
  414loPI   C4A 6618  16.807  14.143   8.806  0.1510 -0.2484 -0.0713
  414loPI   C5A 6619  16.740  14.213   8.385 -0.0228  0.3156 -0.3235
  414loPI   C6A 6620  16.599  13.984   8.024 -0.0532  0.0665 -0.0517
  414loPI   C1B 6621  16.289  14.092  10.017 -0.0115  0.1140 -0.0543
  414loPI   C2B 6622  16.317  14.158   9.520  0.0057 -0.2283  0.0767
  414loPI   C3B 6623  16.254  14.118   9.043 -0.3179 -0.3326  0.2204
  414loPI   C4B 6624  16.303  13.938   8.599  0.1951 -0.0954  0.1015
  415loPI    C1 6625  15.745  12.669  10.992 -0.2837  0.0631  0.1197
  415loPI    C2 6626  15.731  12.559  11.376 -0.1885  0.1310  0.1430
  415loPI    C3 6627  15.769  12.945  11.280 -0.0341  0.0979  0.0678
  415loPI   PO4 6628  15.557  12.596  10.851  0.1198  0.0920 -0.0173
  415loPI   GL1 6629  15.569  12.549  10.438  0.0094  0.0833  0.1697
  415loPI   GL2 6630  15.923  12.354  10.590  0.0474  0.2200  0.0143
  415loPI   C1A 6631  15.440  12.862  10.061 -0.0067 -0.0510  0.2588
  415loPI   C2A 6632  15.586  12.692   9.674  0.1420 -0.0218 -0.2722
  415loPI   C3A 6633  15.633  12.743   9.235  0.3872  0.4310  0.2486
  415loPI   C4A 6634  15.776  12.707   8.739  0.0954  0.1074  0.1771
  415loPI   C5A 6635  15.860  12.738   8.300  0.0202 -0.1056 -0.1511
  415loPI   C6A 6636  15.837  13.119   8.051  0.0404  0.2888  0.1197
  415loPI   C1B 6637  15.923  12.242  10.135 -0.1358 -0.3678  0.0074
  415loPI   C2B 6638  15.858  12.270   9.761  0.1731 -0.5048 -0.0023
  415loPI   C3B 6639  15.870  12.258   9.314  0.0717 -0.1953  0.0816
  415loPI   C4B 6640  15.933  12.265   8.918  0.2623 -0.2344  0.0852
  416loPI    C1 6641   3.892   0.575  10.875  0.2767  0.1204 -0.1253
  416loPI    C2 6642   4.191   0.512  11.133  0.1261  0.0103  0.0245
  416loPI    C3 6643   3.815   0.545  11.266  0.0528  0.0007 -0.1767
  416loPI   PO4 6644   3.883   0.459  10.668 -0.0272 -0.0022 -0.2038
  416loPI   GL1 6645   3.742   0.027  10.507 -0.0229  0.1454 -0.1744
  416loPI   GL2 6646   3.894  -0.254  10.371 -0.4642 -0.1568  0.0397
  416loPI   C1A 6647   3.482   0.094  10.138  0.1993 -0.1337  0.0964
  416loPI   C2A 6648   3.601   0.076   9.695  0.2076 -0.2992 -0.1632
  416loPI   C3A 6649   3.571   0.085   9.253 -0.0302 -0.0778  0.0096
  416loPI   C4A 6650   3.555   0.035   8.848  0.0316 -0.0471  0.0224
  416loPI   C5A 6651   3.634  -0.124   8.381 -0.1053  0.1285  0.2399
  416loPI   C6A 6652   3.523   0.004   7.938  0.1143  0.2332  0.2098
  416loPI   C1B 6653   3.826  -0.297   9.966  0.0645  0.0087 -0.3236
  416loPI   C2B 6654   3.872  -0.318   9.494  0.3573  0.2063 -0.1320
  416loPI   C3B 6655   3.913  -0.471   9.168  0.2000 -0.1235 -0.1034
  416loPI   C4B 6656   3.845  -0.407   8.742  0.0005  0.0446 -0.2456
  417loPI    C1 6657   3.061  11.610  11.166  0.2323 -0.1386 -0.2339
  417loPI    C2 6658   3.347  11.524  11.431  0.2251 -0.1228 -0.2209
  417loPI    C3 6659   3.054  11.262  11.361 -0.1529  0.1471  0.2874
  417loPI   PO4 6660   3.145  11.744  10.944  0.4180 -0.2146 -0.0521
  417loPI   GL1 6661   3.089  11.810  10.607 -0.1497  0.0350  0.2871
  417loPI   GL2 6662   2.869  11.571  10.488 -0.0202 -0.0185 -0.0085
  417loPI   C1A 6663   3.034  11.870  10.164 -0.0669 -0.0588  0.0368
  417loPI   C2A 6664   3.071  11.915   9.693 -0.3445  0.1079 -0.1243
  417loPI   C3A 6665   3.074  11.957   9.320  0.1359  0.1793 -0.0734
  417loPI   C4A 6666   3.004  11.997   8.939 -0.0826 -0.1234  0.1455
  417loPI   C5A 6667   3.149  12.044   8.598  0.1480  0.0924 -0.2030
  417loPI   C6A 6668   3.477  11.877   8.288  0.0323 -0.1065 -0.0745
  417loPI   C1B 6669   2.879  11.415   9.954  0.0515 -0.1426  0.1818
  417loPI   C2B 6670   2.882  11.471   9.447  0.0472  0.2624  0.0461
  417loPI   C3B 6671   2.725  11.579   9.073  0.0477 -0.1539 -0.1455
  417loPI   C4B 6672   2.865  11.560   8.617  0.0026 -0.0943 -0.4135
  418loPI    C1 6673  14.227  14.628  11.110  0.1567  0.0622  0.1415
  418loPI    C2 6674  13.984  14.315  11.060  0.3753 -0.1151  0.1751
  418loPI    C3 6675  13.974  14.523  11.401 -0.0441  0.1580  0.0038
  418loPI   PO4 6676  14.433  14.592  10.892  0.3053  0.1015 -0.0157
  418loPI   GL1 6677  14.590  14.892  10.595 -0.3671  0.0014 -0.0573
  418loPI   GL2 6678  14.413  15.210  10.449  0.3631 -0.0768  0.3621
  418loPI   C1A 6679  14.478  14.512  10.233 -0.3239 -0.2446 -0.1417
  418loPI   C2A 6680  14.420  14.544   9.863  0.0227 -0.0999  0.2025
  418loPI   C3A 6681  14.446  14.597   9.524  0.0338 -0.0033  0.2693
  418loPI   C4A 6682  14.516  14.491   9.149 -0.0525 -0.1014  0.1339
  418loPI   C5A 6683  14.436  14.429   8.740  0.2616  0.1642  0.3187
  418loPI   C6A 6684  14.372  14.395   8.233 -0.2486  0.3112 -0.0286
  418loPI   C1B 6685  14.682  15.041  10.100  0.1942 -0.1230 -0.0439
  418loPI   C2B 6686  14.712  14.963   9.680 -0.0938  0.0689  0.1849
  418loPI   C3B 6687  14.718  14.940   9.231 -0.0216  0.1057 -0.2705
  418loPI   C4B 6688  14.697  14.815   8.846  0.2259 -0.0554  0.2083
  419loPI    C1 6689  11.612  15.884  11.125  0.1062  0.1612  0.0959
  419loPI    C2 6690  11.860  15.801  10.822 -0.0781 -0.1343  0.0210
  419loPI    C3 6691  11.864  15.574  11.152  0.2603  0.3039  0.3312
  419loPI   PO4 6692  11.414  15.956  10.999 -0.1314  0.2851  0.1822
  419loPI   GL1 6693  11.447  15.933  10.491 -0.1909 -0.0118  0.4308
  419loPI   GL2 6694  11.673  16.113  10.454  0.2076 -0.2337 -0.1029
  419loPI   C1A 6695  11.566  15.742  10.053  0.0705 -0.3310  0.1715
  419loPI   C2A 6696  11.445  15.724   9.744  0.1640 -0.0537  0.0593
  419loPI   C3A 6697  11.403  15.648   9.388  0.2322  0.1758 -0.0533
  419loPI   C4A 6698  11.415  15.760   8.976  0.1425 -0.0730 -0.2713
  419loPI   C5A 6699  11.361  15.656   8.559 -0.0805 -0.0532 -0.2911
  419loPI   C6A 6700  11.234  15.572   8.098 -0.1055 -0.2027 -0.1468
  419loPI   C1B 6701  11.717  16.237  10.034 -0.1634  0.0279  0.3984
  419loPI   C2B 6702  11.742  16.124   9.687  0.3456  0.1299 -0.0153
  419loPI   C3B 6703  11.716  16.118   9.231  0.0282  0.1135  0.1079
  419loPI   C4B 6704  11.581  16.214   8.852  0.1285  0.0864 -0.0852
  420loPI    C1 6705   3.169   9.664  10.980 -0.3189  0.1482 -0.0649
  420loPI    C2 6706   2.884   9.419  11.117 -0.2849  0.1866  0.0762
  420loPI    C3 6707   3.269   9.338  11.189 -0.2723  0.2668  0.0994
  420loPI   PO4 6708   3.144   9.677  10.687 -0.0735 -0.4017  0.1703
  420loPI   GL1 6709   2.933  10.014  10.448  0.0908  0.0300 -0.0892
  420loPI   GL2 6710   2.770  10.309  10.525 -0.0420 -0.2457 -0.1231
  420loPI   C1A 6711   3.167  10.111  10.004 -0.1357  0.4287 -0.4121
  420loPI   C2A 6712   3.181  10.091   9.540  0.4224 -0.2594 -0.2227
  420loPI   C3A 6713   3.278  10.118   9.135  0.1766  0.0100 -0.0333
  420loPI   C4A 6714   3.373  10.311   8.835 -0.1981  0.1065  0.0144
  420loPI   C5A 6715   3.277  10.043   8.366  0.0782 -0.0568 -0.0315
  420loPI   C6A 6716   3.070   9.831   8.027  0.0227 -0.0655 -0.1783
  420loPI   C1B 6717   2.906  10.482  10.131  0.0647 -0.0109 -0.2582
  420loPI   C2B 6718   2.837  10.569   9.747 -0.0877  0.2034 -0.3340
  420loPI   C3B 6719   2.951  10.489   9.260 -0.1247  0.0711 -0.1936
  420loPI   C4B 6720   2.962  10.672   8.875 -0.0123  0.0594 -0.1814
  421loPI    C1 6721  16.842   3.037   9.977  0.0835  0.0504 -0.0977
  421loPI    C2 6722  17.060   2.883  10.275 -0.2123 -0.1663  0.0124
  421loPI    C3 6723  16.697   3.033  10.350 -0.1906 -0.0013 -0.2027
  421loPI   PO4 6724  16.872   2.882   9.779 -0.2347 -0.2526 -0.3122
  421loPI   GL1 6725  17.038   3.109   9.359 -0.0580 -0.0533 -0.1875
  421loPI   GL2 6726  17.220   2.783   9.319 -0.3437 -0.0108 -0.0555
  421loPI   C1A 6727  16.925   3.034   8.908 -0.2158  0.0620  0.1995
  421loPI   C2A 6728  16.983   2.815   8.615 -0.3354 -0.0459 -0.3411
  421loPI   C3A 6729  17.074   2.886   8.167 -0.0167 -0.2701  0.1476
  421loPI   C4A 6730  17.065   2.740   7.735 -0.1501  0.1805 -0.1976
  421loPI   C5A 6731  17.104   2.592   7.325  0.1071 -0.1547  0.1768
  421loPI   C6A 6732  16.663   2.749   7.302 -0.1427 -0.2124 -0.1603
  421loPI   C1B 6733  17.349   2.609   8.953  0.3124 -0.2658  0.0793
  421loPI   C2B 6734  17.348   2.390   8.585 -0.0479 -0.0438  0.0973
  421loPI   C3B 6735  17.275   2.414   8.119  0.1052 -0.1841  0.2617
  421loPI   C4B 6736  17.460   2.179   7.734 -0.5058  0.0556 -0.3962
  422loPI    C1 6737  10.432   8.774  10.998 -0.0002 -0.1375  0.3019
  422loPI    C2 6738  10.435   9.168  11.064 -0.0871 -0.0956  0.0656
  422loPI    C3 6739  10.178   8.934  11.262 -0.3249  0.0236 -0.0974
  422loPI   PO4 6740  10.464   8.709  10.744  0.0537  0.1947  0.1157
  422loPI   GL1 6741  10.308   8.767  10.386 -0.0934 -0.0277 -0.0192
  422loPI   GL2 6742  10.008   8.593  10.277 -0.0777  0.2746  0.0406
  422loPI   C1A 6743  10.192   8.703   9.859  0.1190 -0.1042  0.0218
  422loPI   C2A 6744  10.135   8.716   9.338  0.0394 -0.1831 -0.0985
  422loPI   C3A 6745  10.204   8.711   8.950 -0.2912 -0.1459 -0.0129
  422loPI   C4A 6746  10.223   8.788   8.511  0.1912  0.0485  0.0545
  422loPI   C5A 6747  10.201   8.988   8.138  0.2460  0.2727  0.1372
  422loPI   C6A 6748  10.141   9.422   7.963  0.0080 -0.1828 -0.0637
  422loPI   C1B 6749   9.959   8.293  10.040 -0.2876  0.0009  0.2685
  422loPI   C2B 6750  10.000   8.291   9.610  0.0614  0.0495  0.1020
  422loPI   C3B 6751   9.964   8.185   9.123  0.1520  0.2176  0.0568
  422loPI   C4B 6752   9.839   8.239   8.736 -0.0244 -0.2144 -0.1249
  423loPI    C1 6753   7.426  14.823  11.188  0.1299 -0.0799  0.0508
  423loPI    C2 6754   7.042  14.856  11.294  0.1741  0.0086  0.1855
  423loPI    C3 6755   7.327  14.854  11.574  0.2458 -0.5000  0.1197
  423loPI   PO4 6756   7.383  14.614  11.006 -0.2478  0.0504 -0.4938
  423loPI   GL1 6757   7.224  14.419  10.684  0.2706  0.0185 -0.2510
  423loPI   GL2 6758   6.915  14.389  10.453  0.0313  0.1172 -0.3107
  423loPI   C1A 6759   7.319  14.427  10.279 -0.0555  0.1729  0.0603
  423loPI   C2A 6760   7.338  14.470   9.838 -0.0001 -0.1355 -0.1099
  423loPI   C3A 6761   7.375  14.501   9.422 -0.1055 -0.2205 -0.0355
  423loPI   C4A 6762   7.368  14.377   8.990  0.1226 -0.0437  0.2776
  423loPI   C5A 6763   7.383  14.327   8.507 -0.0324  0.0621  0.0348
  423loPI   C6A 6764   7.459  14.629   8.221  0.2519 -0.2216 -0.2551
  423loPI   C1B 6765   6.714  14.379  10.095 -0.1343  0.1208 -0.0813
  423loPI   C2B 6766   6.764  14.454   9.692 -0.3229 -0.1896  0.0339
  423loPI   C3B 6767   6.757  14.497   9.293 -0.1046  0.1595 -0.2173
  423loPI   C4B 6768   6.854  14.351   8.945  0.2494  0.0094 -0.1049
  424loPI    C1 6769   7.326  14.117  11.161  0.1364 -0.0907  0.0392
  424loPI    C2 6770   7.158  14.385  11.406  0.0512 -0.0381 -0.0756
  424loPI    C3 6771   7.311  14.047  11.554  0.0047 -0.0043  0.0504
  424loPI   PO4 6772   7.121  14.042  10.974 -0.1127  0.1222 -0.0030
  424loPI   GL1 6773   7.031  13.919  10.589 -0.1954  0.0933  0.0074
  424loPI   GL2 6774   7.399  13.961  10.588  0.0053  0.0232 -0.0623
  424loPI   C1A 6775   7.128  13.980  10.111  0.2980  0.2670 -0.1018
  424loPI   C2A 6776   7.023  14.033   9.639  0.1890 -0.0812  0.2759
  424loPI   C3A 6777   7.116  14.010   9.196 -0.0915  0.1224  0.3362
  424loPI   C4A 6778   7.086  13.917   8.733 -0.1301  0.3076 -0.0593
  424loPI   C5A 6779   6.698  13.877   8.513  0.1702 -0.0397 -0.3496
  424loPI   C6A 6780   6.422  13.556   8.456  0.0271  0.1834  0.1701
  424loPI   C1B 6781   7.647  13.984  10.220 -0.2126  0.0078  0.3010
  424loPI   C2B 6782   7.630  14.027   9.808  0.2310 -0.0204  0.1414
  424loPI   C3B 6783   7.594  14.088   9.363  0.0771 -0.0438 -0.2876
  424loPI   C4B 6784   7.643  13.951   8.870 -0.1160  0.0312  0.4170
  425loPI    C1 6785  15.987   1.687  10.514  0.1795 -0.0684  0.0687
  425loPI    C2 6786  16.261   1.938  10.366  0.1729 -0.3306 -0.4091
  425loPI    C3 6787  16.346   1.716  10.688  0.2956  0.0338 -0.1838
  425loPI   PO4 6788  15.900   1.574  10.289  0.3341 -0.2086 -0.1153
  425loPI   GL1 6789  15.671   1.530   9.797 -0.0329 -0.1932  0.1069
  425loPI   GL2 6790  15.296   1.539   9.746  0.3354  0.1688 -0.2082
  425loPI   C1A 6791  15.719   1.214   9.456  0.0835 -0.1360  0.0650
  425loPI   C2A 6792  15.723   1.043   9.013 -0.5781 -0.0706 -0.2531
  425loPI   C3A 6793  15.631   0.887   8.661  0.1041  0.0124  0.3121
  425loPI   C4A 6794  15.844   0.584   8.357 -0.2546  0.0031 -0.0827
  425loPI   C5A 6795  16.086   0.469   7.952  0.3297  0.2429 -0.0782
  425loPI   C6A 6796  16.168   0.186   7.534  0.0894 -0.0602  0.0364
  425loPI   C1B 6797  15.319   1.464   9.374  0.0689  0.0391  0.0490
  425loPI   C2B 6798  15.350   1.389   9.015 -0.0226 -0.0829  0.0894
  425loPI   C3B 6799  15.259   1.463   8.530 -0.1001  0.1987 -0.1789
  425loPI   C4B 6800  15.275   1.228   8.143  0.3292  0.0221  0.1444
  426loPI    C1 6801   3.687   5.623  10.386 -0.0546  0.0247 -0.1401
  426loPI    C2 6802   3.733   5.859  10.706 -0.3515 -0.1433  0.0316
  426loPI    C3 6803   3.911   5.501  10.694 -0.1673 -0.0494 -0.0865
  426loPI   PO4 6804   3.793   5.795  10.164  0.2612  0.1652  0.0170
  426loPI   GL1 6805   4.099   6.031   9.960  0.0491  0.2618  0.1161
  426loPI   GL2 6806   3.998   6.302  10.088  0.2271  0.0187 -0.0884
  426loPI   C1A 6807   4.240   6.038   9.454 -0.2289  0.1148 -0.2391
  426loPI   C2A 6808   4.357   6.080   8.988 -0.0546 -0.2616 -0.1894
  426loPI   C3A 6809   4.489   6.146   8.563 -0.2351 -0.0774  0.0036
  426loPI   C4A 6810   4.530   6.081   8.166 -0.5292 -0.1824 -0.2121
  426loPI   C5A 6811   4.764   5.702   7.957 -0.1577 -0.1162  0.3013
  426loPI   C6A 6812   4.875   5.330   8.081  0.1173 -0.1691 -0.1747
  426loPI   C1B 6813   4.030   6.499   9.724  0.1165 -0.0562  0.0755
  426loPI   C2B 6814   4.060   6.496   9.251  0.2830 -0.1570  0.0015
  426loPI   C3B 6815   4.210   6.597   8.881  0.0075  0.1593  0.1496
  426loPI   C4B 6816   4.200   6.635   8.488  0.0615  0.1812 -0.0496
  427loPI    C1 6817   5.355   8.943  11.262 -0.2255 -0.1490  0.4915
  427loPI    C2 6818   5.564   9.238  11.433 -0.3843  0.0973  0.2689
  427loPI    C3 6819   5.487   8.903  11.637  0.3169 -0.0469  0.3212
  427loPI   PO4 6820   5.423   8.945  10.984 -0.1636  0.0836  0.0605
  427loPI   GL1 6821   5.773   8.957  10.564 -0.0719  0.3859  0.0405
  427loPI   GL2 6822   5.452   8.943  10.394  0.3131  0.1422 -0.3897
  427loPI   C1A 6823   6.047   9.051  10.206  0.1955  0.0131 -0.2040
  427loPI   C2A 6824   6.101   8.925   9.786 -0.2672 -0.1492  0.0450
  427loPI   C3A 6825   6.316   8.948   9.368 -0.0629 -0.0454 -0.2028
  427loPI   C4A 6826   6.205   8.977   8.977  0.1309  0.3029 -0.1255
  427loPI   C5A 6827   6.244   8.993   8.568  0.0831 -0.0559 -0.0516
  427loPI   C6A 6828   6.444   8.973   8.040 -0.1236 -0.2702  0.0095
  427loPI   C1B 6829   5.625   8.890   9.943  0.2678  0.1321 -0.0517
  427loPI   C2B 6830   5.692   8.838   9.559 -0.0311 -0.1780  0.2677
  427loPI   C3B 6831   5.747   8.909   9.200 -0.0707 -0.0059 -0.0783
  427loPI   C4B 6832   5.760   8.931   8.752  0.1716 -0.2195  0.1257
  428loPI    C1 6833   4.304   3.423  10.573  0.1592 -0.0438  0.0442
  428loPI    C2 6834   4.150   3.189  10.858 -0.1150  0.2208  0.1182
  428loPI    C3 6835   4.485   3.394  10.929  0.0276 -0.0076  0.1148
  428loPI   PO4 6836   4.405   3.363  10.361 -0.0589 -0.0887 -0.2547
  428loPI   GL1 6837   4.479   3.239  10.056  0.2592 -0.2133 -0.2143
  428loPI   GL2 6838   4.189   3.148   9.949  0.1804  0.1367 -0.2805
  428loPI   C1A 6839   4.598   3.309   9.657 -0.2247  0.1667 -0.1048
  428loPI   C2A 6840   4.668   3.347   9.152 -0.0266  0.1922 -0.0211
  428loPI   C3A 6841   4.717   3.326   8.698 -0.0111 -0.2484  0.2594
  428loPI   C4A 6842   4.851   3.284   8.283 -0.0421 -0.0449  0.0484
  428loPI   C5A 6843   4.490   3.188   7.973 -0.2267 -0.0108 -0.4334
  428loPI   C6A 6844   4.399   2.725   7.867 -0.1179 -0.0140  0.0203
  428loPI   C1B 6845   4.411   2.857   9.714  0.2403 -0.1683 -0.0114
  428loPI   C2B 6846   4.442   2.911   9.317  0.3184 -0.0850  0.2456
  428loPI   C3B 6847   4.414   2.910   8.861 -0.0458 -0.0539 -0.0773
  428loPI   C4B 6848   4.560   2.914   8.471  0.1003 -0.2666  0.1674
  429loPI    C1 6849  15.811   0.025  10.328 -0.2573 -0.1380  0.0215
  429loPI    C2 6850  15.838  -0.021  10.725  0.0527  0.0800  0.0292
  429loPI    C3 6851  15.570   0.233  10.571  0.2779  0.3843  0.1293
  429loPI   PO4 6852  15.845  -0.196  10.299  0.1311  0.1364  0.1953
  429loPI   GL1 6853  15.995  -0.487  10.010  0.3544  0.3497 -0.2023
  429loPI   GL2 6854  16.386  -0.655   9.799 -0.1556 -0.0466 -0.0838
  429loPI   C1A 6855  15.663  -0.480   9.706  0.1872  0.4070  0.1172
  429loPI   C2A 6856  15.830  -0.565   9.310 -0.0525  0.2258  0.3819
  429loPI   C3A 6857  15.771  -0.808   8.976 -0.1170 -0.2526 -0.0965
  429loPI   C4A 6858  15.676  -0.920   8.483  0.0223  0.2146  0.1894
  429loPI   C5A 6859  15.718  -0.929   8.032 -0.1058 -0.1025  0.2261
  429loPI   C6A 6860  15.672  -0.678   7.708 -0.0832 -0.2186 -0.3445
  429loPI   C1B 6861  16.251  -0.725   9.350  0.1995 -0.0788 -0.2089
  429loPI   C2B 6862  16.337  -0.699   8.959  0.0187 -0.3880 -0.1335
  429loPI   C3B 6863  16.282  -0.947   8.619 -0.1045  0.0782 -0.1790
  429loPI   C4B 6864  16.125  -1.082   8.211 -0.0321  0.1085 -0.0748
  430loPI    C1 6865   4.989   1.752  11.270  0.0216 -0.1780  0.3863
  430loPI    C2 6866   4.793   2.100  11.290  0.1339 -0.0944  0.0873
  430loPI    C3 6867   4.793   1.852  11.604  0.0302  0.1616  0.2933
  430loPI   PO4 6868   5.124   1.745  10.999 -0.0101 -0.2393 -0.1281
  430loPI   GL1 6869   5.293   1.861  10.578  0.2983 -0.2582  0.1273
  430loPI   GL2 6870   5.081   1.981  10.445  0.2196 -0.1254 -0.0297
  430loPI   C1A 6871   5.407   1.685  10.119 -0.1389  0.0868 -0.0797
  430loPI   C2A 6872   5.399   1.680   9.778  0.0992  0.0997 -0.1326
  430loPI   C3A 6873   5.333   1.594   9.305 -0.3166  0.1371 -0.1973
  430loPI   C4A 6874   5.304   1.472   8.942 -0.2374  0.2775 -0.1338
  430loPI   C5A 6875   5.407   1.630   8.549  0.2345  0.1139 -0.0667
  430loPI   C6A 6876   5.214   1.764   8.196 -0.1257  0.0659 -0.1091
  430loPI   C1B 6877   5.079   2.074  10.054 -0.1875  0.3605 -0.1792
  430loPI   C2B 6878   5.116   2.105   9.621 -0.0091 -0.2056  0.1532
  430loPI   C3B 6879   5.038   2.062   9.214 -0.0489 -0.2267  0.1700
  430loPI   C4B 6880   5.009   1.961   8.824  0.0900  0.2174  0.0130
  431loPI    C1 6881   1.352   3.411  10.206 -0.0173 -0.2161  0.0930
  431loPI    C2 6882   1.039   3.578  10.390 -0.0275 -0.1930  0.0548
  431loPI    C3 6883   1.388   3.773  10.374 -0.0925 -0.0909 -0.1549
  431loPI   PO4 6884   1.257   3.276   9.954 -0.2884 -0.0511  0.1331
  431loPI   GL1 6885   1.248   3.102   9.532 -0.3006  0.1754 -0.3913
  431loPI   GL2 6886   0.905   3.230   9.601 -0.1614 -0.2778 -0.3040
  431loPI   C1A 6887   1.411   2.998   9.184 -0.2419  0.0255  0.0114
  431loPI   C2A 6888   1.464   3.059   8.850 -0.1016  0.0022  0.1348
  431loPI   C3A 6889   1.492   3.109   8.403 -0.3102  0.1620  0.1242
  431loPI   C4A 6890   1.582   3.100   7.972  0.0405  0.2803 -0.0411
  431loPI   C5A 6891   1.775   2.992   7.604 -0.0355 -0.1772 -0.0355
  431loPI   C6A 6892   1.816   2.711   7.272 -0.0905  0.0418  0.1034
  431loPI   C1B 6893   0.855   3.176   9.123 -0.5145  0.0464  0.1565
  431loPI   C2B 6894   0.960   2.994   8.680  0.1351  0.3363 -0.2122
  431loPI   C3B 6895   1.036   2.952   8.264  0.0312  0.0549 -0.3413
  431loPI   C4B 6896   1.121   2.987   7.881  0.3367 -0.0615  0.2620
  432loPI    C1 6897   8.907  10.843  11.166  0.0653  0.1524 -0.1409
  432loPI    C2 6898   9.298  10.770  11.209  0.0947  0.3073 -0.1394
  432loPI    C3 6899   9.052  10.733  11.522  0.0465 -0.1549 -0.2257
  432loPI   PO4 6900   8.939  10.753  10.924  0.0639 -0.0866  0.2113
  432loPI   GL1 6901   8.933  10.474  10.620 -0.2667  0.4568  0.1903
  432loPI   GL2 6902   8.765  10.179  10.696 -0.0351  0.3081  0.1533
  432loPI   C1A 6903   8.852  10.503  10.210 -0.4202 -0.0662  0.3527
  432loPI   C2A 6904   8.881  10.534   9.754  0.0294 -0.0696 -0.0804
  432loPI   C3A 6905   9.048  10.522   9.345 -0.2853  0.2324  0.0271
  432loPI   C4A 6906   9.133  10.614   8.888 -0.1022  0.2195 -0.0610
  432loPI   C5A 6907   9.099  10.843   8.519  0.2797  0.1375  0.3396
  432loPI   C6A 6908   9.204  11.312   8.394  0.0274 -0.0428  0.1591
  432loPI   C1B 6909   8.681  10.052  10.290 -0.0926  0.0983  0.2475
  432loPI   C2B 6910   8.698  10.084   9.843 -0.0749 -0.0031 -0.0602
  432loPI   C3B 6911   8.734  10.009   9.364 -0.0881  0.2331  0.2007
  432loPI   C4B 6912   8.835  10.217   9.022 -0.1273 -0.1890  0.0790
  433loPI    C1 6913  14.049  13.684  11.227  0.0886  0.0907 -0.1633
  433loPI    C2 6914  14.129  14.017  11.433 -0.1664  0.0589 -0.0082
  433loPI    C3 6915  14.227  13.660  11.584 -0.1979  0.0450 -0.0208
  433loPI   PO4 6916  13.860  13.823  11.065 -0.1327 -0.0372 -0.0458
  433loPI   GL1 6917  14.029  13.982  10.603 -0.2170  0.2714 -0.0527
  433loPI   GL2 6918  14.304  14.100  10.367  0.2779  0.0403 -0.0786
  433loPI   C1A 6919  13.790  13.993  10.179 -0.1678  0.2353  0.1815
  433loPI   C2A 6920  13.741  13.939   9.722 -0.0336 -0.1303 -0.1019
  433loPI   C3A 6921  13.656  13.974   9.350 -0.4357  0.0010  0.3901
  433loPI   C4A 6922  13.694  14.030   8.898  0.0995 -0.3228  0.0594
  433loPI   C5A 6923  13.738  13.763   8.533 -0.1680 -0.0155 -0.3027
  433loPI   C6A 6924  13.981  13.571   8.298  0.0912 -0.0022 -0.1297
  433loPI   C1B 6925  14.252  14.009   9.996 -0.0890 -0.2121  0.1810
  433loPI   C2B 6926  14.188  14.011   9.458  0.0887  0.1248 -0.3292
  433loPI   C3B 6927  14.239  13.987   9.038 -0.1316  0.0032  0.3699
  433loPI   C4B 6928  14.222  13.988   8.492 -0.1975 -0.1188 -0.1516
  434loPI    C1 6929  10.189   5.969  11.008  0.0635  0.2602 -0.1451
  434loPI    C2 6930  10.009   6.289  11.166  0.1072  0.1563  0.1210
  434loPI    C3 6931  10.225   6.046  11.399  0.2687  0.0626 -0.1229
  434loPI   PO4 6932  10.281   5.962  10.826 -0.1243 -0.0635 -0.0083
  434loPI   GL1 6933  10.309   6.065  10.386  0.0856  0.2150 -0.0449
  434loPI   GL2 6934  10.473   5.913  10.377  0.0658 -0.1978  0.0043
  434loPI   C1A 6935  10.413   6.077   9.912  0.1516  0.0573  0.1848
  434loPI   C2A 6936  10.405   6.005   9.495  0.0789  0.4052  0.0146
  434loPI   C3A 6937  10.290   6.034   9.135 -0.0516  0.1156  0.1601
  434loPI   C4A 6938   9.987   6.009   8.717  0.1055 -0.1811 -0.1872
  434loPI   C5A 6939   9.705   6.079   8.433 -0.1311 -0.3749  0.1900
  434loPI   C6A 6940   9.471   6.477   8.264  0.0630 -0.1861 -0.0051
  434loPI   C1B 6941  10.261   5.602  10.181  0.0658 -0.1858 -0.1824
  434loPI   C2B 6942  10.184   5.499   9.781  0.0225 -0.2619 -0.1342
  434loPI   C3B 6943  10.109   5.599   9.263  0.1558  0.3885  0.2609
  434loPI   C4B 6944  10.080   5.542   8.806  0.5240 -0.1551 -0.0590
  435loPI    C1 6945   4.844  13.020  11.278  0.1860 -0.1573  0.0631
  435loPI    C2 6946   4.556  12.924  11.538  0.0756  0.1397  0.0538
  435loPI    C3 6947   4.900  13.082  11.669  0.1535 -0.0222  0.0468
  435loPI   PO4 6948   4.784  12.887  11.002  0.3096  0.0497  0.0914
  435loPI   GL1 6949   4.618  12.817  10.521  0.1097 -0.0008 -0.2208
  435loPI   GL2 6950   4.476  13.084  10.616 -0.0378  0.0516  0.0497
  435loPI   C1A 6951   4.411  12.750  10.145 -0.0587 -0.1836 -0.0872
  435loPI   C2A 6952   4.549  12.872   9.715 -0.1246 -0.1617 -0.1260
  435loPI   C3A 6953   4.631  12.906   9.313  0.0976  0.0396  0.0022
  435loPI   C4A 6954   4.629  13.028   8.850  0.0337 -0.1326  0.1507
  435loPI   C5A 6955   4.498  13.363   8.561 -0.0362  0.2757 -0.1319
  435loPI   C6A 6956   4.568  13.874   8.541  0.1523  0.0410 -0.1713
  435loPI   C1B 6957   4.581  13.258  10.233 -0.0672 -0.0601  0.1213
  435loPI   C2B 6958   4.764  13.291   9.828  0.2103  0.1225  0.1553
  435loPI   C3B 6959   4.814  13.403   9.276  0.2996  0.2317  0.0006
  435loPI   C4B 6960   4.828  13.495   8.867 -0.0410  0.1050 -0.0011
  436loPI    C1 6961   7.368  12.934  10.776  0.1221 -0.0645 -0.1082
  436loPI    C2 6962   7.073  13.004  11.037 -0.0357  0.1264 -0.3331
  436loPI    C3 6963   7.453  13.072  11.141 -0.1037  0.2775 -0.1800
  436loPI   PO4 6964   7.275  12.647  10.646 -0.1631 -0.0417 -0.3623
  436loPI   GL1 6965   7.108  12.603  10.284 -0.2859  0.0249 -0.3742
  436loPI   GL2 6966   7.424  12.555  10.168 -0.0628 -0.2347 -0.1355
  436loPI   C1A 6967   6.931  12.640   9.890 -0.1461 -0.3598  0.1591
  436loPI   C2A 6968   6.931  12.671   9.441  0.1536  0.1103  0.0019
  436loPI   C3A 6969   6.900  12.586   9.063  0.0692 -0.1702 -0.1271
  436loPI   C4A 6970   6.882  12.634   8.674  0.1171 -0.1783  0.0346
  436loPI   C5A 6971   6.725  12.728   8.242  0.4789 -0.1348 -0.5017
  436loPI   C6A 6972   6.690  12.911   7.777  0.2048  0.2311  0.2283
  436loPI   C1B 6973   7.442  12.663   9.776 -0.0489 -0.1553  0.1135
  436loPI   C2B 6974   7.480  12.579   9.352  0.0009  0.0658 -0.0069
  436loPI   C3B 6975   7.426  12.667   9.043  0.0824  0.0927 -0.3575
  436loPI   C4B 6976   7.546  12.655   8.635 -0.1136 -0.1482 -0.0808
  437loPI    C1 6977  11.770  16.350  11.003 -0.2766 -0.2052  0.3690
  437loPI    C2 6978  12.049  16.583  11.171  0.0458 -0.0897 -0.2895
  437loPI    C3 6979  12.094  16.185  11.170 -0.0706 -0.1078  0.0747
  437loPI   PO4 6980  11.722  16.489  10.831 -0.2755  0.1613 -0.1276
  437loPI   GL1 6981  11.721  16.630  10.452  0.5633 -0.0256  0.1170
  437loPI   GL2 6982  12.017  16.471  10.330 -0.1679 -0.1361  0.0410
  437loPI   C1A 6983  11.483  16.592  10.208  0.2127  0.4457 -0.2706
  437loPI   C2A 6984  11.383  16.589   9.761  0.2495  0.0175  0.0500
  437loPI   C3A 6985  11.397  16.549   9.277 -0.0705 -0.0033  0.3106
  437loPI   C4A 6986  11.245  16.598   8.876 -0.1443  0.3387  0.2149
  437loPI   C5A 6987  11.198  16.421   8.478 -0.0242  0.1607 -0.2248
  437loPI   C6A 6988  11.085  16.035   8.323  0.0150  0.0563  0.0365
  437loPI   C1B 6989  11.930  16.704   9.988 -0.2261  0.3942 -0.2409
  437loPI   C2B 6990  11.883  16.585   9.558  0.4477  0.3166  0.1385
  437loPI   C3B 6991  11.917  16.616   9.019 -0.0798  0.1283 -0.1312
  437loPI   C4B 6992  11.843  16.581   8.694 -0.1305 -0.0246 -0.2067
  438loPI    C1 6993  12.700   7.258  10.619  0.0303  0.0721 -0.0556
  438loPI    C2 6994  12.812   7.071  10.955 -0.1339 -0.0879 -0.0883
  438loPI    C3 6995  12.594   7.406  10.975 -0.1682 -0.1131 -0.0355
  438loPI   PO4 6996  12.926   7.113  10.413  0.1721  0.0917 -0.1028
  438loPI   GL1 6997  12.831   6.830  10.098  0.3925 -0.1368  0.0978
  438loPI   GL2 6998  13.078   6.703   9.921  0.1427 -0.1158 -0.0818
  438loPI   C1A 6999  12.503   7.025   9.720 -0.0782 -0.0219 -0.1646
  438loPI   C2A 7000  12.446   6.979   9.332  0.1077  0.0352 -0.1893
  438loPI   C3A 7001  12.350   7.150   8.956  0.1185 -0.0992 -0.1722
  438loPI   C4A 7002  12.283   6.993   8.556 -0.0661  0.2019  0.0342
  438loPI   C5A 7003  11.965   6.702   8.327  0.0291  0.1823 -0.1473
  438loPI   C6A 7004  11.736   6.323   8.251 -0.2166 -0.1942 -0.0018
  438loPI   C1B 7005  12.849   6.462   9.699  0.1210 -0.2696 -0.0037
  438loPI   C2B 7006  12.739   6.605   9.339  0.2370 -0.0071  0.1658
  438loPI   C3B 7007  12.659   6.652   8.864  0.0454  0.0307  0.2235
  438loPI   C4B 7008  12.506   6.593   8.371 -0.3201 -0.1481  0.2491
  439loPI    C1 7009  10.948  15.464  10.801  0.0546 -0.1302 -0.1545
  439loPI    C2 7010  10.811  15.699  11.095  0.3078 -0.3077  0.1116
  439loPI    C3 7011  11.018  15.858  10.792  0.2559 -0.1548  0.1555
  439loPI   PO4 7012  10.759  15.308  10.796  0.2034 -0.2234 -0.1076
  439loPI   GL1 7013  10.571  15.374  10.382 -0.0390 -0.0228 -0.0684
  439loPI   GL2 7014  10.688  15.026  10.390 -0.3828  0.4598  0.1299
  439loPI   C1A 7015  10.488  15.566  10.003 -0.3577 -0.0489 -0.1096
  439loPI   C2A 7016  10.363  15.601   9.598 -0.1016  0.1030 -0.2050
  439loPI   C3A 7017  10.406  15.630   9.155  0.0787  0.3213 -0.1576
  439loPI   C4A 7018  10.343  15.690   8.696 -0.1986  0.0977  0.1548
  439loPI   C5A 7019  10.148  15.981   8.340  0.0268  0.1269  0.2449
  439loPI   C6A 7020   9.813  16.222   8.222 -0.1715  0.0234  0.0505
  439loPI   C1B 7021  10.707  15.099   9.961  0.2070 -0.0706  0.0625
  439loPI   C2B 7022  10.595  15.204   9.561  0.1600  0.0902  0.1782
  439loPI   C3B 7023  10.708  15.262   9.204 -0.2128 -0.0450 -0.2119
  439loPI   C4B 7024  10.539  15.228   8.787  0.0401 -0.0391 -0.0459
  440loPI    C1 7025   2.921   0.222  11.028  0.0364 -0.2591 -0.0119
  440loPI    C2 7026   2.738  -0.024  11.284 -0.2359 -0.0786 -0.0280
  440loPI    C3 7027   2.906   0.313  11.417 -0.2596 -0.0506 -0.0683
  440loPI   PO4 7028   3.051   0.082  10.814  0.2522  0.1862  0.0709
  440loPI   GL1 7029   2.955   0.054  10.342  0.1757  0.0458 -0.0518
  440loPI   GL2 7030   2.844   0.488  10.519 -0.0862  0.3196  0.2075
  440loPI   C1A 7031   2.958   0.057   9.870  0.0304  0.0148 -0.0612
  440loPI   C2A 7032   3.061   0.007   9.436 -0.0461  0.0579 -0.4275
  440loPI   C3A 7033   3.108   0.009   8.992 -0.3212  0.1115  0.2022
  440loPI   C4A 7034   3.046  -0.066   8.586  0.2592  0.0374  0.1011
  440loPI   C5A 7035   3.132   0.069   8.170  0.0888 -0.0308  0.1036
  440loPI   C6A 7036   2.928   0.038   7.746  0.0622  0.2308 -0.0999
  440loPI   C1B 7037   3.140   0.460  10.117  0.3097 -0.2881  0.2527
  440loPI   C2B 7038   3.183   0.563   9.713 -0.0954 -0.2451  0.0183
  440loPI   C3B 7039   3.182   0.453   9.262 -0.1874  0.0616  0.0158
  440loPI   C4B 7040   3.259   0.423   8.807 -0.0125  0.3325  0.0114
  441loPI    C1 7041   1.988   9.969  11.171  0.0366 -0.2134  0.0182
  441loPI    C2 7042   2.280   9.843  11.413  0.2465  0.5040  0.1620
  441loPI    C3 7043   1.915   9.917  11.561  0.1815  0.2766  0.1182
  441loPI   PO4 7044   2.245  10.026  10.937 -0.2368 -0.3853 -0.0394
  441loPI   GL1 7045   2.222  10.229  10.556 -0.1827 -0.2542 -0.0313
  441loPI   GL2 7046   2.347  10.450  10.336  0.2426  0.1921  0.1528
  441loPI   C1A 7047   2.461   9.957  10.234 -0.1050 -0.1885  0.2455
  441loPI   C2A 7048   2.698  10.045   9.892 -0.0981 -0.0917  0.1165
  441loPI   C3A 7049   2.616  10.127   9.491 -0.1318  0.1620  0.1290
  441loPI   C4A 7050   2.759  10.037   9.160 -0.1080 -0.1128 -0.1710
  441loPI   C5A 7051   2.845  10.241   8.776 -0.0156  0.1108 -0.1198
  441loPI   C6A 7052   2.845  10.255   8.263 -0.1808  0.1169 -0.1253
  441loPI   C1B 7053   2.373  10.506   9.880  0.1541  0.2909 -0.2040
  441loPI   C2B 7054   2.395  10.544   9.503  0.0935  0.2168  0.0156
  441loPI   C3B 7055   2.486  10.575   8.971 -0.1001  0.0785  0.1807
  441loPI   C4B 7056   2.474  10.579   8.538 -0.0445  0.4879  0.1854
  442loPI    C1 7057   5.625  11.286  11.310  0.1147 -0.0488 -0.0617
  442loPI    C2 7058   5.931  11.503  11.447  0.2213 -0.2100 -0.0423
  442loPI    C3 7059   5.752  11.237  11.686  0.2244 -0.2898 -0.1283
  442loPI   PO4 7060   5.714  11.253  11.018 -0.1041  0.2053 -0.0444
  442loPI   GL1 7061   5.591  11.308  10.647 -0.3531 -0.2018  0.1152
  442loPI   GL2 7062   5.544  11.645  10.625 -0.2021 -0.0101 -0.0107
  442loPI   C1A 7063   5.575  11.132  10.263 -0.1029 -0.1085  0.2399
  442loPI   C2A 7064   5.672  11.204   9.882  0.1876  0.0696  0.0362
  442loPI   C3A 7065   5.718  11.233   9.358  0.0228 -0.6073 -0.2723
  442loPI   C4A 7066   5.684  11.227   8.914 -0.0642  0.1103  0.0475
  442loPI   C5A 7067   5.715  11.072   8.552  0.1510 -0.0044  0.1930
  442loPI   C6A 7068   6.011  10.814   8.425  0.0288  0.2078  0.0237
  442loPI   C1B 7069   5.556  11.642  10.105 -0.1875  0.0846  0.2613
  442loPI   C2B 7070   5.564  11.652   9.687 -0.1216  0.2081  0.0415
  442loPI   C3B 7071   5.437  11.643   9.279 -0.0031 -0.1536  0.3195
  442loPI   C4B 7072   5.351  11.583   8.827 -0.0337  0.0060 -0.2489
  443loPI    C1 7073   0.665  15.541  10.740 -0.2081 -0.0178 -0.2359
  443loPI    C2 7074   0.828  15.179  10.789 -0.1899 -0.0033 -0.1891
  443loPI    C3 7075   0.868  15.456  11.074 -0.2658  0.0123 -0.1933
  443loPI   PO4 7076   0.667  15.613  10.518  0.4007 -0.1193  0.1334
  443loPI   GL1 7077   0.548  15.477  10.240 -0.2403  0.1329 -0.2223
  443loPI   GL2 7078   0.462  15.132  10.346 -0.1307 -0.0865  0.0973
  443loPI   C1A 7079   0.595  15.284   9.873  0.0202  0.1552  0.0371
  443loPI   C2A 7080   0.628  15.294   9.431  0.1867 -0.1582  0.0144
  443loPI   C3A 7081   0.649  15.265   9.066  0.3629 -0.1692  0.1026
  443loPI   C4A 7082   0.693  15.244   8.638 -0.4936 -0.2658 -0.0430
  443loPI   C5A 7083   0.847  15.352   8.221 -0.1906 -0.2535  0.4029
  443loPI   C6A 7084   1.118  15.714   8.153  0.1345 -0.1169 -0.3529
  443loPI   C1B 7085   0.381  14.878   9.994  0.0977  0.0224  0.0637
  443loPI   C2B 7086   0.506  14.859   9.577 -0.1619 -0.0153 -0.0802
  443loPI   C3B 7087   0.452  14.866   9.157 -0.4242 -0.2349 -0.0354
  443loPI   C4B 7088   0.463  14.788   8.717 -0.1389 -0.2888 -0.0945
  444loPI    C1 7089   9.452   3.934  11.009 -0.2162 -0.0335 -0.3717
  444loPI    C2 7090   9.836   3.823  10.995 -0.0596  0.4610 -0.2042
  444loPI    C3 7091   9.632   3.791  11.337 -0.1654  0.2172 -0.2881
  444loPI   PO4 7092   9.345   3.839  10.800 -0.1067 -0.1365 -0.1923
  444loPI   GL1 7093   9.411   4.015  10.425  0.0594 -0.1200 -0.3423
  444loPI   GL2 7094   9.257   3.790  10.140 -0.2972 -0.0993 -0.2945
  444loPI   C1A 7095   9.555   4.182  10.110 -0.2150 -0.1557  0.0283
  444loPI   C2A 7096   9.485   4.186   9.763  0.0614 -0.0090  0.1310
  444loPI   C3A 7097   9.378   4.145   9.409 -0.0358 -0.0884  0.5598
  444loPI   C4A 7098   9.490   4.177   9.018  0.1669  0.0711 -0.2220
  444loPI   C5A 7099   9.562   4.292   8.620  0.1039  0.1236 -0.0998
  444loPI   C6A 7100   9.327   4.536   8.374  0.0347 -0.0426 -0.0398
  444loPI   C1B 7101   9.285   3.726   9.690  0.1288 -0.2462  0.2474
  444loPI   C2B 7102   9.191   3.742   9.272 -0.1642  0.2259 -0.1953
  444loPI   C3B 7103   9.276   3.755   8.871 -0.0836 -0.3840  0.0090
  444loPI   C4B 7104   9.264   3.889   8.511 -0.0202  0.0720 -0.1612
  445loPI    C1 7105  11.155  15.099  11.091 -0.1884  0.1106 -0.0505
  445loPI    C2 7106  11.522  15.198  11.214 -0.1588  0.0186 -0.0641
  445loPI    C3 7107  11.215  15.443  11.286 -0.1054  0.0661  0.0031
  445loPI   PO4 7108  11.189  14.995  10.861 -0.0478 -0.0780  0.1155
  445loPI   GL1 7109  11.154  15.224  10.333  0.0397 -0.5259 -0.0860
  445loPI   GL2 7110  11.101  15.602  10.347  0.0557  0.0254  0.1530
  445loPI   C1A 7111  11.198  15.281   9.944  0.1154  0.0494 -0.0343
  445loPI   C2A 7112  11.139  15.146   9.457 -0.1688 -0.3675 -0.0637
  445loPI   C3A 7113  11.178  15.253   9.102 -0.0479 -0.2363 -0.2384
  445loPI   C4A 7114  11.020  15.244   8.750  0.2398  0.0321  0.3788
  445loPI   C5A 7115  10.749  15.261   8.292 -0.1559  0.2874  0.0403
  445loPI   C6A 7116  10.534  15.033   7.893 -0.1601 -0.0247 -0.1359
  445loPI   C1B 7117  11.036  15.735   9.972  0.2998  0.2802 -0.1810
  445loPI   C2B 7118  10.906  15.654   9.568 -0.3985 -0.0613 -0.3980
  445loPI   C3B 7119  10.910  15.716   9.081  0.1722 -0.0418  0.1333
  445loPI   C4B 7120  10.846  15.724   8.676  0.1741 -0.1031  0.0933
  446loPI    C1 7121  11.961   5.200  10.679  0.1838 -0.0574 -0.1767
  446loPI    C2 7122  11.758   5.165  11.022  0.1214 -0.3221 -0.2381
  446loPI    C3 7123  12.071   5.413  11.000 -0.2628  0.1856 -0.1771
  446loPI   PO4 7124  11.769   5.317  10.533  0.0846  0.1896 -0.4445
  446loPI   GL1 7125  11.481   5.205  10.280 -0.1006 -0.2416 -0.0450
  446loPI   GL2 7126  11.673   5.359  10.082 -0.0978 -0.1191  0.0757
  446loPI   C1A 7127  11.094   5.198   9.944 -0.1278 -0.3059 -0.0824
  446loPI   C2A 7128  10.974   5.229   9.482  0.1355  0.1588  0.0587
  446loPI   C3A 7129  10.970   5.211   9.075  0.0032  0.0980  0.0789
  446loPI   C4A 7130  10.852   5.267   8.672 -0.2918  0.2957 -0.2653
  446loPI   C5A 7131  10.950   5.127   8.360  0.1462  0.2593  0.3445
  446loPI   C6A 7132  11.173   5.160   7.999 -0.0179 -0.0126  0.1655
  446loPI   C1B 7133  11.505   5.248   9.678 -0.0597  0.0778 -0.0611
  446loPI   C2B 7134  11.481   5.260   9.234 -0.0712 -0.1381 -0.0426
  446loPI   C3B 7135  11.434   5.162   8.775 -0.2616 -0.1037  0.1527
  446loPI   C4B 7136  11.428   5.301   8.426 -0.5848 -0.0980 -0.1898
  447loPI    C1 7137   1.366  10.657  11.246  0.0108 -0.0198  0.1697
  447loPI    C2 7138   1.525  11.013  11.336  0.2855 -0.1129  0.0619
  447loPI    C3 7139   1.572  10.704  11.585  0.3432 -0.1609 -0.0079
  447loPI   PO4 7140   1.429  10.582  10.949  0.1920  0.1858 -0.1089
  447loPI   GL1 7141   1.532  10.666  10.485  0.1547  0.0677  0.3640
  447loPI   GL2 7142   1.817  10.535  10.517  0.0466  0.1051  0.0300
  447loPI   C1A 7143   1.568  10.879  10.151 -0.0356  0.0793  0.0429
  447loPI   C2A 7144   1.566  10.947   9.718 -0.2829  0.0324  0.0321
  447loPI   C3A 7145   1.568  10.921   9.281  0.1202 -0.1364 -0.0074
  447loPI   C4A 7146   1.580  10.941   8.877 -0.2226 -0.0778 -0.1697
  447loPI   C5A 7147   1.747  11.258   8.544 -0.1820  0.0515  0.3000
  447loPI   C6A 7148   1.910  11.303   8.189  0.1060 -0.2948  0.0603
  447loPI   C1B 7149   1.909  10.419  10.170  0.0655  0.2781  0.1022
  447loPI   C2B 7150   1.906  10.555   9.741  0.0689 -0.1039  0.0700
  447loPI   C3B 7151   1.872  10.461   9.387  0.1166 -0.0215  0.0492
  447loPI   C4B 7152   1.906  10.498   8.939  0.6214 -0.1397 -0.0939
  448loPI    C1 7153   7.389   6.711  10.903  0.1155  0.0090  0.1251
  448loPI    C2 7154   7.239   6.476  11.189  0.0984 -0.0811  0.0427
  448loPI    C3 7155   7.002   6.612  10.898  0.1359 -0.0675  0.0184
  448loPI   PO4 7156   7.606   6.749  10.736  0.2446  0.0570 -0.1407
  448loPI   GL1 7157   7.642   6.944  10.329  0.2206 -0.3134 -0.1420
  448loPI   GL2 7158   7.884   7.144  10.171  0.1123 -0.1570 -0.2846
  448loPI   C1A 7159   7.656   6.713   9.902 -0.0811 -0.0262  0.2456
  448loPI   C2A 7160   7.713   6.738   9.468  0.0038  0.0819 -0.1280
  448loPI   C3A 7161   7.683   6.874   8.980  0.3775  0.1588 -0.1591
  448loPI   C4A 7162   7.670   6.867   8.478  0.1702 -0.0864 -0.1853
  448loPI   C5A 7163   7.387   6.706   8.136  0.0218 -0.6227  0.3186
  448loPI   C6A 7164   7.003   6.481   7.854 -0.0392  0.2843 -0.0544
  448loPI   C1B 7165   7.793   7.214   9.816  0.1917 -0.0488 -0.1762
  448loPI   C2B 7166   7.854   7.286   9.402 -0.1319 -0.2285 -0.0207
  448loPI   C3B 7167   7.933   7.325   8.974 -0.2325  0.1635  0.1545
  448loPI   C4B 7168   7.912   7.297   8.450 -0.1722  0.1671 -0.0138
  449loPI    C1 7169   4.736   0.655  11.098  0.0445  0.1755  0.0759
  449loPI    C2 7170   5.057   0.741  11.322  0.0206 -0.0700  0.2080
  449loPI    C3 7171   4.690   0.826  11.457 -0.0038 -0.3771  0.3443
  449loPI   PO4 7172   4.835   0.570  10.808 -0.0508 -0.0102 -0.3496
  449loPI   GL1 7173   5.024   0.592  10.464  0.1422 -0.2372  0.0600
  449loPI   GL2 7174   5.247   0.901  10.359  0.0552 -0.1055 -0.0815
  449loPI   C1A 7175   4.898   0.876   9.992 -0.0904 -0.0396 -0.0088
  449loPI   C2A 7176   4.953   0.732   9.546 -0.1888 -0.0338  0.0254
  449loPI   C3A 7177   4.882   0.570   9.084  0.0415  0.0628 -0.1298
  449loPI   C4A 7178   4.858   0.589   8.646  0.2706 -0.0718 -0.1065
  449loPI   C5A 7179   4.568   0.594   8.327  0.0579  0.1237  0.0271
  449loPI   C6A 7180   4.084   0.675   8.230 -0.2580 -0.1881  0.0668
  449loPI   C1B 7181   5.372   0.917   9.902 -0.0035 -0.1451  0.1713
  449loPI   C2B 7182   5.454   0.747   9.492 -0.0079 -0.3447 -0.2084
  449loPI   C3B 7183   5.410   0.627   9.102  0.0645 -0.0468 -0.0446
  449loPI   C4B 7184   5.376   0.631   8.648  0.2301 -0.0745 -0.1972
  450loPI    C1 7185   8.949   5.270  11.453 -0.1611 -0.1968  0.2571
  450loPI    C2 7186   9.199   5.453  11.706 -0.2174  0.2499 -0.0007
  450loPI    C3 7187   8.804   5.469  11.769 -0.2186  0.1466  0.0197
  450loPI   PO4 7188   9.114   5.387  11.183  0.0200 -0.0736  0.0589
  450loPI   GL1 7189   9.276   5.589  10.724 -0.1169 -0.0876  0.1426
  450loPI   GL2 7190   8.997   5.278  10.730  0.2479  0.1719 -0.1050
  450loPI   C1A 7191   9.166   5.454  10.210  0.3972  0.0143  0.0872
  450loPI   C2A 7192   9.142   5.438   9.756 -0.1322 -0.0563 -0.0443
  450loPI   C3A 7193   9.025   5.569   9.298  0.2491  0.1590 -0.0887
  450loPI   C4A 7194   9.050   5.545   8.908  0.0677 -0.2872 -0.2317
  450loPI   C5A 7195   9.127   5.656   8.413 -0.1129 -0.0011  0.0604
  450loPI   C6A 7196   9.496   5.658   8.074  0.1853 -0.1822  0.0680
  450loPI   C1B 7197   8.711   5.336  10.429 -0.1956 -0.0530 -0.0519
  450loPI   C2B 7198   8.664   5.471  10.025 -0.1920 -0.1745 -0.2121
  450loPI   C3B 7199   8.591   5.502   9.587 -0.0030  0.3580 -0.0782
  450loPI   C4B 7200   8.555   5.562   9.173  0.3813  0.3513 -0.0903
  451loPI    C1 7201   0.116   8.417  10.758 -0.0027  0.2262  0.0301
  451loPI    C2 7202  -0.241   8.250  10.828 -0.0477  0.2830 -0.0635
  451loPI    C3 7203  -0.114   8.554  11.056 -0.0478  0.2458 -0.0138
  451loPI   PO4 7204   0.112   8.369  10.407 -0.1287  0.2384  0.0733
  451loPI   GL1 7205  -0.084   8.512  10.084  0.3022 -0.0065 -0.0511
  451loPI   GL2 7206   0.113   8.309   9.910  0.1912 -0.2610  0.0383
  451loPI   C1A 7207   0.149   8.795   9.697 -0.1202 -0.2829 -0.1579
  451loPI   C2A 7208   0.108   8.956   9.322  0.0055  0.3158 -0.0209
  451loPI   C3A 7209   0.264   8.961   8.830  0.1588 -0.2641  0.1028
  451loPI   C4A 7210   0.453   9.030   8.380 -0.1546  0.0837  0.0232
  451loPI   C5A 7211   0.390   9.061   7.868  0.1389  0.0838  0.4579
  451loPI   C6A 7212   0.615   9.003   7.440 -0.1711 -0.0302 -0.0931
  451loPI   C1B 7213   0.473   8.410   9.669  0.3782  0.0470 -0.0572
  451loPI   C2B 7214   0.525   8.517   9.139 -0.0172  0.0329  0.2718
  451loPI   C3B 7215   0.624   8.593   8.736 -0.0808 -0.3074  0.0173
  451loPI   C4B 7216   0.662   8.520   8.338  0.0518  0.0679  0.0675
  452loPI    C1 7217  17.263  13.461  11.003  0.1084  0.1498  0.1276
  452loPI    C2 7218  17.555  13.327  11.241 -0.1566 -0.1358  0.2997
  452loPI    C3 7219  17.177  13.338  11.374 -0.2570  0.0340  0.0096
  452loPI   PO4 7220  17.256  13.347  10.765  0.0294 -0.0933  0.1690
  452loPI   GL1 7221  17.365  13.305  10.325  0.1537  0.3692 -0.0279
  452loPI   GL2 7222  17.722  13.328  10.360  0.2453  0.0188 -0.1435
  452loPI   C1A 7223  17.309  13.207   9.856  0.0869 -0.0092  0.2900
  452loPI   C2A 7224  17.450  13.260   9.551  0.2091 -0.1691 -0.2002
  452loPI   C3A 7225  17.421  13.338   9.144 -0.0822 -0.0779  0.1281
  452loPI   C4A 7226  17.372  13.349   8.616 -0.4233 -0.0595 -0.0880
  452loPI   C5A 7227  17.218  13.690   8.397 -0.2416 -0.0798  0.2414
  452loPI   C6A 7228  16.752  13.687   8.476  0.3229 -0.2007  0.0286
  452loPI   C1B 7229  17.947  13.322   9.920 -0.0504  0.3047 -0.1110
  452loPI   C2B 7230  17.931  13.405   9.540  0.0688 -0.0853  0.2762
  452loPI   C3B 7231  17.937  13.403   9.031  0.2320 -0.2940 -0.1924
  452loPI   C4B 7232  18.074  13.458   8.611 -0.5450 -0.1437 -0.3491
  453loPI    C1 7233  10.011  10.190  11.080 -0.0817 -0.1644 -0.1956
  453loPI    C2 7234  10.027   9.853  11.296  0.0382 -0.0611 -0.0407
  453loPI    C3 7235   9.854  10.180  11.448  0.0577 -0.0086 -0.1303
  453loPI   PO4 7236   9.991  10.111  10.847  0.0616 -0.1890 -0.1839
  453loPI   GL1 7237   9.801  10.260  10.544 -0.3805 -0.3240 -0.2764
  453loPI   GL2 7238   9.871  10.539  10.578 -0.0542  0.0042  0.2056
  453loPI   C1A 7239   9.742  10.101  10.111 -0.1187 -0.1509  0.0628
  453loPI   C2A 7240   9.711  10.051   9.768  0.0218 -0.0426 -0.1354
  453loPI   C3A 7241   9.837  10.091   9.384  0.0716 -0.0083 -0.1035
  453loPI   C4A 7242   9.882  10.172   8.901  0.2633  0.1973 -0.1900
  453loPI   C5A 7243   9.951  10.503   8.529  0.1330 -0.1896 -0.1134
  453loPI   C6A 7244  10.087  10.851   8.286  0.0081  0.1023 -0.0375
  453loPI   C1B 7245   9.983  10.587  10.131  0.2675  0.4109 -0.0201
  453loPI   C2B 7246  10.026  10.588   9.764 -0.2592  0.3423 -0.1639
  453loPI   C3B 7247  10.077  10.583   9.305  0.2033  0.1911 -0.2425
  453loPI   C4B 7248  10.108  10.607   8.947  0.1718 -0.0218 -0.0124
  454loPI    C1 7249  17.841  11.643  10.926 -0.1783  0.1616 -0.0667
  454loPI    C2 7250  17.967  11.744  11.292 -0.1491 -0.1145  0.0014
  454loPI    C3 7251  17.593  11.612  11.238 -0.1248 -0.1608 -0.0537
  454loPI   PO4 7252  18.023  11.859  10.784 -0.1608 -0.5232 -0.2779
  454loPI   GL1 7253  18.030  12.319  10.567  0.4184 -0.2069  0.0900
  454loPI   GL2 7254  18.108  12.019  10.319 -0.2823  0.0259 -0.1206
  454loPI   C1A 7255  17.972  12.453  10.095  0.0323 -0.0286 -0.1862
  454loPI   C2A 7256  18.005  12.428   9.596 -0.2920 -0.1069  0.2850
  454loPI   C3A 7257  18.078  12.501   9.276 -0.2268  0.2109  0.1324
  454loPI   C4A 7258  18.064  12.572   8.833  0.2290  0.0230 -0.2816
  454loPI   C5A 7259  18.097  12.641   8.451  0.2945 -0.0455  0.3300
  454loPI   C6A 7260  18.218  12.698   7.960 -0.1274 -0.0071  0.2350
  454loPI   C1B 7261  18.310  12.085   9.951 -0.0451  0.3789 -0.1943
  454loPI   C2B 7262  18.343  12.093   9.495  0.1146  0.1725  0.4954
  454loPI   C3B 7263  18.358  12.124   9.071  0.0528 -0.0129 -0.1053
  454loPI   C4B 7264  18.382  12.116   8.593  0.0184 -0.0301  0.2227
  455loPI    C1 7265   9.580  16.558  10.927  0.0348 -0.1893  0.0024
  455loPI    C2 7266   9.366  16.235  11.024  0.1352 -0.3168 -0.1929
  455loPI    C3 7267   9.552  16.444  11.309 -0.4951 -0.0227  0.0207
  455loPI   PO4 7268   9.742  16.429  10.613  0.1313  0.0320 -0.1905
  455loPI   GL1 7269   9.767  16.103  10.260  0.2108 -0.0418  0.0628
  455loPI   GL2 7270  10.089  16.274  10.265  0.0054  0.1599 -0.0537
  455loPI   C1A 7271   9.537  16.030   9.833 -0.1729  0.0309  0.2453
  455loPI   C2A 7272   9.561  15.947   9.374 -0.3289 -0.2762  0.2148
  455loPI   C3A 7273   9.496  16.083   9.068  0.0414 -0.0580 -0.1904
  455loPI   C4A 7274   9.460  16.119   8.500 -0.2405  0.2004 -0.1339
  455loPI   C5A 7275   9.203  15.784   8.207 -0.3192  0.2447  0.3861
  455loPI   C6A 7276   9.161  15.362   8.358 -0.0763 -0.2189 -0.0102
  455loPI   C1B 7277  10.348  16.428   9.888 -0.1421  0.0372 -0.1168
  455loPI   C2B 7278  10.368  16.441   9.449  0.0097 -0.1916 -0.2112
  455loPI   C3B 7279  10.330  16.535   8.996 -0.0089 -0.0106 -0.1704
  455loPI   C4B 7280  10.198  16.485   8.603  0.1296  0.0981  0.0622
  456loPI    C1 7281  17.632   6.564  10.199  0.2171 -0.2573  0.0472
  456loPI    C2 7282  17.636   6.942  10.330 -0.0087 -0.1945 -0.1221
  456loPI    C3 7283  17.758   6.646  10.570 -0.3027 -0.0688  0.1901
  456loPI   PO4 7284  17.707   6.548   9.959  0.1928 -0.0051  0.2442
  456loPI   GL1 7285  17.606   6.702   9.558 -0.0160 -0.0145 -0.2528
  456loPI   GL2 7286  17.870   6.663   9.422 -0.1666 -0.1355 -0.3032
  456loPI   C1A 7287  17.386   6.810   9.251  0.0072  0.2423  0.2008
  456loPI   C2A 7288  17.439   6.975   8.925  0.1683 -0.1275 -0.0329
  456loPI   C3A 7289  17.499   6.857   8.521 -0.2287  0.1049 -0.1869
  456loPI   C4A 7290  17.648   6.944   8.156 -0.0848  0.0474  0.0276
  456loPI   C5A 7291  18.061   7.104   7.902 -0.3435  0.2078  0.0105
  456loPI   C6A 7292  18.445   7.148   7.725  0.2549  0.1168  0.1302
  456loPI   C1B 7293  17.889   6.846   9.113  0.1401 -0.1005 -0.1770
  456loPI   C2B 7294  18.010   6.924   8.680  0.1160 -0.3099 -0.2313
  456loPI   C3B 7295  18.047   7.256   8.360 -0.0323  0.0126  0.3407
  456loPI   C4B 7296  18.211   7.569   8.022 -0.3114  0.2641 -0.0367
  457loPI    C1 7297  11.223   8.241  10.781 -0.0880  0.1418  0.1434
  457loPI    C2 7298  11.542   8.254  11.021  0.1173  0.2546 -0.1299
  457loPI    C3 7299  11.344   7.910  10.969  0.2043  0.1797  0.0266
  457loPI   PO4 7300  11.353   8.389  10.569 -0.2485  0.0641  0.1162
  457loPI   GL1 7301  11.575   8.736  10.365  0.1761  0.4248  0.2424
  457loPI   GL2 7302  11.583   8.464  10.109  0.2443  0.1180  0.2248
  457loPI   C1A 7303  11.771   8.905   9.933  0.0905 -0.2977 -0.0005
  457loPI   C2A 7304  11.681   8.918   9.532 -0.2339 -0.1158  0.3365
  457loPI   C3A 7305  11.660   8.869   9.181  0.2401  0.0811 -0.3509
  457loPI   C4A 7306  11.704   8.867   8.757  0.1840 -0.0262  0.0020
  457loPI   C5A 7307  11.764   8.776   8.345  0.1215  0.0350 -0.4473
  457loPI   C6A 7308  11.844   8.730   7.896 -0.3260 -0.1212  0.1099
  457loPI   C1B 7309  11.561   8.450   9.672 -0.0345  0.3352 -0.2585
  457loPI   C2B 7310  11.471   8.379   9.252  0.3154 -0.0014  0.2486
  457loPI   C3B 7311  11.575   8.410   8.826 -0.1112 -0.0379  0.3865
  457loPI   C4B 7312  11.541   8.338   8.386  0.1267 -0.4987  0.1426
  458loPI    C1 7313  17.345   9.773  10.639  0.0481  0.2521  0.0514
  458loPI    C2 7314  17.004   9.671  10.823  0.1224  0.0054  0.0558
  458loPI    C3 7315  17.329   9.758  11.039  0.0536  0.2814  0.0528
  458loPI   PO4 7316  17.239   9.835  10.445 -0.3064 -0.2571 -0.1616
  458loPI   GL1 7317  17.396   9.969  10.059  0.0351 -0.1012  0.0210
  458loPI   GL2 7318  17.109  10.114  10.085  0.0290  0.0617  0.0745
  458loPI   C1A 7319  17.508  10.158   9.717  0.3817  0.3887 -0.0937
  458loPI   C2A 7320  17.479  10.202   9.201 -0.1470  0.2088  0.2800
  458loPI   C3A 7321  17.432  10.228   8.833 -0.0397 -0.0662  0.1938
  458loPI   C4A 7322  17.430  10.419   8.410 -0.1529  0.2996  0.2493
  458loPI   C5A 7323  17.264  10.392   7.993  0.0966  0.0716 -0.1113
  458loPI   C6A 7324  17.129  10.751   7.727  0.2011  0.0787 -0.0828
  458loPI   C1B 7325  16.922  10.055   9.699  0.2691  0.1868  0.0500
  458loPI   C2B 7326  16.915  10.221   9.248  0.3373 -0.1487  0.1978
  458loPI   C3B 7327  16.929  10.280   8.759 -0.1051 -0.0103 -0.2065
  458loPI   C4B 7328  16.924  10.140   8.298  0.2780  0.0734 -0.3011
  459loPI    C1 7329  10.664  14.326  11.235 -0.0100 -0.0116  0.0733
  459loPI    C2 7330  10.339  14.451  11.431 -0.1063  0.0732 -0.1365
  459loPI    C3 7331  10.688  14.640  11.482 -0.1947  0.2735 -0.2614
  459loPI   PO4 7332  10.547  14.285  10.943 -0.1195  0.0004  0.0355
  459loPI   GL1 7333  10.524  14.223  10.642 -0.0464  0.1410 -0.0394
  459loPI   GL2 7334  10.840  14.243  10.385  0.2161  0.1708  0.0107
  459loPI   C1A 7335  10.440  13.846  10.415  0.4368 -0.0353 -0.2421
  459loPI   C2A 7336  10.418  13.692  10.024 -0.2621 -0.0915  0.0967
  459loPI   C3A 7337  10.488  13.740   9.513  0.3331  0.1285  0.2315
  459loPI   C4A 7338  10.528  13.851   9.081 -0.0845 -0.4363  0.1780
  459loPI   C5A 7339  10.462  13.854   8.628 -0.1760 -0.0565  0.2752
  459loPI   C6A 7340  10.609  13.771   8.217  0.1016 -0.2508 -0.0796
  459loPI   C1B 7341  10.663  14.195  10.010  0.2052  0.0140  0.0832
  459loPI   C2B 7342  10.737  14.311   9.611  0.1038  0.1706 -0.1387
  459loPI   C3B 7343  10.762  14.291   9.173  0.0347 -0.2484 -0.1034
  459loPI   C4B 7344  10.698  14.396   8.795 -0.2356 -0.1171 -0.0500
  460loPI    C1 7345   7.253   4.949  10.912 -0.1566 -0.0793 -0.0471
  460loPI    C2 7346   6.947   5.159  11.063 -0.0301  0.1477 -0.1025
  460loPI    C3 7347   7.195   4.962  11.308 -0.3032 -0.1591 -0.0648
  460loPI   PO4 7348   6.987   4.916  10.641 -0.2275  0.1226 -0.3237
  460loPI   GL1 7349   6.773   4.962  10.269 -0.0100  0.2259  0.4337
  460loPI   GL2 7350   6.920   4.593  10.240  0.2621 -0.1449  0.0531
  460loPI   C1A 7351   6.748   4.911   9.789 -0.1665 -0.0869  0.0740
  460loPI   C2A 7352   6.811   4.974   9.327 -0.0345  0.0805 -0.3947
  460loPI   C3A 7353   6.900   5.013   8.972 -0.0551 -0.0666 -0.2465
  460loPI   C4A 7354   7.031   4.949   8.481 -0.0917 -0.0014  0.3493
  460loPI   C5A 7355   7.580   5.022   8.248  0.2145 -0.3236 -0.0926
  460loPI   C6A 7356   8.030   5.053   8.144  0.3771 -0.1589  0.0484
  460loPI   C1B 7357   7.119   4.471   9.848  0.1056  0.2944 -0.4490
  460loPI   C2B 7358   7.043   4.418   9.455  0.2000 -0.1202  0.3738
  460loPI   C3B 7359   7.146   4.534   9.073  0.3081  0.1019  0.0439
  460loPI   C4B 7360   7.230   4.513   8.609  0.5882 -0.2845  0.0910
  461loPI    C1 7361   8.517  14.586  11.275  0.2043  0.2355  0.0770
  461loPI    C2 7362   8.244  14.337  11.429  0.2621  0.0272 -0.1513
  461loPI    C3 7363   8.295  14.701  11.587  0.1791 -0.1057  0.1887
  461loPI   PO4 7364   8.689  14.441  11.096  0.1984  0.1681  0.2006
  461loPI   GL1 7365   8.674  14.516  10.618  0.1113  0.0715  0.0088
  461loPI   GL2 7366   8.883  14.539  10.484 -0.4737  0.0491  0.0282
  461loPI   C1A 7367   8.418  14.559  10.215  0.2082  0.0381 -0.0840
  461loPI   C2A 7368   8.254  14.518   9.881 -0.0859  0.1497 -0.0205
  461loPI   C3A 7369   8.340  14.563   9.481  0.0292 -0.0201  0.1442
  461loPI   C4A 7370   8.385  14.519   9.051 -0.0700  0.4171 -0.0687
  461loPI   C5A 7371   8.367  14.458   8.599  0.1273 -0.2537 -0.0148
  461loPI   C6A 7372   8.222  14.363   8.129  0.1818  0.1793 -0.0116
  461loPI   C1B 7373   8.927  14.693  10.158  0.1797  0.1577 -0.2638
  461loPI   C2B 7374   8.908  14.666   9.740 -0.1272  0.0859 -0.2102
  461loPI   C3B 7375   8.846  14.593   9.362 -0.1442 -0.0682  0.0476
  461loPI   C4B 7376   8.939  14.632   8.954  0.0476 -0.3739  0.0761
  462loPI    C1 7377  15.952   3.570   9.937  0.0560  0.0552 -0.2132
  462loPI    C2 7378  15.749   3.538  10.280 -0.1035  0.0145 -0.3103
  462loPI    C3 7379  16.097   3.735  10.271 -0.1698  0.1410 -0.1557
  462loPI   PO4 7380  15.746   3.620   9.777  0.3248  0.2840  0.3968
  462loPI   GL1 7381  15.568   3.553   9.394  0.1448  0.3488 -0.0523
  462loPI   GL2 7382  15.630   3.325   9.365  0.0032 -0.0273 -0.1433
  462loPI   C1A 7383  15.656   3.704   9.013 -0.0728  0.0238  0.3014
  462loPI   C2A 7384  15.753   3.662   8.525 -0.1752 -0.0503 -0.0486
  462loPI   C3A 7385  15.801   3.645   8.125  0.0015 -0.2066 -0.2679
  462loPI   C4A 7386  15.823   3.623   7.620  0.0912 -0.1480  0.2869
  462loPI   C5A 7387  15.965   3.934   7.400 -0.2166  0.0680 -0.0415
  462loPI   C6A 7388  15.864   4.310   7.351  0.4246  0.1291 -0.2838
  462loPI   C1B 7389  15.651   3.205   8.806  0.0182  0.0738  0.0464
  462loPI   C2B 7390  15.561   3.170   8.366 -0.1637 -0.0078  0.2052
  462loPI   C3B 7391  15.655   3.169   7.977 -0.2014 -0.2807 -0.0214
  462loPI   C4B 7392  15.987   3.143   7.754 -0.2190 -0.1503  0.1675
  463loPI    C1 7393  16.283   2.899   9.919  0.1106 -0.1043 -0.1295
  463loPI    C2 7394  16.165   2.649  10.208  0.1615  0.0132 -0.0060
  463loPI    C3 7395  16.546   2.648  10.087  0.1432 -0.0270 -0.0641
  463loPI   PO4 7396  16.302   2.892   9.642  0.2199 -0.1663 -0.3835
  463loPI   GL1 7397  16.632   2.777   9.390  0.2938  0.4306 -0.1230
  463loPI   GL2 7398  16.455   2.973   9.097 -0.1776  0.0976  0.1571
  463loPI   C1A 7399  16.862   2.515   9.017  0.2483  0.3532 -0.1814
  463loPI   C2A 7400  16.856   2.364   8.571  0.0586  0.1757 -0.0023
  463loPI   C3A 7401  16.786   2.442   8.200  0.2946 -0.2479 -0.1751
  463loPI   C4A 7402  16.870   2.302   7.721 -0.0202  0.1254 -0.1871
  463loPI   C5A 7403  17.044   1.887   7.600  0.2315  0.0619  0.0851
  463loPI   C6A 7404  17.262   1.456   7.647 -0.0074 -0.1330 -0.3456
  463loPI   C1B 7405  16.466   2.691   8.807 -0.2068 -0.3955 -0.2957
  463loPI   C2B 7406  16.325   2.519   8.403 -0.0533  0.1461  0.0510
  463loPI   C3B 7407  16.202   2.345   8.071 -0.2463  0.4179  0.1917
  463loPI   C4B 7408  16.005   2.172   7.734  0.1949 -0.2902 -0.0288
  464loPI    C1 7409  13.709   0.375  11.355  0.1651  0.0857  0.1788
  464loPI    C2 7410  13.653   0.761  11.443  0.2891  0.0908  0.2369
  464loPI    C3 7411  13.892   0.536  11.672  0.3190  0.0115  0.1286
  464loPI   PO4 7412  13.472   0.327  11.133 -0.2991  0.2207 -0.1829
  464loPI   GL1 7413  13.358   0.420  10.687  0.0861 -0.0498  0.0037
  464loPI   GL2 7414  13.166   0.781  10.478  0.0494 -0.0117  0.1690
  464loPI   C1A 7415  13.235   0.184  10.226  0.1416  0.0555  0.3637
  464loPI   C2A 7416  13.134   0.069   9.873 -0.0454 -0.0899  0.2798
  464loPI   C3A 7417  13.159  -0.076   9.445  0.1090  0.0666 -0.0290
  464loPI   C4A 7418  12.948  -0.160   9.089 -0.2376 -0.1207  0.0480
  464loPI   C5A 7419  13.048  -0.114   8.597 -0.0800 -0.2505  0.3308
  464loPI   C6A 7420  13.406   0.072   8.286 -0.0710  0.2194 -0.3496
  464loPI   C1B 7421  13.144   1.000  10.105  0.2722  0.2193  0.0300
  464loPI   C2B 7422  12.991   1.012   9.793  0.0439 -0.2053  0.2275
  464loPI   C3B 7423  12.896   0.851   9.362 -0.2116 -0.1997 -0.5031
  464loPI   C4B 7424  12.988   0.689   8.971 -0.2432  0.0973  0.1415
  465loPI    C1 7425  12.338   6.317  10.909  0.1942  0.3747  0.0887
  465loPI    C2 7426  12.729   6.355  10.982  0.2223 -0.0913  0.2097
  465loPI    C3 7427  12.483   6.228  11.271  0.0105  0.0152  0.0784
  465loPI   PO4 7428  12.382   6.195  10.600 -0.0226  0.0909 -0.4722
  465loPI   GL1 7429  12.164   5.987  10.223 -0.2033 -0.0776  0.2699
  465loPI   GL2 7430  12.006   6.239  10.285  0.1113  0.2798 -0.1092
  465loPI   C1A 7431  12.193   5.789   9.885  0.0833  0.1281 -0.0387
  465loPI   C2A 7432  12.169   5.736   9.492 -0.1035  0.0482  0.0148
  465loPI   C3A 7433  12.173   5.750   9.024 -0.1177  0.2596  0.0928
  465loPI   C4A 7434  12.177   5.676   8.625 -0.3526 -0.0514  0.2074
  465loPI   C5A 7435  12.013   5.717   8.232  0.2614 -0.0583 -0.0014
  465loPI   C6A 7436  11.627   5.911   7.963  0.0227  0.2276  0.1661
  465loPI   C1B 7437  11.927   6.225   9.875 -0.0513 -0.1054 -0.0640
  465loPI   C2B 7438  11.958   6.197   9.461 -0.0512 -0.0077 -0.0001
  465loPI   C3B 7439  11.852   6.164   9.109 -0.1013  0.3544  0.0538
  465loPI   C4B 7440  11.897   6.098   8.655  0.2297  0.1259  0.0681
  466loPI    C1 7441   0.071  11.411  11.107  0.0302 -0.1135 -0.1665
  466loPI    C2 7442   0.396  11.419  11.339  0.0207  0.0328 -0.1568
  466loPI    C3 7443   0.127  11.125  11.380  0.0225  0.0536  0.0126
  466loPI   PO4 7444   0.188  11.525  10.869  0.1147 -0.1375  0.2367
  466loPI   GL1 7445   0.294  11.243  10.581  0.0916 -0.2568  0.1837
  466loPI   GL2 7446   0.549  11.435  10.438  0.2836  0.0209 -0.0162
  466loPI   C1A 7447   0.165  11.135  10.163  0.1606 -0.1184 -0.0216
  466loPI   C2A 7448   0.220  11.247   9.733 -0.1139  0.1628 -0.3157
  466loPI   C3A 7449   0.174  11.289   9.355  0.2172  0.1445  0.0044
  466loPI   C4A 7450   0.293  11.249   8.939  0.0051  0.0998  0.0476
  466loPI   C5A 7451   0.265  11.416   8.556 -0.0949 -0.1587  0.3838
  466loPI   C6A 7452   0.538  11.688   8.373 -0.0083 -0.2219  0.4990
  466loPI   C1B 7453   0.299  11.632  10.137 -0.0610  0.1623 -0.1650
  466loPI   C2B 7454   0.446  11.695   9.704 -0.0437 -0.0261  0.1134
  466loPI   C3B 7455   0.441  11.715   9.288 -0.1380 -0.0053 -0.1541
  466loPI   C4B 7456   0.535  11.683   8.858 -0.1213 -0.0355 -0.1324
  467loPI    C1 7457   3.509   6.203  10.347  0.1024 -0.0853  0.1253
  467loPI    C2 7458   3.294   5.867  10.370 -0.0013 -0.0280  0.0060
  467loPI    C3 7459   3.280   6.134  10.667 -0.0056 -0.0775  0.0505
  467loPI   PO4 7460   3.457   6.258  10.053 -0.0672 -0.0138 -0.1823
  467loPI   GL1 7461   3.495   6.457   9.784  0.1145 -0.1659 -0.3011
  467loPI   GL2 7462   3.516   6.831   9.775  0.1662 -0.1389  0.2829
  467loPI   C1A 7463   3.248   6.391   9.443  0.1587 -0.2179  0.1412
  467loPI   C2A 7464   3.556   6.559   9.121 -0.1660  0.1401  0.1766
  467loPI   C3A 7465   3.573   6.570   8.656 -0.2708 -0.0227  0.0447
  467loPI   C4A 7466   3.807   6.768   8.253  0.1116 -0.0620  0.2014
  467loPI   C5A 7467   4.304   6.966   8.201  0.0407 -0.1168 -0.1552
  467loPI   C6A 7468   4.621   7.250   8.249 -0.0581 -0.1195 -0.1683
  467loPI   C1B 7469   3.782   6.889   9.457  0.2623  0.0600 -0.1081
  467loPI   C2B 7470   3.899   6.992   9.101  0.1859 -0.1422 -0.1497
  467loPI   C3B 7471   3.949   6.994   8.709  0.2682 -0.5402 -0.1058
  467loPI   C4B 7472   3.905   7.253   8.344  0.1445  0.2283  0.0165
  468loPI    C1 7473   3.826  13.341  11.378 -0.1667 -0.2958 -0.2225
  468loPI    C2 7474   4.061  13.186  11.662  0.0439 -0.0585 -0.2641
  468loPI    C3 7475   3.696  13.036  11.602 -0.0385 -0.0548  0.1909
  468loPI   PO4 7476   3.911  13.313  11.199  0.0511  0.0104 -0.0400
  468loPI   GL1 7477   4.092  13.388  10.816 -0.1929  0.0040 -0.1690
  468loPI   GL2 7478   4.293  13.519  10.803 -0.3057 -0.1052  0.0488
  468loPI   C1A 7479   4.125  13.270  10.377  0.2773 -0.0409 -0.0350
  468loPI   C2A 7480   4.186  13.270   9.842 -0.2113 -0.0078  0.0794
  468loPI   C3A 7481   4.376  13.369   9.494 -0.0589  0.1542 -0.0844
  468loPI   C4A 7482   4.281  13.467   9.043 -0.0946  0.1198  0.2577
  468loPI   C5A 7483   3.902  13.271   8.758 -0.2212 -0.0809 -0.0721
  468loPI   C6A 7484   3.557  12.919   8.626 -0.2825 -0.2304 -0.2143
  468loPI   C1B 7485   4.326  13.726  10.463 -0.2526 -0.0356  0.0133
  468loPI   C2B 7486   4.381  13.756  10.035 -0.1905  0.0033  0.0414
  468loPI   C3B 7487   4.492  13.950   9.660 -0.0882  0.0227  0.1244
  468loPI   C4B 7488   4.559  13.857   9.251 -0.1193 -0.1362 -0.1827
  469loPI    C1 7489  10.264  13.156  11.265 -0.1696  0.1049  0.2172
  469loPI    C2 7490  10.512  13.435  11.122  0.1876 -0.2140  0.1986
  469loPI    C3 7491  10.392  13.450  11.503  0.0907  0.0402  0.1598
  469loPI   PO4 7492  10.029  13.225  11.099 -0.2594  0.2069 -0.2810
  469loPI   GL1 7493   9.791  13.324  10.734  0.1379  0.1653  0.4116
  469loPI   GL2 7494   9.498  13.549  10.673  0.0301 -0.1195 -0.2329
  469loPI   C1A 7495   9.720  13.185  10.292 -0.2084  0.1092 -0.0986
  469loPI   C2A 7496   9.644  13.327   9.981 -0.3171  0.0092 -0.0782
  469loPI   C3A 7497   9.753  13.295   9.539 -0.0508 -0.0281  0.0395
  469loPI   C4A 7498   9.677  13.292   9.092 -0.2948 -0.2184 -0.1116
  469loPI   C5A 7499   9.531  13.470   8.583  0.0820 -0.1295 -0.1196
  469loPI   C6A 7500   9.181  13.812   8.521  0.1371 -0.5027 -0.0202
  469loPI   C1B 7501   9.431  13.693  10.322  0.2064 -0.0887  0.0833
  469loPI   C2B 7502   9.374  13.818   9.847 -0.2455 -0.1735  0.0014
  469loPI   C3B 7503   9.444  13.701   9.384 -0.1490 -0.0508 -0.2243
  469loPI   C4B 7504   9.432  13.840   8.949  0.0479 -0.2229  0.0832
  470loPI    C1 7505  16.889   1.928  10.404  0.2091  0.1177 -0.0211
  470loPI    C2 7506  16.813   2.098  10.758 -0.0286 -0.1667  0.0691
  470loPI    C3 7507  17.172   1.937  10.686 -0.0103 -0.1922  0.2157
  470loPI   PO4 7508  16.651   2.046  10.135 -0.1009 -0.1387  0.1010
  470loPI   GL1 7509  16.701   2.012   9.744  0.0990 -0.0937  0.2904
  470loPI   GL2 7510  16.609   2.385   9.710  0.1018 -0.0334  0.0050
  470loPI   C1A 7511  16.556   1.790   9.439 -0.4456 -0.2115 -0.0938
  470loPI   C2A 7512  16.401   1.707   8.941 -0.0431 -0.0556  0.3223
  470loPI   C3A 7513  16.320   1.578   8.573  0.2279 -0.0572 -0.0204
  470loPI   C4A 7514  16.378   1.608   8.103 -0.2039 -0.0020 -0.2043
  470loPI   C5A 7515  16.677   1.572   7.724 -0.1338  0.2318 -0.0421
  470loPI   C6A 7516  16.692   1.717   7.246  0.0021 -0.1559  0.0257
  470loPI   C1B 7517  16.566   2.255   9.284 -0.3119  0.1246 -0.0603
  470loPI   C2B 7518  16.512   2.149   8.858  0.0726 -0.2129 -0.4421
  470loPI   C3B 7519  16.491   2.033   8.388 -0.0967 -0.2718  0.1960
  470loPI   C4B 7520  16.524   2.009   7.884  0.2126  0.1657 -0.1181
  471loPI    C1 7521   5.613   2.066  11.275  0.0984 -0.3082  0.0640
  471loPI    C2 7522   5.287   2.067  11.508  0.0616 -0.0270  0.0148
  471loPI    C3 7523   5.603   2.292  11.605  0.0371  0.1114 -0.2176
  471loPI   PO4 7524   5.492   2.063  11.033  0.1861  0.2883  0.1721
  471loPI   GL1 7525   5.604   2.214  10.652  0.1816  0.0393  0.2660
  471loPI   GL2 7526   5.589   2.573  10.633  0.1139  0.0381 -0.1061
  471loPI   C1A 7527   5.540   2.197  10.221 -0.1569 -0.3320 -0.2114
  471loPI   C2A 7528   5.555   2.141   9.802  0.1435 -0.4623  0.3231
  471loPI   C3A 7529   5.549   2.188   9.352 -0.2423 -0.2968  0.0104
  471loPI   C4A 7530   5.517   2.016   8.870 -0.3200  0.0656 -0.2251
  471loPI   C5A 7531   5.592   2.065   8.466 -0.0320 -0.3526  0.0029
  471loPI   C6A 7532   5.537   2.291   8.105 -0.3620  0.0212  0.1945
  471loPI   C1B 7533   5.688   2.621  10.240 -0.2218  0.1678  0.1754
  471loPI   C2B 7534   5.689   2.617   9.820  0.2579 -0.1102 -0.3612
  471loPI   C3B 7535   5.838   2.621   9.500  0.0570  0.0480 -0.0475
  471loPI   C4B 7536   5.763   2.572   9.044 -0.0605  0.1286 -0.0485
  472loPI    C1 7537  10.398  18.146  11.061 -0.2764  0.0022  0.2053
  472loPI    C2 7538  10.264  17.826  11.260 -0.2337 -0.0953  0.0787
  472loPI    C3 7539  10.494  18.095  11.446 -0.2632 -0.1419  0.1835
  472loPI   PO4 7540  10.463  18.017  10.858  0.0624 -0.1357 -0.1679
  472loPI   GL1 7541  10.446  17.813  10.495 -0.0802  0.0203 -0.1865
  472loPI   GL2 7542  10.339  17.484  10.302 -0.0069  0.1266 -0.0695
  472loPI   C1A 7543  10.485  17.915  10.014  0.0014  0.1122  0.1222
  472loPI   C2A 7544  10.401  17.956   9.507 -0.0675  0.0215  0.2478
  472loPI   C3A 7545  10.374  17.949   9.094 -0.3110  0.0753 -0.2340
  472loPI   C4A 7546  10.356  17.963   8.533  0.0435 -0.1427  0.1418
  472loPI   C5A 7547  10.687  18.212   8.281  0.0563 -0.0715 -0.4446
  472loPI   C6A 7548  11.091  18.305   8.277 -0.1868 -0.0074  0.2006
  472loPI   C1B 7549  10.324  17.412   9.876 -0.2428 -0.1966 -0.1348
  472loPI   C2B 7550  10.300  17.479   9.410  0.1029 -0.1100  0.2230
  472loPI   C3B 7551  10.220  17.382   9.075  0.0407  0.0409  0.0837
  472loPI   C4B 7552  10.151  17.515   8.622 -0.1912 -0.0029  0.0228
  473loPI    C1 7553   7.310   2.088  11.018  0.3269  0.1851 -0.0923
  473loPI    C2 7554   7.625   1.889  11.163 -0.0241 -0.1690  0.2072
  473loPI    C3 7555   7.415   2.133  11.401 -0.0603 -0.0426  0.0473
  473loPI   PO4 7556   7.363   2.217  10.889  0.0404  0.0098 -0.1381
  473loPI   GL1 7557   7.426   2.267  10.437 -0.2635  0.1784  0.0009
  473loPI   GL2 7558   7.663   2.472  10.376 -0.3887  0.0493  0.1629
  473loPI   C1A 7559   7.459   1.921  10.212 -0.0558  0.0599  0.2880
  473loPI   C2A 7560   7.385   1.838   9.831 -0.1842 -0.0752  0.2365
  473loPI   C3A 7561   7.319   1.786   9.427  0.3688 -0.0402 -0.0770
  473loPI   C4A 7562   7.400   1.775   8.925 -0.1480  0.2003  0.1610
  473loPI   C5A 7563   7.367   1.835   8.469 -0.2039 -0.1307  0.1100
  473loPI   C6A 7564   7.057   2.021   8.362  0.1267  0.1818 -0.3778
  473loPI   C1B 7565   7.583   2.323   9.903 -0.1087  0.1057  0.1186
  473loPI   C2B 7566   7.542   2.285   9.502 -0.0361  0.0951  0.3078
  473loPI   C3B 7567   7.603   2.291   9.104 -0.0667  0.0800 -0.1651
  473loPI   C4B 7568   7.664   2.223   8.715  0.0717 -0.3071  0.1957
  474loPI    C1 7569  15.078   0.059  10.917  0.0706  0.1260 -0.1703
  474loPI    C2 7570  15.428  -0.077  11.054 -0.0435  0.0132  0.0134
  474loPI    C3 7571  15.126  -0.332  10.990 -0.0690  0.0992 -0.2186
  474loPI   PO4 7572  15.089   0.191  10.713 -0.0021  0.2209 -0.0523
  474loPI   GL1 7573  15.124   0.130  10.235 -0.0944 -0.1306  0.1519
  474loPI   GL2 7574  15.103   0.356   9.994  0.0073  0.0923  0.4050
  474loPI   C1A 7575  15.431  -0.023   9.813  0.0720 -0.1442 -0.0794
  474loPI   C2A 7576  15.466  -0.223   9.349  0.1212  0.1175  0.2148
  474loPI   C3A 7577  15.508  -0.282   8.959 -0.0262 -0.2529  0.0623
  474loPI   C4A 7578  15.396  -0.511   8.599 -0.0576 -0.0649  0.1294
  474loPI   C5A 7579  15.610  -0.428   8.228 -0.0250 -0.1566 -0.2134
  474loPI   C6A 7580  16.008  -0.347   8.071  0.2412 -0.3714 -0.0433
  474loPI   C1B 7581  14.937   0.054   9.664  0.0343  0.2177  0.0204
  474loPI   C2B 7582  14.741   0.071   9.243 -0.0037  0.1612 -0.3332
  474loPI   C3B 7583  14.559  -0.001   8.914 -0.0329 -0.2414 -0.2383
  474loPI   C4B 7584  14.613  -0.130   8.478 -0.2521 -0.0119 -0.2182
  475loPI    C1 7585   1.164  17.186  10.843 -0.1136  0.0285  0.0133
  475loPI    C2 7586   1.319  17.346  11.175  0.0436 -0.1552  0.0297
  475loPI    C3 7587   0.925  17.286  11.148  0.0156 -0.0216  0.1322
  475loPI   PO4 7588   1.264  17.284  10.614  0.1407  0.0977 -0.0425
  475loPI   GL1 7589   1.403  17.280  10.339  0.1736 -0.0548  0.1072
  475loPI   GL2 7590   1.777  17.200  10.294  0.3558 -0.2899 -0.0790
  475loPI   C1A 7591   1.573  17.200   9.853  0.1295 -0.1954 -0.2765
  475loPI   C2A 7592   1.575  17.189   9.495 -0.3890  0.2876  0.0619
  475loPI   C3A 7593   1.628  17.242   9.050  0.1378  0.1286  0.0061
  475loPI   C4A 7594   1.714  17.061   8.561 -0.4597  0.2673  0.3336
  475loPI   C5A 7595   1.592  17.192   8.254  0.1028  0.1560  0.1698
  475loPI   C6A 7596   1.609  17.521   8.160 -0.0868  0.0320 -0.2019
  475loPI   C1B 7597   2.106  17.245  10.006  0.2461 -0.1664  0.0721
  475loPI   C2B 7598   2.084  17.309   9.574 -0.0967  0.1415  0.0795
  475loPI   C3B 7599   2.169  17.311   9.182 -0.2511  0.1726  0.3338
  475loPI   C4B 7600   2.249  17.144   8.757 -0.1462  0.2640  0.2407
  476loPI    C1 7601  17.003  10.205  10.676 -0.1223  0.2284  0.0566
  476loPI    C2 7602  17.313  10.314  10.903 -0.0663  0.3591 -0.0811
  476loPI    C3 7603  16.975  10.189  11.074  0.2151 -0.2312  0.0695
  476loPI   PO4 7604  16.898  10.338  10.526 -0.2058 -0.1284 -0.0168
  476loPI   GL1 7605  16.930  10.769  10.297 -0.2683  0.4936  0.0067
  476loPI   GL2 7606  16.736  10.986  10.255 -0.0812  0.1546  0.2921
  476loPI   C1A 7607  17.029  10.597   9.968 -0.2615  0.2038  0.1763
  476loPI   C2A 7608  17.217  10.517   9.541 -0.1649  0.0623 -0.3591
  476loPI   C3A 7609  17.136  10.612   9.056  0.0657  0.1401  0.0014
  476loPI   C4A 7610  17.118  10.755   8.674 -0.2248  0.2091 -0.0550
  476loPI   C5A 7611  16.947  10.777   8.212 -0.3938  0.0109  0.0402
  476loPI   C6A 7612  16.652  10.738   7.922 -0.1959 -0.2052 -0.2225
  476loPI   C1B 7613  16.723  10.935   9.801  0.1212  0.0746  0.1931
  476loPI   C2B 7614  16.852  10.922   9.447 -0.2831 -0.1187 -0.2635
  476loPI   C3B 7615  16.875  11.030   8.984  0.1430 -0.2264  0.0651
  476loPI   C4B 7616  16.819  11.225   8.579  0.1964 -0.1345 -0.1479
  477loPI    C1 7617   6.799   4.666  11.063  0.0245  0.2333  0.0838
  477loPI    C2 7618   6.790   4.375  11.337  0.0595  0.0361 -0.1221
  477loPI    C3 7619   7.139   4.492  11.181  0.0759  0.3871  0.1655
  477loPI   PO4 7620   6.642   4.577  10.830 -0.0350 -0.0383  0.1248
  477loPI   GL1 7621   6.464   4.588  10.491  0.2915  0.0283 -0.1030
  477loPI   GL2 7622   6.149   4.550  10.433 -0.0139 -0.0703  0.2417
  477loPI   C1A 7623   6.499   4.435  10.051 -0.1988  0.0792  0.4310
  477loPI   C2A 7624   6.536   4.492   9.606 -0.1574  0.3315  0.3546
  477loPI   C3A 7625   6.645   4.509   9.107  0.1657 -0.1539  0.0105
  477loPI   C4A 7626   6.708   4.551   8.610  0.2834 -0.0195 -0.1175
  477loPI   C5A 7627   6.490   4.332   8.195  0.2358  0.2662  0.1050
  477loPI   C6A 7628   6.459   4.261   7.750  0.0706  0.1211  0.1269
  477loPI   C1B 7629   5.967   4.384  10.044 -0.0251  0.3838 -0.2996
  477loPI   C2B 7630   6.030   4.406   9.620  0.0546 -0.0941 -0.1800
  477loPI   C3B 7631   6.141   4.498   9.200 -0.1239 -0.1051  0.2214
  477loPI   C4B 7632   6.250   4.452   8.796  0.1422  0.0303  0.3298
  478loPI    C1 7633  15.402   2.736  10.254 -0.0206  0.0367  0.0173
  478loPI    C2 7634  15.474   3.110  10.378 -0.0405  0.1377 -0.2684
  478loPI    C3 7635  15.762   2.833  10.397  0.0497  0.2303 -0.2827
  478loPI   PO4 7636  15.284   2.816  10.016 -0.0476 -0.1094 -0.1849
  478loPI   GL1 7637  15.332   2.963   9.572 -0.2945 -0.2169 -0.0125
  478loPI   GL2 7638  15.064   2.925   9.549 -0.1040  0.3514 -0.5113
  478loPI   C1A 7639  15.343   2.971   9.141 -0.1460  0.2351  0.1832
  478loPI   C2A 7640  15.248   2.889   8.687  0.2959 -0.0275 -0.0033
  478loPI   C3A 7641  15.309   2.756   8.283 -0.0846 -0.1243 -0.0760
  478loPI   C4A 7642  15.340   2.676   7.789 -0.0755  0.2840  0.1539
  478loPI   C5A 7643  15.433   2.290   7.562 -0.0322 -0.2833  0.2168
  478loPI   C6A 7644  15.455   1.887   7.639 -0.0927 -0.0354 -0.0156
  478loPI   C1B 7645  14.835   2.990   9.205 -0.0063 -0.0029  0.2502
  478loPI   C2B 7646  14.788   2.848   8.741  0.0689  0.1656 -0.4667
  478loPI   C3B 7647  14.790   2.753   8.413  0.1810  0.1763  0.3361
  478loPI   C4B 7648  14.876   2.711   8.047  0.1586 -0.1346  0.1526
  479loPI    C1 7649   8.867   8.839  11.036 -0.0513 -0.1957  0.0964
  479loPI    C2 7650   8.974   9.224  11.052 -0.2012 -0.1465 -0.0522
  479loPI    C3 7651   8.730   9.072  11.330  0.1805 -0.2390  0.2408
  479loPI   PO4 7652   8.741   8.809  10.764  0.1061  0.0619  0.0714
  479loPI   GL1 7653   8.797   8.673  10.320  0.2589 -0.1675  0.0010
  479loPI   GL2 7654   9.001   8.707  10.280  0.2589  0.2123  0.0411
  479loPI   C1A 7655   8.613   8.573   9.863 -0.2632 -0.2980  0.0958
  479loPI   C2A 7656   8.687   8.605   9.416 -0.2948  0.0686  0.0701
  479loPI   C3A 7657   8.613   8.603   8.982 -0.0009 -0.0556  0.0019
  479loPI   C4A 7658   8.759   8.692   8.594  0.0768 -0.1881 -0.0958
  479loPI   C5A 7659   8.896   8.839   8.269  0.1900  0.1861 -0.0314
  479loPI   C6A 7660   9.145   8.862   7.987  0.1737 -0.3462 -0.1178
  479loPI   C1B 7661   9.162   8.710   9.813  0.2318  0.0371 -0.0418
  479loPI   C2B 7662   9.175   8.689   9.373  0.0705  0.4477 -0.0510
  479loPI   C3B 7663   9.104   8.731   9.007  0.2800  0.0082 -0.1392
  479loPI   C4B 7664   9.254   8.723   8.574  0.2282  0.1511 -0.0360
  480loPI    C1 7665  11.716  17.841  11.118  0.0539  0.3500  0.1049
  480loPI    C2 7666  12.052  17.683  11.268  0.0282  0.2853  0.0943
  480loPI    C3 7667  11.800  17.881  11.507 -0.1776 -0.1036  0.2088
  480loPI   PO4 7668  11.750  17.847  10.820 -0.0464 -0.0418 -0.2141
  480loPI   GL1 7669  11.881  18.024  10.435  0.0068  0.1836  0.1608
  480loPI   GL2 7670  11.583  18.085  10.199 -0.3869  0.4441  0.1447
  480loPI   C1A 7671  12.094  18.172  10.018  0.2596  0.3034 -0.2706
  480loPI   C2A 7672  12.104  18.003   9.679 -0.0113  0.2298 -0.1347
  480loPI   C3A 7673  11.933  18.083   9.280 -0.2821 -0.0831  0.2053
  480loPI   C4A 7674  12.067  17.954   8.879 -0.2038  0.2329 -0.1372
  480loPI   C5A 7675  12.117  17.851   8.536 -0.1639  0.1458 -0.0734
  480loPI   C6A 7676  12.231  17.818   8.101 -0.2293  0.2156 -0.1749
  480loPI   C1B 7677  11.472  17.992   9.765 -0.2407  0.0634  0.0416
  480loPI   C2B 7678  11.451  17.859   9.345  0.2400  0.1993 -0.0346
  480loPI   C3B 7679  11.577  17.903   8.876 -0.0544  0.2094  0.0315
  480loPI   C4B 7680  11.471  17.963   8.483 -0.0301 -0.0216 -0.1379
  481loPI    C1 7681  10.850   9.598  10.928  0.1053 -0.2886  0.0108
  481loPI    C2 7682  10.692   9.589  11.295  0.0360  0.1361 -0.0038
  481loPI    C3 7683  10.982   9.851  11.208  0.0625  0.0281 -0.2485
  481loPI   PO4 7684  10.685   9.682  10.670  0.0749 -0.2372 -0.2018
  481loPI   GL1 7685  10.719  10.009  10.315  0.1401  0.0194 -0.1040
  481loPI   GL2 7686  10.844  10.183  10.292  0.2541  0.2890  0.0314
  481loPI   C1A 7687  10.610   9.757   9.941  0.1237 -0.0592  0.1841
  481loPI   C2A 7688  10.575   9.727   9.483 -0.0828 -0.0445  0.2189
  481loPI   C3A 7689  10.693   9.553   9.059  0.1230 -0.0476  0.1949
  481loPI   C4A 7690  10.682   9.684   8.628  0.2385 -0.1458 -0.2404
  481loPI   C5A 7691  10.453   9.819   8.242 -0.1874 -0.1339 -0.2511
  481loPI   C6A 7692  10.797  10.131   7.966  0.0556  0.0361 -0.3293
  481loPI   C1B 7693  10.822  10.258   9.833 -0.2308 -0.0575 -0.2329
  481loPI   C2B 7694  10.866  10.159   9.392 -0.0259  0.4724 -0.0190
  481loPI   C3B 7695  10.818  10.066   8.977  0.0926  0.3359 -0.1074
  481loPI   C4B 7696  10.845  10.185   8.461  0.2704  0.4371 -0.1010
  482loPI    C1 7697   2.366   3.323  10.261 -0.2299  0.1002 -0.1179
  482loPI    C2 7698   2.477   3.221  10.632  0.2258 -0.1023 -0.3024
  482loPI    C3 7699   2.374   3.599  10.551  0.2132 -0.0368  0.0079
  482loPI   PO4 7700   2.601   3.202  10.068  0.1091  0.2472  0.0625
  482loPI   GL1 7701   2.551   3.205   9.611  0.1762  0.2795  0.1753
  482loPI   GL2 7702   2.337   2.891   9.589 -0.2765  0.1628  0.0485
  482loPI   C1A 7703   2.510   3.071   9.151  0.3107 -0.3817  0.0870
  482loPI   C2A 7704   2.542   3.200   8.674 -0.2088 -0.2251 -0.0560
  482loPI   C3A 7705   2.699   3.188   8.183  0.0258  0.1823 -0.1702
  482loPI   C4A 7706   2.742   3.024   7.747  0.1385  0.4282 -0.2044
  482loPI   C5A 7707   2.792   2.881   7.307  0.1512  0.0784  0.2018
  482loPI   C6A 7708   2.917   2.578   7.041 -0.0893 -0.0081  0.0280
  482loPI   C1B 7709   2.156   2.713   9.254 -0.0313 -0.0638  0.0963
  482loPI   C2B 7710   2.288   2.710   8.848 -0.0370 -0.2096 -0.3420
  482loPI   C3B 7711   2.378   2.808   8.430 -0.2266 -0.2950 -0.0709
  482loPI   C4B 7712   2.577   2.705   8.106 -0.1738 -0.1691  0.0593
  483loPI    C1 7713  13.342  12.740  10.999 -0.0933  0.3061 -0.1838
  483loPI    C2 7714  12.999  12.715  11.203  0.1385 -0.0839  0.1734
  483loPI    C3 7715  13.255  13.014  11.277 -0.0188  0.0778  0.0692
  483loPI   PO4 7716  13.263  12.653  10.771  0.2033  0.2284  0.0927
  483loPI   GL1 7717  12.987  12.792  10.556 -0.2616 -0.4866  0.0706
  483loPI   GL2 7718  12.939  12.546  10.322  0.1168  0.1732  0.1730
  483loPI   C1A 7719  13.219  13.057  10.252 -0.0210  0.1824 -0.1069
  483loPI   C2A 7720  13.224  13.101   9.836 -0.0011  0.0644  0.2068
  483loPI   C3A 7721  13.182  13.073   9.458  0.2591 -0.1373 -0.0115
  483loPI   C4A 7722  13.142  13.002   9.010 -0.1000 -0.3142 -0.0833
  483loPI   C5A 7723  13.296  12.922   8.603 -0.0763 -0.0493  0.1955
  483loPI   C6A 7724  13.508  12.665   8.382  0.3273  0.0982 -0.1165
  483loPI   C1B 7725  12.933  12.671   9.885 -0.0176  0.1886  0.2544
  483loPI   C2B 7726  12.897  12.587   9.453 -0.0201 -0.1381  0.0154
  483loPI   C3B 7727  12.942  12.579   9.120 -0.1655 -0.2339 -0.0460
  483loPI   C4B 7728  12.977  12.581   8.699  0.1811 -0.0486  0.0494
  484loPI    C1 7729   7.304  10.194  11.328 -0.1285  0.3019  0.2612
  484loPI    C2 7730   7.568   9.907  11.413 -0.2129  0.0417 -0.3080
  484loPI    C3 7731   7.200   9.892  11.569 -0.0823  0.0846  0.0132
  484loPI   PO4 7732   7.392  10.264  11.013 -0.1005 -0.2728 -0.1025
  484loPI   GL1 7733   7.690  10.294  10.636  0.1259  0.1269 -0.1118
  484loPI   GL2 7734   7.329  10.217  10.506  0.1098  0.0196  0.0567
  484loPI   C1A 7735   7.797  10.348  10.258 -0.0924  0.1642 -0.1494
  484loPI   C2A 7736   7.830  10.393   9.875  0.2076 -0.1176  0.0144
  484loPI   C3A 7737   7.880  10.554   9.452  0.1865 -0.1631  0.1332
  484loPI   C4A 7738   8.035  10.455   9.073  0.1094  0.0229  0.3370
  484loPI   C5A 7739   8.059  10.404   8.697  0.2606 -0.5467 -0.1637
  484loPI   C6A 7740   8.360  10.508   8.379 -0.0132 -0.2522  0.1326
  484loPI   C1B 7741   7.312  10.399  10.119  0.0292 -0.1835  0.0271
  484loPI   C2B 7742   7.326  10.444   9.630 -0.1037 -0.2459  0.1183
  484loPI   C3B 7743   7.483  10.382   9.194 -0.0819 -0.0567  0.0142
  484loPI   C4B 7744   7.607  10.292   8.763  0.0226 -0.1620 -0.0503
  485loPI    C1 7745  10.522   7.380  11.126  0.0704 -0.1948  0.0603
  485loPI    C2 7746  10.598   7.668  11.393 -0.1578 -0.2303  0.1658
  485loPI    C3 7747  10.752   7.303  11.445  0.0064 -0.1695  0.1128
  485loPI   PO4 7748  10.538   7.461  10.893  0.0869  0.1304  0.0403
  485loPI   GL1 7749  10.502   7.672  10.573  0.2366  0.0651  0.0562
  485loPI   GL2 7750  10.751   7.817  10.324  0.0515  0.3022  0.5550
  485loPI   C1A 7751  10.437   7.404  10.157  0.1341 -0.0906  0.4683
  485loPI   C2A 7752  10.589   7.353   9.722  0.3133 -0.0048  0.0458
  485loPI   C3A 7753  10.513   7.331   9.338 -0.0228  0.2249 -0.2185
  485loPI   C4A 7754  10.476   7.375   8.889  0.3601 -0.1162  0.1253
  485loPI   C5A 7755  10.494   7.419   8.426 -0.5279 -0.0877 -0.2740
  485loPI   C6A 7756  10.836   7.440   8.161  0.0111  0.2077 -0.1475
  485loPI   C1B 7757  10.785   7.796   9.874 -0.0245 -0.1875 -0.2444
  485loPI   C2B 7758  10.717   7.835   9.433 -0.2651 -0.0993  0.0267
  485loPI   C3B 7759  10.722   7.898   9.003 -0.1983  0.1122  0.3573
  485loPI   C4B 7760  10.914   7.825   8.608  0.0005 -0.3602  0.3110
  486loPI    C1 7761   4.051  11.777  11.284 -0.3980 -0.0672  0.0844
  486loPI    C2 7762   4.234  11.505  11.512  0.1645  0.0762 -0.1786
  486loPI    C3 7763   4.217  11.886  11.631 -0.2318  0.0139 -0.0195
  486loPI   PO4 7764   4.177  11.648  11.014  0.2603  0.0637 -0.0877
  486loPI   GL1 7765   4.166  11.630  10.662  0.1866  0.1360 -0.2114
  486loPI   GL2 7766   3.932  11.809  10.612 -0.2697  0.0561  0.2349
  486loPI   C1A 7767   4.288  11.493  10.274  0.2481  0.3528  0.2057
  486loPI   C2A 7768   4.368  11.541   9.908 -0.2502  0.0285 -0.1152
  486loPI   C3A 7769   4.360  11.655   9.476  0.1041  0.0486  0.1239
  486loPI   C4A 7770   4.445  11.644   8.984 -0.0730  0.4219  0.0565
  486loPI   C5A 7771   4.488  11.776   8.589 -0.0852 -0.1246 -0.3887
  486loPI   C6A 7772   4.613  12.225   8.498  0.0927  0.0699  0.0814
  486loPI   C1B 7773   4.008  11.892  10.189  0.0672  0.2721  0.1229
  486loPI   C2B 7774   3.965  12.034   9.724 -0.4222  0.1993  0.0293
  486loPI   C3B 7775   4.015  12.065   9.296 -0.1628 -0.1818 -0.1752
  486loPI   C4B 7776   4.144  12.156   8.832 -0.0591 -0.1502 -0.1401
  487loPI    C1 7777  10.829  10.466  11.127 -0.0080  0.2337  0.2012
  487loPI    C2 7778  11.217  10.374  11.149 -0.0470 -0.0212 -0.0998
  487loPI    C3 7779  10.991  10.369  11.479  0.1949  0.0933  0.0708
  487loPI   PO4 7780  10.850  10.561  10.888  0.1404 -0.0257 -0.0855
  487loPI   GL1 7781  11.271  10.556  10.703  0.5347 -0.0929 -0.0425
  487loPI   GL2 7782  11.452  10.562  10.409  0.1682  0.0760 -0.1161
  487loPI   C1A 7783  11.015  10.743  10.315  0.0184  0.0403  0.2550
  487loPI   C2A 7784  11.016  10.756   9.803  0.2559  0.0247  0.0812
  487loPI   C3A 7785  11.060  10.664   9.402 -0.0294 -0.1306 -0.1173
  487loPI   C4A 7786  11.130  10.688   8.935 -0.0989  0.3058  0.3047
  487loPI   C5A 7787  11.068  10.677   8.500 -0.0475 -0.0617  0.1307
  487loPI   C6A 7788  10.891  10.566   8.140  0.1648  0.1442 -0.5417
  487loPI   C1B 7789  11.501  10.722  10.048  0.2333  0.0872  0.2954
  487loPI   C2B 7790  11.499  10.776   9.576  0.0158 -0.1592 -0.0648
  487loPI   C3B 7791  11.629  10.745   9.129  0.3689 -0.2571 -0.2574
  487loPI   C4B 7792  11.566  10.626   8.694 -0.0312 -0.0071  0.3390
  488loPI    C1 7793  17.917   1.378  10.508  0.2085  0.0696  0.3631
  488loPI    C2 7794  17.607   1.632  10.499  0.0940 -0.0761  0.0519
  488loPI    C3 7795  17.642   1.370  10.799 -0.1012 -0.0785  0.0738
  488loPI   PO4 7796  18.117   1.395  10.195  0.0646  0.0119 -0.0268
  488loPI   GL1 7797  18.001   1.298   9.686 -0.2712 -0.1583 -0.0206
  488loPI   GL2 7798  18.082   0.975   9.518 -0.0324 -0.1388  0.0900
  488loPI   C1A 7799  18.014   1.372   9.232  0.0343  0.0484  0.0598
  488loPI   C2A 7800  18.102   1.370   8.926 -0.2688  0.2551  0.4961
  488loPI   C3A 7801  18.138   1.270   8.541  0.0700  0.0400  0.0323
  488loPI   C4A 7802  18.291   1.276   8.038 -0.0640  0.3154  0.2347
  488loPI   C5A 7803  18.300   1.219   7.576  0.1539 -0.0833 -0.3483
  488loPI   C6A 7804  18.233   0.930   7.272  0.0793  0.1061 -0.2220
  488loPI   C1B 7805  18.111   0.873   9.101  0.0529 -0.2663 -0.1247
  488loPI   C2B 7806  18.171   0.796   8.766  0.1192  0.0069 -0.1086
  488loPI   C3B 7807  18.227   0.809   8.332  0.1262  0.2530  0.0543
  488loPI   C4B 7808  18.010   0.851   7.929  0.0920 -0.1404  0.1532
  489loPI    C1 7809   8.029   2.638  10.990  0.0364 -0.1225 -0.0631
  489loPI    C2 7810   7.700   2.468  11.141 -0.0682 -0.0315 -0.1863
  489loPI    C3 7811   7.890   2.753  11.347 -0.1368  0.0019 -0.1690
  489loPI   PO4 7812   7.995   2.653  10.719 -0.0869  0.1533  0.4932
  489loPI   GL1 7813   8.127   2.507  10.363  0.1742 -0.0759  0.0995
  489loPI   GL2 7814   8.217   2.769  10.235  0.1720  0.0756 -0.1765
  489loPI   C1A 7815   8.168   2.312   9.920 -0.1207  0.0569 -0.0093
  489loPI   C2A 7816   8.088   2.320   9.451  0.1202  0.2709  0.1972
  489loPI   C3A 7817   8.115   2.290   8.994 -0.0328 -0.0153  0.0620
  489loPI   C4A 7818   8.203   2.268   8.553  0.0387 -0.1369 -0.0500
  489loPI   C5A 7819   8.503   2.237   8.107 -0.1710  0.0146  0.2766
  489loPI   C6A 7820   8.392   2.399   7.664 -0.0867  0.1336  0.1426
  489loPI   C1B 7821   8.296   2.741   9.768  0.0658 -0.0977  0.1301
  489loPI   C2B 7822   8.226   2.892   9.298 -0.2794 -0.2967 -0.0510
  489loPI   C3B 7823   8.355   2.716   8.974  0.0522 -0.0084  0.0224
  489loPI   C4B 7824   8.461   2.760   8.601  0.1815  0.0078 -0.1759
  490loPI    C1 7825  18.165  17.144  10.895 -0.0372  0.0250 -0.1350
  490loPI    C2 7826  17.794  17.177  11.042  0.0679  0.0380  0.1331
  490loPI    C3 7827  18.001  16.838  11.093  0.1250  0.0618  0.0599
  490loPI   PO4 7828  18.154  17.205  10.714 -0.0721 -0.2131  0.0870
  490loPI   GL1 7829  18.130  16.949  10.289 -0.1094 -0.0310  0.1509
  490loPI   GL2 7830  18.453  17.078  10.260  0.1070  0.1833  0.1616
  490loPI   C1A 7831  18.084  17.159   9.933  0.1226  0.0256 -0.0383
  490loPI   C2A 7832  18.068  17.096   9.519 -0.3369 -0.5039  0.2315
  490loPI   C3A 7833  18.102  17.035   9.116  0.1648  0.0656 -0.1582
  490loPI   C4A 7834  18.143  16.977   8.703 -0.0769 -0.0791  0.0992
  490loPI   C5A 7835  18.230  17.059   8.225 -0.0882  0.0008 -0.0073
  490loPI   C6A 7836  18.504  16.736   8.063  0.0168 -0.0926 -0.0600
  490loPI   C1B 7837  18.598  17.141   9.934 -0.0511 -0.2389  0.2209
  490loPI   C2B 7838  18.595  17.204   9.444 -0.0217  0.0589  0.0261
  490loPI   C3B 7839  18.635  17.045   8.988  0.1838  0.0029 -0.1340
  490loPI   C4B 7840  18.660  17.040   8.465 -0.1750  0.2894 -0.2080
  491loPI    C1 7841   7.768   0.256  11.236 -0.0304 -0.1957 -0.2266
  491loPI    C2 7842   8.053   0.004  11.360 -0.1386 -0.2781 -0.1436
  491loPI    C3 7843   7.689  -0.008  11.526 -0.0947  0.0512 -0.0162
  491loPI   PO4 7844   7.823   0.248  10.898 -0.1322 -0.1279  0.1105
  491loPI   GL1 7845   7.685   0.406  10.534  0.2541 -0.1669  0.0084
  491loPI   GL2 7846   7.341   0.361  10.555 -0.3136  0.0698 -0.2081
  491loPI   C1A 7847   7.751   0.466  10.069  0.2060  0.1301  0.0681
  491loPI   C2A 7848   7.736   0.460   9.576  0.1449  0.0281  0.1315
  491loPI   C3A 7849   7.764   0.438   9.104 -0.0529  0.0692 -0.0338
  491loPI   C4A 7850   7.652   0.387   8.730 -0.1352  0.2552  0.1332
  491loPI   C5A 7851   7.712   0.435   8.324  0.0882  0.4594  0.1324
  491loPI   C6A 7852   7.697   0.320   7.902  0.2339 -0.4096  0.2289
  491loPI   C1B 7853   7.229   0.393  10.136  0.2078 -0.0667 -0.1405
  491loPI   C2B 7854   7.228   0.420   9.668 -0.0361  0.1254  0.2397
  491loPI   C3B 7855   7.247   0.436   9.239  0.1113 -0.4835  0.1953
  491loPI   C4B 7856   7.165   0.409   8.797  0.2242  0.1290 -0.4121
  492loPI    C1 7857  11.843   1.725  11.180  0.0227 -0.2346 -0.0604
  492loPI    C2 7858  11.487   1.895  11.244  0.0939 -0.0476 -0.1505
  492loPI    C3 7859  11.692   1.739  11.550  0.0040 -0.0181 -0.0745
  492loPI   PO4 7860  11.836   1.557  11.084 -0.1730  0.2353 -0.0922
  492loPI   GL1 7861  11.929   1.366  10.677  0.2081  0.2738 -0.2200
  492loPI   GL2 7862  12.061   1.032  10.807  0.5028  0.0858  0.0257
  492loPI   C1A 7863  11.873   1.457  10.305 -0.0716  0.0241 -0.0578
  492loPI   C2A 7864  11.591   1.305   9.910  0.0331  0.0250 -0.2774
  492loPI   C3A 7865  11.551   1.183   9.442  0.2336  0.0520 -0.2715
  492loPI   C4A 7866  11.654   1.206   9.007 -0.1401 -0.0895  0.0077
  492loPI   C5A 7867  11.678   1.104   8.641 -0.0153  0.2148  0.2197
  492loPI   C6A 7868  11.928   1.223   8.285 -0.3908  0.2751  0.0370
  492loPI   C1B 7869  11.954   0.851  10.351  0.0565 -0.1103 -0.0512
  492loPI   C2B 7870  12.026   0.846   9.915  0.2860 -0.0779 -0.1165
  492loPI   C3B 7871  11.945   0.803   9.456  0.0431 -0.1453 -0.1646
  492loPI   C4B 7872  11.898   0.764   9.021  0.0712 -0.1070  0.1631
  493loPI    C1 7873   4.805  18.115  10.872 -0.0872 -0.0448  0.1591
  493loPI    C2 7874   4.540  18.372  11.026 -0.0371  0.1074 -0.0054
  493loPI    C3 7875   4.716  18.101  11.262 -0.3174  0.0229  0.1103
  493loPI   PO4 7876   5.025  18.214  10.714  0.0307 -0.2576 -0.0405
  493loPI   GL1 7877   5.109  18.315  10.261 -0.0861 -0.2655 -0.1091
  493loPI   GL2 7878   4.790  18.000  10.269 -0.0309  0.0959  0.5046
  493loPI   C1A 7879   5.142  18.632   9.869 -0.0000  0.1171  0.1339
  493loPI   C2A 7880   5.201  18.447   9.428  0.2296 -0.1660 -0.3632
  493loPI   C3A 7881   5.159  18.293   8.929 -0.2861 -0.0169 -0.0396
  493loPI   C4A 7882   5.315  18.124   8.454 -0.1972  0.0662 -0.1085
  493loPI   C5A 7883   5.149  18.003   8.051 -0.2396  0.0780 -0.0586
  493loPI   C6A 7884   4.975  18.277   7.738  0.2157  0.0111 -0.1423
  493loPI   C1B 7885   4.850  18.009   9.921  0.1222 -0.1459  0.0057
  493loPI   C2B 7886   4.959  18.023   9.543  0.0551 -0.2909 -0.1526
  493loPI   C3B 7887   4.985  17.897   9.121  0.2922 -0.0789 -0.1157
  493loPI   C4B 7888   4.908  17.922   8.590 -0.2901  0.0096  0.1092
  494loPI    C1 7889   2.902   2.578  10.730 -0.0787  0.0846  0.0435
  494loPI    C2 7890   2.856   2.216  10.896  0.1246  0.0061 -0.0683
  494loPI    C3 7891   3.052   2.504  11.093 -0.0629  0.0658  0.0332
  494loPI   PO4 7892   2.982   2.417  10.420 -0.1051 -0.0789 -0.0348
  494loPI   GL1 7893   2.923   2.606  10.053 -0.2545 -0.0722 -0.4453
  494loPI   GL2 7894   2.784   2.812   9.864  0.1078  0.2130 -0.0300
  494loPI   C1A 7895   3.056   2.401   9.648  0.0213  0.1856 -0.0857
  494loPI   C2A 7896   3.029   2.262   9.316 -0.2918  0.0119  0.0591
  494loPI   C3A 7897   3.054   2.295   9.023 -0.2777 -0.1900 -0.0198
  494loPI   C4A 7898   3.173   2.409   8.646 -0.0645  0.0622 -0.1595
  494loPI   C5A 7899   3.238   2.331   8.234  0.3991 -0.1867 -0.0680
  494loPI   C6A 7900   2.992   2.138   7.961 -0.0794  0.1801  0.0294
  494loPI   C1B 7901   2.792   2.730   9.397 -0.2661 -0.2823  0.2126
  494loPI   C2B 7902   2.846   2.776   8.924 -0.1164  0.0738 -0.0565
  494loPI   C3B 7903   3.027   2.876   8.508 -0.0048 -0.2726  0.2610
  494loPI   C4B 7904   3.095   2.757   8.053 -0.2065  0.0704  0.0513
  495loPI    C1 7905  13.165  17.664  11.749  0.0762 -0.0589 -0.0145
  495loPI    C2 7906  13.555  17.749  11.763  0.0110  0.3002 -0.2335
  495loPI    C3 7907  13.295  17.970  11.971 -0.0508 -0.1485  0.1862
  495loPI   PO4 7908  13.119  17.701  11.504 -0.1128 -0.1564 -0.1817
  495loPI   GL1 7909  12.967  17.793  10.990  0.1764  0.4130  0.0270
  495loPI   GL2 7910  12.745  17.889  10.836 -0.0836  0.4727  0.0694
  495loPI   C1A 7911  13.179  18.056  10.630 -0.3021  0.0072 -0.0236
  495loPI   C2A 7912  13.346  17.876  10.210 -0.2099  0.1981  0.2322
  495loPI   C3A 7913  13.426  17.745   9.820 -0.0181 -0.1450  0.3567
  495loPI   C4A 7914  13.425  17.632   9.347 -0.1056 -0.1144  0.3505
  495loPI   C5A 7915  13.332  17.740   8.892  0.1205 -0.1986 -0.0906
  495loPI   C6A 7916  13.383  17.713   8.435  0.1550  0.0789  0.0372
  495loPI   C1B 7917  12.904  17.749  10.380 -0.0596  0.0326 -0.1120
  495loPI   C2B 7918  12.942  17.738   9.911 -0.2150  0.1018  0.0617
  495loPI   C3B 7919  12.881  17.650   9.419  0.0363 -0.0129 -0.0346
  495loPI   C4B 7920  12.772  17.516   9.020 -0.2439 -0.0866  0.1094
  496loPI    C1 7921   2.226   4.718  10.004 -0.0314 -0.0958  0.0070
  496loPI    C2 7922   2.174   4.877  10.367 -0.0408 -0.1833  0.0443
  496loPI    C3 7923   2.124   4.484  10.312  0.0730 -0.1879 -0.0275
  496loPI   PO4 7924   2.101   4.740   9.831 -0.1402 -0.0631  0.1449
  496loPI   GL1 7925   2.260   4.411   9.544 -0.1070  0.3091  0.1410
  496loPI   GL2 7926   2.167   4.691   9.328 -0.1492 -0.0344  0.0281
  496loPI   C1A 7927   2.429   4.234   9.280  0.0098 -0.0989 -0.1121
  496loPI   C2A 7928   2.610   4.288   8.854 -0.1402  0.2707 -0.0395
  496loPI   C3A 7929   2.806   4.303   8.435  0.0756 -0.0040  0.0944
  496loPI   C4A 7930   2.581   4.385   8.076 -0.1885 -0.0010  0.1426
  496loPI   C5A 7931   2.602   4.560   7.651 -0.0084 -0.2998 -0.0020
  496loPI   C6A 7932   2.857   4.937   7.374 -0.0814  0.4835 -0.1878
  496loPI   C1B 7933   2.282   4.716   8.910 -0.1891 -0.0898 -0.2512
  496loPI   C2B 7934   2.336   4.645   8.486 -0.0717  0.1666 -0.4163
  496loPI   C3B 7935   2.341   4.893   8.113 -0.0402  0.0920 -0.2068
  496loPI   C4B 7936   2.426   5.053   7.634 -0.2111 -0.1742  0.1018
  497loPI    C1 7937   2.786  16.252  11.105  0.1425 -0.0901  0.0260
  497loPI    C2 7938   2.688  16.341  11.482 -0.2164 -0.2426 -0.0266
  497loPI    C3 7939   2.858  15.989  11.397  0.2098 -0.0589  0.0377
  497loPI   PO4 7940   2.866  16.455  10.972  0.1407 -0.2569  0.0148
  497loPI   GL1 7941   2.786  16.503  10.554  0.3749  0.3877 -0.1718
  497loPI   GL2 7942   2.863  16.887  10.407 -0.0654 -0.2083  0.0729
  497loPI   C1A 7943   2.675  16.427  10.165 -0.0489 -0.5975 -0.4494
  497loPI   C2A 7944   2.621  16.317   9.813  0.1979  0.0367 -0.1207
  497loPI   C3A 7945   2.660  16.362   9.366 -0.3117  0.1485 -0.1440
  497loPI   C4A 7946   2.627  16.253   8.964  0.0002  0.0684 -0.0467
  497loPI   C5A 7947   2.651  16.201   8.507 -0.0489  0.2265 -0.0084
  497loPI   C6A 7948   2.713  16.063   8.149  0.2067  0.3604 -0.0926
  497loPI   C1B 7949   2.889  16.855  10.017 -0.0282 -0.0204  0.1084
  497loPI   C2B 7950   2.871  16.817   9.584  0.1921  0.0790  0.1260
  497loPI   C3B 7951   2.915  16.876   9.159 -0.5090  0.0017 -0.0869
  497loPI   C4B 7952   2.839  16.829   8.735  0.2808 -0.1033 -0.1964
  498loPI    C1 7953   2.098  12.313  10.913 -0.1619 -0.0123  0.1120
  498loPI    C2 7954   2.443  12.372  10.720 -0.1494 -0.2359  0.0630
  498loPI    C3 7955   2.445  12.233  11.095 -0.1794  0.0212  0.1602
  498loPI   PO4 7956   1.967  12.357  10.617  0.1526 -0.1667 -0.2336
  498loPI   GL1 7957   1.910  12.325  10.254  0.3527 -0.4357 -0.0351
  498loPI   GL2 7958   2.160  12.361  10.088  0.1036  0.2722 -0.2130
  498loPI   C1A 7959   1.674  12.278   9.887 -0.1470 -0.2558 -0.3122
  498loPI   C2A 7960   1.715  12.281   9.472 -0.0468 -0.0384 -0.4335
  498loPI   C3A 7961   1.753  12.266   9.178 -0.1300 -0.2511  0.0444
  498loPI   C4A 7962   1.807  12.283   8.798  0.1555 -0.3722 -0.0665
  498loPI   C5A 7963   1.480  12.241   8.400 -0.3207 -0.2881  0.1795
  498loPI   C6A 7964   1.194  12.049   8.160  0.0461  0.3285 -0.1974
  498loPI   C1B 7965   2.235  12.304   9.744  0.1660  0.3667 -0.0960
  498loPI   C2B 7966   2.244  12.333   9.375  0.2248 -0.2434 -0.2006
  498loPI   C3B 7967   2.322  12.331   8.945 -0.4284  0.1639 -0.1940
  498loPI   C4B 7968   2.336  12.471   8.452 -0.0578  0.1843  0.0662
  499loPI    C1 7969   0.800   2.860  10.020 -0.0674  0.0332  0.1825
  499loPI    C2 7970   0.973   3.061  10.321 -0.3347  0.0195  0.3485
  499loPI    C3 7971   0.640   2.849  10.387 -0.3226 -0.0908  0.0693
  499loPI   PO4 7972   0.981   2.787   9.812 -0.0826  0.0834 -0.0172
  499loPI   GL1 7973   0.995   2.442   9.629 -0.2444  0.2193  0.1552
  499loPI   GL2 7974   1.157   2.550   9.410 -0.1532  0.1114  0.0613
  499loPI   C1A 7975   0.949   2.150   9.270 -0.0995 -0.2719  0.1620
  499loPI   C2A 7976   1.074   2.112   8.826 -0.0933  0.1514 -0.1187
  499loPI   C3A 7977   1.083   2.078   8.436  0.3670  0.0912 -0.2420
  499loPI   C4A 7978   1.158   2.154   8.011 -0.1405  0.1784  0.1428
  499loPI   C5A 7979   1.138   2.198   7.511  0.1154 -0.0536 -0.2709
  499loPI   C6A 7980   1.268   2.467   7.224 -0.0427 -0.0003 -0.3371
  499loPI   C1B 7981   1.228   2.553   8.968  0.0653 -0.2549 -0.0260
  499loPI   C2B 7982   1.248   2.599   8.526  0.0040 -0.0452  0.1287
  499loPI   C3B 7983   1.420   2.622   8.133 -0.0713 -0.0219 -0.4763
  499loPI   C4B 7984   1.434   2.618   7.684 -0.1194 -0.0397 -0.2233
  500loPI    C1 7985  11.507   1.191  10.864  0.1874 -0.1537  0.1300
  500loPI    C2 7986  11.324   0.944  11.120  0.0247  0.1553  0.3180
  500loPI    C3 7987  11.694   1.074  11.197  0.0974 -0.0012  0.2357
  500loPI   PO4 7988  11.385   1.378  10.806  0.1923 -0.1412 -0.1890
  500loPI   GL1 7989  11.346   1.467  10.414  0.2840  0.0745 -0.0595
  500loPI   GL2 7990  11.176   1.199  10.162  0.0633  0.5392  0.3144
  500loPI   C1A 7991  11.341   1.743  10.037  0.0533  0.0022  0.0628
  500loPI   C2A 7992  11.247   1.642   9.592 -0.0572 -0.0251  0.0586
  500loPI   C3A 7993  11.312   1.568   9.197  0.0307 -0.0634  0.0540
  500loPI   C4A 7994  11.358   1.607   8.765  0.1770 -0.0341 -0.0459
  500loPI   C5A 7995  11.315   1.390   8.373  0.0406 -0.1070  0.0988
  500loPI   C6A 7996  11.582   1.441   8.044 -0.2683  0.0490  0.1465
  500loPI   C1B 7997  11.073   1.152   9.759  0.2691  0.0440 -0.0179
  500loPI   C2B 7998  11.129   1.091   9.287  0.0492  0.3337  0.0293
  500loPI   C3B 7999  11.188   1.058   8.821 -0.0585 -0.0983  0.1029
  500loPI   C4B 8000  11.076   0.945   8.436 -0.1620 -0.1753 -0.0534
  501loPI    C1 8001   7.038  12.514  11.059 -0.1910  0.1072 -0.1782
  501loPI    C2 8002   6.753  12.710  11.261 -0.0820  0.3054 -0.2136
  501loPI    C3 8003   7.123  12.687  11.410 -0.1455 -0.0672 -0.1024
  501loPI   PO4 8004   6.921  12.311  10.938  0.2240  0.0322 -0.1169
  501loPI   GL1 8005   6.595  12.280  10.653  0.1540 -0.0148 -0.0944
  501loPI   GL2 8006   6.287  12.314  10.546 -0.0659 -0.1438  0.2245
  501loPI   C1A 8007   6.726  12.248  10.274 -0.3009 -0.1939  0.1952
  501loPI   C2A 8008   6.691  12.174   9.871  0.0429  0.1520 -0.3409
  501loPI   C3A 8009   6.693  12.167   9.412 -0.1748 -0.1339 -0.4680
  501loPI   C4A 8010   6.683  12.083   8.960  0.1040  0.0597 -0.2088
  501loPI   C5A 8011   6.564  12.165   8.554 -0.2391 -0.1342 -0.0701
  501loPI   C6A 8012   6.521  12.288   8.071  0.1361 -0.1269 -0.0626
  501loPI   C1B 8013   6.235  12.101  10.076 -0.1046  0.0633  0.1263
  501loPI   C2B 8014   6.236  12.038   9.584 -0.3320  0.0772 -0.1141
  501loPI   C3B 8015   6.160  12.043   9.218 -0.0694  0.1374 -0.2729
  501loPI   C4B 8016   6.130  12.111   8.759 -0.3693 -0.0184 -0.2097
  502loPI    C1 8017   9.578   2.517  10.737  0.0371  0.1055 -0.0146
  502loPI    C2 8018   9.363   2.230  10.914  0.3167 -0.0196  0.1280
  502loPI    C3 8019   9.452   2.565  11.113  0.2909  0.0131  0.0846
  502loPI   PO4 8020   9.570   2.435  10.497 -0.0059 -0.4111  0.2852
  502loPI   GL1 8021   9.820   2.396  10.193 -0.0212  0.2159  0.1052
  502loPI   GL2 8022   9.946   2.132  10.213  0.1010  0.3977 -0.0773
  502loPI   C1A 8023   9.711   2.355   9.816  0.0795  0.0459 -0.0066
  502loPI   C2A 8024   9.719   2.292   9.449 -0.1956  0.0493  0.0068
  502loPI   C3A 8025   9.727   2.339   8.993  0.2519 -0.1839  0.0807
  502loPI   C4A 8026   9.832   2.392   8.504 -0.3503  0.0526 -0.0257
  502loPI   C5A 8027   9.746   2.536   8.155 -0.0425 -0.3564  0.6129
  502loPI   C6A 8028   9.548   2.911   8.001  0.0892  0.0131 -0.0425
  502loPI   C1B 8029  10.054   2.009   9.839 -0.1212 -0.1411 -0.3357
  502loPI   C2B 8030  10.040   1.898   9.464 -0.0851 -0.0787  0.2624
  502loPI   C3B 8031  10.040   1.934   9.076 -0.0354 -0.0580 -0.4242
  502loPI   C4B 8032  10.109   1.911   8.654  0.0147 -0.0600  0.1832
  503loPI    C1 8033   7.954   8.417  11.355 -0.3604  0.0119  0.1058
  503loPI    C2 8034   8.312   8.244  11.392 -0.2644  0.1305 -0.2327
  503loPI    C3 8035   8.161   8.456  11.695 -0.0473  0.0835 -0.0888
  503loPI   PO4 8036   7.948   8.382  11.001 -0.2124  0.2292 -0.0368
  503loPI   GL1 8037   7.766   8.455  10.690  0.2919 -0.0137 -0.0970
  503loPI   GL2 8038   7.997   8.188  10.528 -0.0995 -0.0655 -0.1288
  503loPI   C1A 8039   7.981   8.625  10.319 -0.1034 -0.1139  0.1869
  503loPI   C2A 8040   8.064   8.579   9.852  0.0524 -0.2638  0.0302
  503loPI   C3A 8041   8.180   8.590   9.363 -0.2147  0.2721 -0.1714
  503loPI   C4A 8042   8.137   8.654   8.836  0.0264 -0.0164 -0.0623
  503loPI   C5A 8043   8.040   8.980   8.419  0.2586 -0.0475 -0.3498
  503loPI   C6A 8044   7.775   9.318   8.225  0.1920 -0.1605  0.2884
  503loPI   C1B 8045   7.870   8.163  10.089 -0.2966  0.0125 -0.1266
  503loPI   C2B 8046   7.919   8.143   9.654 -0.0591 -0.0522  0.1361
  503loPI   C3B 8047   7.851   8.222   9.232 -0.2784  0.1672 -0.2234
  503loPI   C4B 8048   7.820   8.244   8.753  0.2341  0.0273  0.0136
  504loPI    C1 8049  10.997   5.807  11.184 -0.2508  0.4103 -0.3900
  504loPI    C2 8050  10.603   5.814  11.250 -0.2057 -0.1844  0.0269
  504loPI    C3 8051  10.858   5.860  11.555  0.0453 -0.1795 -0.1802
  504loPI   PO4 8052  11.023   5.639  10.996  0.0354  0.0023  0.1268
  504loPI   GL1 8053  10.994   5.556  10.515  0.0689 -0.4741 -0.2384
  504loPI   GL2 8054  10.861   5.172  10.443  0.2904  0.0654 -0.1175
  504loPI   C1A 8055  10.765   5.553  10.150 -0.1799  0.0198 -0.2285
  504loPI   C2A 8056  10.667   5.524   9.790  0.0654  0.0131 -0.0296
  504loPI   C3A 8057  10.670   5.607   9.379 -0.1518  0.2242  0.0972
  504loPI   C4A 8058  10.567   5.627   9.016 -0.3883 -0.0583  0.1912
  504loPI   C5A 8059  10.494   5.692   8.595  0.1109  0.0106  0.1833
  504loPI   C6A 8060  10.689   5.567   8.230 -0.2367 -0.2133 -0.0105
  504loPI   C1B 8061  10.754   4.773  10.253  0.0016  0.0729  0.2217
  504loPI   C2B 8062  10.831   4.707   9.916  0.4083  0.1104  0.2386
  504loPI   C3B 8063  10.761   4.690   9.468 -0.0755  0.0294 -0.0508
  504loPI   C4B 8064  10.757   4.794   8.942  0.3792 -0.0159  0.1083
  505loPI    C1 8065  14.622   8.674  10.701 -0.2926  0.1750 -0.1674
  505loPI    C2 8066  14.276   8.517  10.825 -0.1951  0.2262  0.1832
  505loPI    C3 8067  14.615   8.308  10.862 -0.1569  0.2610  0.0387
  505loPI   PO4 8068  14.452   8.826  10.475  0.2539  0.1207 -0.3005
  505loPI   GL1 8069  14.387   8.710   9.968  0.0177  0.2341 -0.0513
  505loPI   GL2 8070  14.104   8.600   9.858 -0.0205 -0.0785 -0.3233
  505loPI   C1A 8071  14.353   8.856   9.535 -0.0994  0.1146 -0.3777
  505loPI   C2A 8072  14.327   8.921   9.090 -0.1784  0.1595 -0.0066
  505loPI   C3A 8073  14.396   8.941   8.598  0.1499  0.1370 -0.2203
  505loPI   C4A 8074  14.564   8.955   8.184 -0.0041  0.3140  0.0549
  505loPI   C5A 8075  14.577   9.176   7.817 -0.1690  0.0482 -0.0948
  505loPI   C6A 8076  14.812   9.375   7.438 -0.0157  0.3450 -0.0953
  505loPI   C1B 8077  14.027   8.436   9.464  0.0263  0.3368  0.0971
  505loPI   C2B 8078  14.045   8.454   9.065  0.3295  0.1105 -0.1497
  505loPI   C3B 8079  14.077   8.348   8.633 -0.1748  0.0628 -0.3134
  505loPI   C4B 8080  14.184   8.283   8.254 -0.2556 -0.0110 -0.1134
  506loPI    C1 8081  16.746   1.557  10.177 -0.0257  0.0425  0.4332
  506loPI    C2 8082  16.375   1.625  10.043  0.1543  0.1788 -0.0137
  506loPI    C3 8083  16.437   1.355  10.332 -0.2713  0.0304 -0.0541
  506loPI   PO4 8084  16.871   1.354   9.986 -0.0493 -0.1398 -0.1157
  506loPI   GL1 8085  16.944   1.226   9.548 -0.3323  0.0843 -0.0391
  506loPI   GL2 8086  16.710   1.252   9.525 -0.0864 -0.0126  0.1453
  506loPI   C1A 8087  17.165   0.882   9.319  0.0483  0.0247 -0.4927
  506loPI   C2A 8088  17.306   0.685   9.013  0.3119 -0.2705  0.3549
  506loPI   C3A 8089  17.177   0.467   8.689 -0.3927  0.2246  0.0553
  506loPI   C4A 8090  17.248   0.262   8.323  0.2847  0.1647 -0.3320
  506loPI   C5A 8091  17.075   0.038   8.065 -0.0973  0.1146 -0.2731
  506loPI   C6A 8092  16.682  -0.160   8.112  0.0069 -0.1784  0.1841
  506loPI   C1B 8093  16.714   1.366   9.070 -0.1126  0.0134  0.1415
  506loPI   C2B 8094  16.765   1.314   8.691 -0.1572  0.1823  0.2470
  506loPI   C3B 8095  16.806   1.367   8.311 -0.5209  0.0094 -0.2245
  506loPI   C4B 8096  17.051   1.173   8.061  0.1717  0.0383 -0.0556
  507loPI    C1 8097   9.281   5.818  11.252 -0.0962 -0.0911  0.1602
  507loPI    C2 8098   9.370   5.963  11.613  0.0635 -0.0176  0.0923
  507loPI    C3 8099   8.993   5.862  11.526  0.0949 -0.4546  0.4272
  507loPI   PO4 8100   9.302   5.986  11.020 -0.0224 -0.0254  0.1621
  507loPI   GL1 8101   9.692   5.925  10.738  0.2400  0.0770  0.1194
  507loPI   GL2 8102   9.829   6.166  10.657 -0.0527 -0.2579 -0.2023
  507loPI   C1A 8103   9.637   5.611  10.340  0.0084 -0.0779  0.1252
  507loPI   C2A 8104   9.611   5.507   9.927 -0.0727 -0.1801 -0.0327
  507loPI   C3A 8105   9.701   5.469   9.576 -0.2496 -0.2643  0.0719
  507loPI   C4A 8106   9.478   5.509   9.162  0.2060 -0.2943  0.0924
  507loPI   C5A 8107   9.563   5.516   8.665 -0.0930  0.0120  0.2163
  507loPI   C6A 8108   9.885   5.643   8.370 -0.1843  0.2271  0.0229
  507loPI   C1B 8109   9.820   6.053  10.239  0.1539 -0.0476 -0.1462
  507loPI   C2B 8110   9.908   5.952   9.945  0.2330  0.1324 -0.0252
  507loPI   C3B 8111   9.899   5.925   9.654  0.1401 -0.1995  0.1623
  507loPI   C4B 8112   9.775   5.969   9.200  0.4212 -0.0223 -0.2882
  508loPI    C1 8113   4.730   5.789  10.702 -0.0883 -0.0889 -0.1283
  508loPI    C2 8114   4.400   5.942  10.869  0.0610 -0.1674  0.2480
  508loPI    C3 8115   4.724   6.172  10.817  0.0344 -0.1587  0.1159
  508loPI   PO4 8116   4.630   5.625  10.522 -0.1577  0.2032 -0.1305
  508loPI   GL1 8117   4.746   5.462  10.171  0.0990  0.1190 -0.0665
  508loPI   GL2 8118   4.988   5.605  10.127 -0.0861  0.0179 -0.0312
  508loPI   C1A 8119   4.663   5.281   9.784  0.0138 -0.0967 -0.1633
  508loPI   C2A 8120   4.788   5.199   9.475  0.0388  0.2576  0.1785
  508loPI   C3A 8121   4.916   5.293   9.079  0.1425  0.2590  0.1988
  508loPI   C4A 8122   4.967   5.277   8.642  0.0939 -0.2194  0.0706
  508loPI   C5A 8123   5.297   5.241   8.328 -0.1215  0.0097  0.1908
  508loPI   C6A 8124   5.639   5.329   8.359 -0.1658 -0.1198  0.3325
  508loPI   C1B 8125   4.994   5.679   9.618 -0.1761  0.0061 -0.2205
  508loPI   C2B 8126   5.178   5.713   9.267 -0.0856 -0.0128  0.1036
  508loPI   C3B 8127   5.176   5.800   8.767  0.1516  0.1359  0.0638
  508loPI   C4B 8128   5.280   5.717   8.294  0.2162  0.1721 -0.1118
  509loPI    C1 8129   6.615   3.414  11.239  0.1652  0.1462 -0.1271
  509loPI    C2 8130   6.516   3.041  11.344  0.1270  0.2235  0.1179
  509loPI    C3 8131   6.862   3.199  11.468  0.1597  0.2580 -0.0152
  509loPI   PO4 8132   6.536   3.379  10.957 -0.1677 -0.0281 -0.1188
  509loPI   GL1 8133   6.640   3.184  10.552 -0.0820  0.2430  0.1949
  509loPI   GL2 8134   6.368   3.114  10.454 -0.0090  0.0571  0.3733
  509loPI   C1A 8135   6.902   3.253  10.137 -0.0194  0.2402 -0.1587
  509loPI   C2A 8136   6.908   3.222   9.683 -0.1006 -0.0532  0.0148
  509loPI   C3A 8137   6.989   3.024   9.260  0.1019 -0.2332  0.0376
  509loPI   C4A 8138   6.951   3.237   8.853 -0.0532 -0.2342  0.0604
  509loPI   C5A 8139   6.958   3.098   8.414 -0.1981 -0.1578  0.0699
  509loPI   C6A 8140   6.963   2.935   7.916  0.2557 -0.1034 -0.0570
  509loPI   C1B 8141   6.453   3.082   9.984  0.0729  0.1028 -0.3855
  509loPI   C2B 8142   6.498   3.015   9.515  0.0058 -0.2036 -0.2800
  509loPI   C3B 8143   6.469   3.100   9.061  0.2216  0.1892 -0.0932
  509loPI   C4B 8144   6.497   3.210   8.651 -0.0858  0.1439 -0.0311
  510loPI    C1 8145   0.051   9.091  11.086  0.3711  0.2987 -0.0979
  510loPI    C2 8146   0.299   8.887  10.849  0.2123 -0.0488  0.0283
  510loPI    C3 8147   0.374   8.913  11.241  0.0702 -0.1245  0.0609
  510loPI   PO4 8148  -0.028   9.246  10.877 -0.0570  0.0266  0.0701
  510loPI   GL1 8149  -0.022   9.307  10.406  0.2015  0.0489  0.1984
  510loPI   GL2 8150   0.282   9.505  10.220 -0.0532 -0.3073 -0.2711
  510loPI   C1A 8151   0.005   9.158   9.970  0.2435 -0.3482 -0.2319
  510loPI   C2A 8152   0.284   9.376   9.660  0.0253  0.1373  0.0103
  510loPI   C3A 8153   0.418   9.484   9.295  0.1431  0.2654 -0.2562
  510loPI   C4A 8154   0.515   9.595   8.842  0.2417 -0.1399  0.2219
  510loPI   C5A 8155   0.587   9.537   8.345 -0.3859  0.0487  0.2488
  510loPI   C6A 8156   0.815   9.252   7.967  0.0301 -0.0332 -0.0853
  510loPI   C1B 8157   0.549   9.263  10.118  0.0720 -0.0790  0.2262
  510loPI   C2B 8158   0.850   9.261   9.776 -0.0235  0.2488  0.2279
  510loPI   C3B 8159   0.909   9.431   9.312  0.0991  0.0583 -0.1533
  510loPI   C4B 8160   0.993   9.495   8.974 -0.0073 -0.1819 -0.0263
  511loPI    C1 8161   0.914   8.057  10.970 -0.0306  0.0029 -0.0445
  511loPI    C2 8162   1.037   8.433  11.025 -0.0142 -0.0253  0.1170
  511loPI    C3 8163   0.896   8.222  11.334  0.0632 -0.1824  0.0457
  511loPI   PO4 8164   0.963   8.009  10.654  0.1036 -0.3137 -0.2707
  511loPI   GL1 8165   0.903   8.184  10.256 -0.0176  0.1524 -0.2699
  511loPI   GL2 8166   0.583   8.376  10.179  0.1071  0.2755  0.1424
  511loPI   C1A 8167   0.936   8.287   9.857  0.0870 -0.1630 -0.2070
  511loPI   C2A 8168   0.950   8.483   9.386  0.1131 -0.0498  0.2917
  511loPI   C3A 8169   1.030   8.634   9.001 -0.1378 -0.2541 -0.0823
  511loPI   C4A 8170   1.094   8.578   8.657  0.1170  0.0859 -0.0918
  511loPI   C5A 8171   1.081   8.773   8.268  0.5059  0.0272  0.1316
  511loPI   C6A 8172   0.821   8.695   7.888  0.4142  0.0090 -0.1026
  511loPI   C1B 8173   0.669   8.744   9.974  0.2119  0.1036 -0.1293
  511loPI   C2B 8174   0.626   8.876   9.562  0.0570  0.0621  0.2968
  511loPI   C3B 8175   0.689   8.988   9.068 -0.2763 -0.0779 -0.0102
  511loPI   C4B 8176   0.834   9.116   8.737 -0.0539  0.1710 -0.1371
  512loPI    C1 8177  16.521  10.193  10.832  0.2118  0.2485  0.1460
  512loPI    C2 8178  16.593   9.817  10.950 -0.1181  0.0891 -0.1425
  512loPI    C3 8179  16.373  10.060  11.179 -0.1666  0.0063 -0.1010
  512loPI   PO4 8180  16.410  10.154  10.554  0.0027  0.2305  0.0295
  512loPI   GL1 8181  16.420  10.173  10.073 -0.1661 -0.0013  0.1780
  512loPI   GL2 8182  16.528  10.459  10.159  0.0271 -0.1779 -0.1300
  512loPI   C1A 8183  16.375  10.041   9.590  0.3632 -0.0455  0.0460
  512loPI   C2A 8184  16.293  10.022   9.079  0.1048  0.2816  0.2458
  512loPI   C3A 8185  16.448  10.141   8.745  0.2477  0.0291 -0.0656
  512loPI   C4A 8186  16.311  10.078   8.276 -0.0367 -0.1130  0.2370
  512loPI   C5A 8187  16.588  10.136   7.940  0.4459  0.2819 -0.2793
  512loPI   C6A 8188  16.947   9.858   7.813 -0.2562 -0.0520  0.0202
  512loPI   C1B 8189  16.583  10.494   9.724  0.4160 -0.2968 -0.0230
  512loPI   C2B 8190  16.563  10.577   9.290  0.0186 -0.0178 -0.0100
  512loPI   C3B 8191  16.593  10.668   8.868  0.2364  0.0650  0.0840
  512loPI   C4B 8192  16.559  10.516   8.379 -0.0623 -0.2754  0.2676
  513loPI    C1 8193   1.792   5.702  10.302 -0.0783 -0.2681 -0.1139
  513loPI    C2 8194   2.090   5.476  10.445  0.2267  0.0674 -0.2053
  513loPI    C3 8195   1.957   5.789  10.656 -0.0720 -0.0851 -0.1612
  513loPI   PO4 8196   1.833   5.685  10.001  0.1781  0.0385  0.1392
  513loPI   GL1 8197   1.918   5.527   9.663 -0.0214 -0.2039  0.1392
  513loPI   GL2 8198   2.044   5.174   9.576 -0.0898  0.0434 -0.0855
  513loPI   C1A 8199   2.053   5.566   9.231 -0.0039  0.3476 -0.0395
  513loPI   C2A 8200   2.086   5.619   8.888  0.2176 -0.1872 -0.0652
  513loPI   C3A 8201   2.220   5.757   8.480  0.0949 -0.0260 -0.3383
  513loPI   C4A 8202   2.552   5.838   8.218 -0.0062 -0.2031 -0.5245
  513loPI   C5A 8203   2.926   6.123   8.196 -0.3258 -0.0508  0.3967
  513loPI   C6A 8204   2.772   6.444   7.991 -0.1693 -0.2350 -0.2556
  513loPI   C1B 8205   2.473   5.434   9.519 -0.1690 -0.0153 -0.0129
  513loPI   C2B 8206   2.550   5.580   9.202  0.1760 -0.2069 -0.3930
  513loPI   C3B 8207   2.632   5.703   8.825 -0.2178 -0.1054  0.0579
  513loPI   C4B 8208   2.893   5.574   8.542 -0.5174 -0.1202  0.3036
  514loPI    C1 8209   1.237   4.132  10.038 -0.0289 -0.0512 -0.0052
  514loPI    C2 8210   1.021   4.438  10.178 -0.3153 -0.1972 -0.1189
  514loPI    C3 8211   1.109   4.130  10.417 -0.1077 -0.0729 -0.0319
  514loPI   PO4 8212   1.240   4.194   9.802 -0.1095  0.2903 -0.0360
  514loPI   GL1 8213   1.212   4.451   9.526 -0.1641 -0.1806  0.1107
  514loPI   GL2 8214   1.146   4.785   9.433  0.1333  0.0773 -0.3015
  514loPI   C1A 8215   1.361   4.410   9.150  0.1035 -0.2773 -0.0310
  514loPI   C2A 8216   1.316   4.428   8.766 -0.1163  0.2529 -0.3860
  514loPI   C3A 8217   1.280   4.496   8.414 -0.2346  0.1670 -0.1223
  514loPI   C4A 8218   1.297   4.837   8.151 -0.2019 -0.0079  0.1002
  514loPI   C5A 8219   1.526   5.230   8.159  0.0536  0.0642  0.2895
  514loPI   C6A 8220   1.676   5.557   7.876 -0.2408 -0.1971 -0.2305
  514loPI   C1B 8221   1.117   4.854   9.044  0.0639  0.1068 -0.2550
  514loPI   C2B 8222   1.335   4.911   8.679  0.0512 -0.0365  0.0039
  514loPI   C3B 8223   1.603   5.299   8.667 -0.1064 -0.2045 -0.0789
  514loPI   C4B 8224   1.751   5.732   8.373 -0.2151 -0.0786  0.2910
  515loPI    C1 8225  17.809   3.167   9.968 -0.2036  0.0991  0.1712
  515loPI    C2 8226  18.005   2.931  10.225 -0.0306  0.1789  0.1138
  515loPI    C3 8227  17.625   3.034  10.298 -0.0550  0.0165  0.2218
  515loPI   PO4 8228  17.889   3.030   9.755 -0.0472  0.2102 -0.0481
  515loPI   GL1 8229  18.182   2.902   9.471 -0.1686  0.3793 -0.0163
  515loPI   GL2 8230  18.122   3.122   9.291 -0.3111  0.1581 -0.1605
  515loPI   C1A 8231  18.388   2.650   9.180  0.0510 -0.1513 -0.1141
  515loPI   C2A 8232  18.319   2.555   8.804  0.1497 -0.1219 -0.0465
  515loPI   C3A 8233  18.324   2.271   8.458  0.0370  0.0377  0.1925
  515loPI   C4A 8234  18.252   2.107   8.063 -0.2975 -0.1699 -0.0047
  515loPI   C5A 8235  18.585   1.978   7.694  0.1579 -0.1082 -0.1357
  515loPI   C6A 8236  18.350   1.727   7.444  0.3882 -0.0550  0.1389
  515loPI   C1B 8237  18.063   2.968   8.842  0.2713  0.1714 -0.0258
  515loPI   C2B 8238  18.220   2.873   8.396  0.0038 -0.0222 -0.1724
  515loPI   C3B 8239  18.176   2.653   8.031  0.3621  0.0535 -0.0713
  515loPI   C4B 8240  18.518   2.540   7.799 -0.1382 -0.1729  0.0447
  516loPI    C1 8241  13.699   0.779  10.967  0.0330  0.1673  0.1399
  516loPI    C2 8242  13.961   1.032  11.133  0.1321 -0.0239  0.2789
  516loPI    C3 8243  14.047   0.642  11.109 -0.1049 -0.0759  0.2485
  516loPI   PO4 8244  13.582   0.848  10.795 -0.0525 -0.1299 -0.0703
  516loPI   GL1 8245  13.656   0.912  10.402  0.1323 -0.0452  0.1164
  516loPI   GL2 8246  13.619   0.583  10.324 -0.2022  0.0077  0.0565
  516loPI   C1A 8247  13.612   1.152  10.077 -0.3349 -0.0460  0.1969
  516loPI   C2A 8248  13.503   1.050   9.622 -0.2521  0.1046  0.1719
  516loPI   C3A 8249  13.501   0.811   9.212  0.1187  0.0570 -0.2302
  516loPI   C4A 8250  13.503   0.834   8.755  0.2058 -0.0099 -0.0674
  516loPI   C5A 8251  13.396   0.649   8.442 -0.0300  0.1055 -0.1541
  516loPI   C6A 8252  13.003   0.498   8.391 -0.0377 -0.0043  0.0819
  516loPI   C1B 8253  13.443   0.626   9.999  0.0771 -0.0052 -0.0356
  516loPI   C2B 8254  13.270   0.531   9.637 -0.3153 -0.0015 -0.1180
  516loPI   C3B 8255  13.261   0.350   9.197 -0.1067  0.1376  0.0715
  516loPI   C4B 8256  13.193   0.291   8.831 -0.0223 -0.2073  0.0824
  517loPI    C1 8257   1.637   2.471  10.382 -0.0828  0.1315  0.0080
  517loPI    C2 8258   1.975   2.327  10.541 -0.0091  0.0978 -0.1772
  517loPI    C3 8259   1.738   2.565  10.758  0.1023  0.0725 -0.0260
  517loPI   PO4 8260   1.777   2.519  10.119 -0.1121  0.1980  0.2676
  517loPI   GL1 8261   1.872   2.554   9.737  0.0840  0.1844 -0.1536
  517loPI   GL2 8262   1.587   2.770   9.679  0.1257  0.2683  0.1876
  517loPI   C1A 8263   2.068   2.263   9.479 -0.1447  0.0219  0.1795
  517loPI   C2A 8264   2.065   2.225   9.026  0.0448  0.0146 -0.0529
  517loPI   C3A 8265   2.079   2.265   8.581 -0.1802  0.2036 -0.2200
  517loPI   C4A 8266   2.238   2.271   8.179 -0.0472  0.3270  0.0817
  517loPI   C5A 8267   2.329   2.200   7.751  0.3080 -0.2168 -0.1155
  517loPI   C6A 8268   2.527   2.392   7.333  0.1617 -0.0025  0.3806
  517loPI   C1B 8269   1.681   2.614   9.252  0.2674  0.1727 -0.1720
  517loPI   C2B 8270   1.724   2.624   8.882  0.3821  0.2030 -0.0154
  517loPI   C3B 8271   1.848   2.725   8.396  0.1868  0.1373 -0.4382
  517loPI   C4B 8272   1.889   2.584   7.933 -0.1564 -0.0922 -0.1718
  518loPI    C1 8273   4.651  16.947  11.336 -0.2571 -0.0364  0.1139
  518loPI    C2 8274   4.555  17.328  11.411 -0.4462 -0.0588 -0.0050
  518loPI    C3 8275   4.845  17.149  11.621 -0.3459  0.1542  0.0411
  518loPI   PO4 8276   4.624  16.866  11.059  0.0174 -0.2266  0.1578
  518loPI   GL1 8277   4.639  16.870  10.650  0.1943  0.0518  0.0796
  518loPI   GL2 8278   4.439  17.029  10.398  0.0404 -0.1017  0.0284
  518loPI   C1A 8279   4.768  16.658  10.256  0.2187 -0.0865 -0.3154
  518loPI   C2A 8280   4.697  16.558   9.875 -0.2436 -0.0756  0.1948
  518loPI   C3A 8281   4.673  16.523   9.373 -0.0658 -0.0827 -0.1528
  518loPI   C4A 8282   4.822  16.572   8.979  0.0406  0.0270  0.0064
  518loPI   C5A 8283   4.902  16.599   8.576  0.1581  0.0503 -0.1105
  518loPI   C6A 8284   5.319  16.664   8.474 -0.0776  0.1813  0.0932
  518loPI   C1B 8285   4.394  16.961   9.949  0.0311 -0.1229 -0.3620
  518loPI   C2B 8286   4.456  16.927   9.536 -0.0603 -0.1421 -0.0614
  518loPI   C3B 8287   4.466  16.926   9.098 -0.1582 -0.1083 -0.2042
  518loPI   C4B 8288   4.452  16.924   8.751 -0.0677 -0.0584  0.3926
  519loPI    C1 8289   7.108   4.048  11.084  0.1135 -0.1288 -0.2827
  519loPI    C2 8290   7.337   4.064  11.412 -0.1938  0.0347 -0.0721
  519loPI    C3 8291   7.072   3.767  11.367 -0.1959  0.0471 -0.1428
  519loPI   PO4 8292   7.289   4.010  10.837 -0.0140 -0.1955 -0.0718
  519loPI   GL1 8293   7.383   4.028  10.431 -0.0828  0.2421  0.1111
  519loPI   GL2 8294   7.218   3.699  10.394  0.1173  0.2226  0.1016
  519loPI   C1A 8295   7.385   4.059  10.011 -0.1607 -0.1054 -0.0893
  519loPI   C2A 8296   7.495   4.101   9.609  0.3067 -0.2236 -0.6619
  519loPI   C3A 8297   7.393   4.100   9.221 -0.0517 -0.1298 -0.0052
  519loPI   C4A 8298   7.452   4.087   8.750  0.2937 -0.0436 -0.1387
  519loPI   C5A 8299   7.440   4.083   8.350 -0.1767  0.0071  0.0235
  519loPI   C6A 8300   7.513   3.722   8.182 -0.0026  0.0992  0.0177
  519loPI   C1B 8301   7.125   3.634   9.943  0.1738 -0.1290  0.0527
  519loPI   C2B 8302   7.222   3.638   9.562  0.3292  0.1314 -0.1982
  519loPI   C3B 8303   7.112   3.682   9.071 -0.1786 -0.0158  0.0169
  519loPI   C4B 8304   7.254   3.462   8.576 -0.0239 -0.1229 -0.0187
  520loPI    C1 8305   9.561   3.367  10.857  0.2381  0.2332 -0.0298
  520loPI    C2 8306   9.802   3.310  11.172  0.1039  0.1281  0.0551
  520loPI    C3 8307   9.450   3.122  11.153  0.1277  0.1039 -0.1767
  520loPI   PO4 8308   9.800   3.421  10.666 -0.0061  0.1629 -0.4355
  520loPI   GL1 8309   9.660   3.454  10.221  0.0915 -0.1726  0.0228
  520loPI   GL2 8310   9.651   3.262  10.066  0.1312  0.1922 -0.4446
  520loPI   C1A 8311   9.727   3.752   9.917 -0.1559 -0.2484  0.2957
  520loPI   C2A 8312   9.687   3.763   9.412 -0.3187 -0.0860 -0.0608
  520loPI   C3A 8313   9.801   3.758   9.005 -0.2324 -0.3398  0.0043
  520loPI   C4A 8314   9.782   3.822   8.612  0.1142 -0.0544  0.0665
  520loPI   C5A 8315   9.639   3.935   8.207 -0.1469  0.0208 -0.2107
  520loPI   C6A 8316   9.378   4.037   7.787  0.1372 -0.0885  0.0417
  520loPI   C1B 8317   9.566   3.298   9.667 -0.2799 -0.1486 -0.1598
  520loPI   C2B 8318   9.601   3.248   9.222  0.0445  0.2782  0.1670
  520loPI   C3B 8319   9.724   3.276   8.813  0.0477 -0.1160 -0.2411
  520loPI   C4B 8320   9.685   3.347   8.383  0.1124 -0.1737 -0.2064
  521loPI    C1 8321   1.657  15.688  10.969 -0.2415  0.0841 -0.0767
  521loPI    C2 8322   1.320  15.667  11.182 -0.1404 -0.0629  0.0715
  521loPI    C3 8323   1.671  15.710  11.368 -0.0844  0.1875 -0.0869
  521loPI   PO4 8324   1.573  15.858  10.674 -0.1630  0.1225 -0.1347
  521loPI   GL1 8325   1.285  15.805  10.256 -0.1916 -0.2847  0.0723
  521loPI   GL2 8326   1.017  15.810  10.227 -0.0944 -0.3255  0.4686
  521loPI   C1A 8327   1.302  15.980   9.842  0.0639  0.0625 -0.1364
  521loPI   C2A 8328   1.441  15.978   9.512 -0.0280  0.1106 -0.3048
  521loPI   C3A 8329   1.353  15.840   9.115  0.0616  0.1940 -0.2626
  521loPI   C4A 8330   1.377  15.707   8.603  0.1607  0.1407  0.0641
  521loPI   C5A 8331   1.644  15.512   8.232  0.1535  0.1203 -0.0177
  521loPI   C6A 8332   1.873  15.582   7.944 -0.0923 -0.2416 -0.3240
  521loPI   C1B 8333   0.838  15.775   9.889  0.2575  0.1843 -0.1490
  521loPI   C2B 8334   0.948  15.905   9.478 -0.0426  0.3778  0.0520
  521loPI   C3B 8335   0.817  15.727   9.070  0.0873 -0.0234 -0.0316
  521loPI   C4B 8336   0.891  15.708   8.640  0.2008  0.0226 -0.3449
  522loPI    C1 8337  13.277  14.729  11.266 -0.0049 -0.0555  0.1689
  522loPI    C2 8338  13.565  14.867  11.507  0.1356  0.1237 -0.0961
  522loPI    C3 8339  13.219  14.737  11.662  0.2861  0.0801  0.2112
  522loPI   PO4 8340  13.179  14.868  10.884  0.1236  0.2124  0.2451
  522loPI   GL1 8341  13.036  14.828  10.502  0.2592 -0.0085  0.1165
  522loPI   GL2 8342  12.922  14.536  10.459 -0.1073  0.0952 -0.0839
  522loPI   C1A 8343  13.105  14.845  10.003 -0.2027 -0.0217  0.0667
  522loPI   C2A 8344  13.119  14.884   9.557 -0.0852  0.2353 -0.0333
  522loPI   C3A 8345  13.152  14.913   9.183  0.0979  0.2328 -0.4010
  522loPI   C4A 8346  13.163  14.949   8.759  0.1371  0.1524 -0.0351
  522loPI   C5A 8347  13.257  15.063   8.320 -0.2485 -0.1494  0.0007
  522loPI   C6A 8348  13.063  15.255   7.984 -0.2906 -0.0382 -0.1680
  522loPI   C1B 8349  12.833  14.381  10.091  0.1581  0.2197 -0.1865
  522loPI   C2B 8350  12.854  14.255   9.725 -0.0167 -0.0449 -0.1897
  522loPI   C3B 8351  12.916  14.417   9.301 -0.1999 -0.1142 -0.0869
  522loPI   C4B 8352  13.011  14.470   8.868  0.2161  0.0148 -0.3164
  523loPI    C1 8353   1.263  15.135  11.167 -0.1078 -0.4115 -0.1175
  523loPI    C2 8354   1.590  15.112  11.396 -0.2174  0.1874  0.1157
  523loPI    C3 8355   1.313  14.824  11.413  0.0883 -0.1056  0.2384
  523loPI   PO4 8356   1.362  15.207  10.907  0.4951 -0.1234 -0.3346
  523loPI   GL1 8357   1.584  15.354  10.599  0.1308 -0.0693  0.3868
  523loPI   GL2 8358   1.781  15.114  10.507  0.1109  0.1928 -0.2614
  523loPI   C1A 8359   1.721  15.415  10.083  0.0140 -0.1053  0.1213
  523loPI   C2A 8360   1.728  15.503   9.599  0.0541  0.0516  0.0034
  523loPI   C3A 8361   1.633  15.431   9.242  0.3998 -0.1687  0.0540
  523loPI   C4A 8362   1.686  15.222   8.792  0.0318  0.3542 -0.0668
  523loPI   C5A 8363   1.886  14.907   8.566  0.1544  0.3144 -0.1500
  523loPI   C6A 8364   1.761  14.445   8.478  0.1112 -0.2905 -0.0674
  523loPI   C1B 8365   1.977  14.921  10.240 -0.0424  0.4726  0.3438
  523loPI   C2B 8366   2.032  14.903   9.821  0.0104  0.1468  0.0916
  523loPI   C3B 8367   1.865  15.047   9.436 -0.4120  0.1474  0.0555
  523loPI   C4B 8368   2.068  14.971   9.076 -0.2265  0.1857  0.2387
  524loPI    C1 8369   4.164  14.898  11.386 -0.1134  0.1752  0.1752
  524loPI    C2 8370   4.062  15.191  11.637  0.1068  0.2649  0.1625
  524loPI    C3 8371   4.432  15.177  11.487  0.0263  0.1163 -0.0259
  524loPI   PO4 8372   3.958  14.800  11.180  0.1807 -0.1537 -0.1701
  524loPI   GL1 8373   3.925  14.608  10.743  0.5483 -0.0257  0.1478
  524loPI   GL2 8374   3.658  14.531  10.692 -0.1492 -0.0531  0.0622
  524loPI   C1A 8375   3.887  14.536  10.220 -0.2921 -0.1753  0.2052
  524loPI   C2A 8376   3.966  14.723   9.847 -0.0268  0.2928 -0.1586
  524loPI   C3A 8377   3.956  14.697   9.407 -0.0710  0.0401  0.2681
  524loPI   C4A 8378   3.937  14.710   8.936  0.2212 -0.0841  0.0899
  524loPI   C5A 8379   3.965  14.962   8.547  0.1389 -0.3915  0.0753
  524loPI   C6A 8380   4.192  15.254   8.346  0.2153  0.2451 -0.2834
  524loPI   C1B 8381   3.423  14.565  10.310 -0.0942 -0.1909 -0.0047
  524loPI   C2B 8382   3.344  14.624   9.884 -0.1490  0.1320 -0.0422
  524loPI   C3B 8383   3.347  14.703   9.517 -0.3032 -0.1992 -0.1851
  524loPI   C4B 8384   3.427  14.681   9.047  0.1640 -0.1696 -0.3680
  525loPI    C1 8385   0.767  12.193  11.309  0.1291 -0.0733 -0.0029
  525loPI    C2 8386   0.600  11.949  11.579 -0.2751  0.1739 -0.0225
  525loPI    C3 8387   0.826  12.256  11.699 -0.3377  0.1993  0.0309
  525loPI   PO4 8388   0.769  12.052  11.113  0.0733  0.0977 -0.2167
  525loPI   GL1 8389   0.677  11.872  10.692  0.2208  0.0331 -0.1188
  525loPI   GL2 8390   0.381  11.929  10.547 -0.1208  0.1399 -0.2067
  525loPI   C1A 8391   0.989  11.790  10.337 -0.1485 -0.0504 -0.0347
  525loPI   C2A 8392   1.037  11.762   9.919  0.0735  0.1606 -0.1466
  525loPI   C3A 8393   1.012  11.777   9.484  0.1076 -0.0232  0.1819
  525loPI   C4A 8394   1.051  11.767   8.975 -0.0929 -0.1140 -0.1474
  525loPI   C5A 8395   0.887  11.936   8.548  0.3329 -0.3133  0.0700
  525loPI   C6A 8396   0.676  12.229   8.320  0.0037  0.3977 -0.2773
  525loPI   C1B 8397   0.628  12.045  10.183 -0.1125 -0.0059  0.2811
  525loPI   C2B 8398   0.717  12.093   9.693  0.1501 -0.0010 -0.0417
  525loPI   C3B 8399   0.628  12.156   9.319 -0.0718  0.2874  0.3677
  525loPI   C4B 8400   0.786  12.254   8.888  0.0137  0.0047  0.2496
  526loPI    C1 8401   2.999   5.477  10.345  0.0366 -0.0241 -0.1449
  526loPI    C2 8402   2.997   5.081  10.397 -0.0299 -0.0358 -0.2333
  526loPI    C3 8403   3.336   5.288  10.445 -0.0808 -0.0481  0.2204
  526loPI   PO4 8404   2.852   5.672  10.136  0.1517  0.2830 -0.0739
  526loPI   GL1 8405   2.875   5.790   9.729 -0.2113 -0.1389  0.3022
  526loPI   GL2 8406   3.241   5.937   9.741 -0.1418  0.0612 -0.2432
  526loPI   C1A 8407   2.842   5.999   9.328  0.0207  0.2323  0.2315
  526loPI   C2A 8408   2.972   6.062   8.947  0.0496 -0.1858  0.0607
  526loPI   C3A 8409   3.258   5.971   8.618 -0.3301  0.2238 -0.1384
  526loPI   C4A 8410   3.325   5.804   8.184 -0.2654 -0.1352  0.1065
  526loPI   C5A 8411   2.999   5.569   8.021 -0.0633 -0.0164  0.2376
  526loPI   C6A 8412   2.827   5.417   7.592  0.3318 -0.0244  0.0442
  526loPI   C1B 8413   3.270   5.743   9.381 -0.2290 -0.1884  0.2439
  526loPI   C2B 8414   3.468   5.611   8.846 -0.1358 -0.2650  0.0566
  526loPI   C3B 8415   3.721   5.564   8.545 -0.1510 -0.1142  0.0658
  526loPI   C4B 8416   3.832   5.844   8.222  0.2377  0.1501  0.1259
  527loPI    C1 8417  11.757   2.287  10.972 -0.1863 -0.2077 -0.0728
  527loPI    C2 8418  12.150   2.218  11.000 -0.1056  0.1969 -0.1495
  527loPI    C3 8419  11.919   2.194  11.326  0.0265  0.2093 -0.0540
  527loPI   PO4 8420  11.716   2.340  10.635 -0.1673 -0.1883  0.0221
  527loPI   GL1 8421  11.539   2.108  10.240 -0.3815  0.2107  0.2621
  527loPI   GL2 8422  11.793   1.949  10.319 -0.0920  0.4047  0.0234
  527loPI   C1A 8423  11.562   2.278   9.812  0.0043  0.0594  0.1858
  527loPI   C2A 8424  11.532   2.130   9.422  0.1036 -0.1596 -0.1048
  527loPI   C3A 8425  11.534   2.028   8.951 -0.0287  0.0261 -0.0027
  527loPI   C4A 8426  11.568   1.982   8.446  0.1781  0.1331 -0.0811
  527loPI   C5A 8427  11.370   1.826   8.096  0.2243 -0.0547 -0.1192
  527loPI   C6A 8428  11.248   1.597   7.745  0.1092  0.0226 -0.1363
  527loPI   C1B 8429  11.829   1.780   9.953 -0.3791  0.2216 -0.0766
  527loPI   C2B 8430  11.730   1.693   9.587  0.2256  0.0825  0.0881
  527loPI   C3B 8431  11.775   1.667   9.170 -0.1709 -0.1836  0.2536
  527loPI   C4B 8432  11.877   1.541   8.669 -0.4722 -0.1123 -0.1464
  528loPI    C1 8433   2.772   1.673  10.869 -0.1825  0.0977 -0.0460
  528loPI    C2 8434   2.723   1.900  11.195  0.0371  0.1077 -0.0192
  528loPI    C3 8435   3.088   1.771  11.094 -0.0876 -0.2546 -0.0210
  528loPI   PO4 8436   2.703   1.828  10.635 -0.1545  0.1956  0.3641
  528loPI   GL1 8437   2.578   1.876  10.241 -0.3805 -0.1681  0.2254
  528loPI   GL2 8438   2.799   2.111  10.029 -0.2846 -0.1514  0.0063
  528loPI   C1A 8439   2.629   1.497   9.911 -0.3196 -0.3334 -0.0791
  528loPI   C2A 8440   2.617   1.370   9.465 -0.2721  0.0024 -0.0842
  528loPI   C3A 8441   2.703   1.317   9.085 -0.3694 -0.0898 -0.1945
  528loPI   C4A 8442   2.719   1.286   8.700  0.0048 -0.1145 -0.2808
  528loPI   C5A 8443   2.866   1.410   8.259 -0.3472 -0.1376 -0.0033
  528loPI   C6A 8444   3.138   1.149   8.095 -0.1303  0.1118 -0.0787
  528loPI   C1B 8445   2.857   1.859   9.663 -0.0584  0.0706 -0.3753
  528loPI   C2B 8446   2.841   1.763   9.271 -0.2692 -0.0703  0.0098
  528loPI   C3B 8447   2.966   1.756   8.825 -0.0336 -0.1732 -0.2948
  528loPI   C4B 8448   3.032   1.828   8.409 -0.0651 -0.1038  0.1169
  529loPI    C1 8449   6.930   2.453  11.051  0.0957 -0.3008 -0.0330
  529loPI    C2 8450   7.235   2.601  11.263  0.0559 -0.0420 -0.1528
  529loPI    C3 8451   6.859   2.687  11.368  0.0270 -0.2122 -0.1136
  529loPI   PO4 8452   7.027   2.550  10.800  0.1057 -0.2371  0.0676
  529loPI   GL1 8453   6.965   2.584  10.492 -0.3497 -0.1515 -0.2048
  529loPI   GL2 8454   6.727   2.739  10.447  0.0150 -0.3246  0.1994
  529loPI   C1A 8455   7.244   2.819  10.222  0.1105  0.3997  0.0669
  529loPI   C2A 8456   7.182   2.739   9.831 -0.0207  0.0116 -0.0221
  529loPI   C3A 8457   7.288   2.662   9.411  0.2945 -0.1671 -0.1123
  529loPI   C4A 8458   7.217   2.699   8.940 -0.2225 -0.0615  0.0759
  529loPI   C5A 8459   7.189   2.502   8.548 -0.2311  0.4229  0.1286
  529loPI   C6A 8460   7.475   2.248   8.173  0.0919  0.1035 -0.2221
  529loPI   C1B 8461   6.773   2.545   9.989  0.0326 -0.0093  0.2721
  529loPI   C2B 8462   6.778   2.598   9.498 -0.1075 -0.0053 -0.2018
  529loPI   C3B 8463   6.779   2.571   9.141 -0.0125  0.0368 -0.0323
  529loPI   C4B 8464   6.755   2.807   8.752 -0.1333 -0.0168 -0.2225
  530loPI    C1 8465  11.549   5.677  11.180  0.1351  0.2736  0.2617
  530loPI    C2 8466  11.311   5.372  11.281  0.5238 -0.1476 -0.0549
  530loPI    C3 8467  11.379   5.667  11.542 -0.3099 -0.0270  0.0531
  530loPI   PO4 8468  11.556   5.648  10.876 -0.1787 -0.0533  0.1551
  530loPI   GL1 8469  11.472   5.792  10.505 -0.2435 -0.1744  0.1424
  530loPI   GL2 8470  11.708   5.821  10.269  0.0016  0.1003  0.1321
  530loPI   C1A 8471  11.260   5.644  10.050 -0.3017 -0.1270  0.0619
  530loPI   C2A 8472  11.233   5.647   9.548 -0.0157 -0.2634 -0.4036
  530loPI   C3A 8473  11.149   5.651   9.213 -0.1985  0.2644  0.0282
  530loPI   C4A 8474  11.095   5.646   8.862 -0.2181  0.1547 -0.1784
  530loPI   C5A 8475  11.069   5.689   8.504 -0.0015 -0.0008 -0.0039
  530loPI   C6A 8476  11.214   5.648   8.164  0.1924  0.0367  0.0939
  530loPI   C1B 8477  11.705   5.750   9.817  0.1560  0.0610 -0.2548
  530loPI   C2B 8478  11.678   5.700   9.401 -0.2540 -0.2033 -0.0341
  530loPI   C3B 8479  11.697   5.684   8.932 -0.2569 -0.4218  0.2239
  530loPI   C4B 8480  11.548   5.779   8.527  0.1698 -0.1760  0.2926
  531loPI    C1 8481  17.819  14.027  11.356  0.0963 -0.1683  0.0301
  531loPI    C2 8482  17.934  13.654  11.444  0.2977 -0.0466  0.2978
  531loPI    C3 8483  17.831  13.906  11.737  0.1983  0.1210  0.1213
  531loPI   PO4 8484  18.024  14.079  11.162 -0.1101  0.0025 -0.0086
  531loPI   GL1 8485  17.993  14.079  10.812  0.1969  0.1964  0.2640
  531loPI   GL2 8486  18.116  14.087  10.501  0.2845  0.1326  0.0820
  531loPI   C1A 8487  17.700  13.847  10.492  0.2807  0.2559 -0.4877
  531loPI   C2A 8488  17.649  13.737  10.077 -0.0340 -0.1485 -0.1374
  531loPI   C3A 8489  17.669  13.744   9.761 -0.2037 -0.1203  0.2298
  531loPI   C4A 8490  17.704  13.791   9.317 -0.2915  0.0039 -0.4044
  531loPI   C5A 8491  17.612  13.798   8.857  0.0368  0.1550  0.0207
  531loPI   C6A 8492  17.721  13.787   8.455 -0.0422 -0.0159 -0.0360
  531loPI   C1B 8493  17.846  14.174  10.109 -0.1201 -0.0866  0.2537
  531loPI   C2B 8494  17.808  14.293   9.645  0.1371 -0.0742 -0.4980
  531loPI   C3B 8495  17.848  14.282   9.164  0.0305  0.1826  0.1178
  531loPI   C4B 8496  17.817  14.188   8.682 -0.0855 -0.1474 -0.0934
  532loPI    C1 8497   7.193   7.036  11.252 -0.1080 -0.1070  0.0494
  532loPI    C2 8498   6.906   6.803  11.404 -0.1929  0.0011  0.0562
  532loPI    C3 8499   6.991   7.153  11.577 -0.2620  0.1059 -0.1194
  532loPI   PO4 8500   7.092   7.120  11.014 -0.1914  0.0674 -0.2218
  532loPI   GL1 8501   7.218   7.058  10.601 -0.0851  0.0114 -0.0133
  532loPI   GL2 8502   7.074   6.753  10.363 -0.0464  0.1789  0.2246
  532loPI   C1A 8503   7.325   7.301  10.116  0.0673 -0.0374  0.0789
  532loPI   C2A 8504   7.316   7.275   9.683 -0.3043 -0.5896  0.0323
  532loPI   C3A 8505   7.433   7.241   9.232 -0.0205  0.1110 -0.2944
  532loPI   C4A 8506   7.415   7.274   8.792 -0.1191 -0.1570  0.1186
  532loPI   C5A 8507   7.338   7.230   8.273  0.2876 -0.0561 -0.1605
  532loPI   C6A 8508   6.999   7.291   8.066 -0.2405  0.2535 -0.1608
  532loPI   C1B 8509   7.113   6.684   9.920 -0.2062 -0.1677  0.0540
  532loPI   C2B 8510   7.105   6.710   9.464 -0.2245 -0.1970  0.1810
  532loPI   C3B 8511   7.175   6.765   9.021 -0.2743  0.0264 -0.2278
  532loPI   C4B 8512   7.202   6.831   8.632 -0.1659  0.0331  0.1637
  533loPI    C1 8513   1.619  16.965  11.053  0.2672  0.1294  0.1941
  533loPI    C2 8514   1.565  16.584  11.164  0.0532  0.1058  0.0168
  533loPI    C3 8515   1.401  16.881  11.377 -0.1129  0.0767 -0.0684
  533loPI   PO4 8516   1.592  16.915  10.687  0.2222 -0.0648  0.0060
  533loPI   GL1 8517   1.409  16.754  10.269 -0.2097  0.1819 -0.0074
  533loPI   GL2 8518   1.101  16.887  10.219 -0.2658  0.2120 -0.0210
  533loPI   C1A 8519   1.791  16.769  10.141 -0.0450  0.0200  0.2829
  533loPI   C2A 8520   1.893  16.805   9.791 -0.1041 -0.2685 -0.1611
  533loPI   C3A 8521   1.889  16.890   9.336 -0.0092 -0.1487  0.0362
  533loPI   C4A 8522   1.911  16.808   8.909 -0.0811 -0.2229 -0.1131
  533loPI   C5A 8523   1.806  16.562   8.552  0.3172  0.1365  0.0812
  533loPI   C6A 8524   2.132  16.277   8.229  0.2610  0.2451 -0.0089
  533loPI   C1B 8525   1.301  16.815   9.719 -0.1717  0.1785  0.0065
  533loPI   C2B 8526   1.324  16.788   9.278 -0.1929  0.3641 -0.0075
  533loPI   C3B 8527   1.350  16.774   8.800 -0.0568  0.2981 -0.2260
  533loPI   C4B 8528   1.388  16.706   8.375 -0.1086 -0.3850 -0.3305
  534loPI    C1 8529   5.357   5.374  10.987 -0.2672 -0.0563 -0.0638
  534loPI    C2 8530   5.661   5.387  11.247  0.0306  0.0048 -0.4076
  534loPI    C3 8531   5.443   5.053  11.210  0.0929 -0.0602 -0.2026
  534loPI   PO4 8532   5.502   5.440  10.785 -0.1454 -0.0224  0.1006
  534loPI   GL1 8533   5.743   5.406  10.470 -0.1989 -0.2767  0.3991
  534loPI   GL2 8534   5.520   5.691  10.315 -0.0125  0.0400  0.0134
  534loPI   C1A 8535   5.919   5.233  10.047  0.4553  0.0944  0.0607
  534loPI   C2A 8536   5.965   5.349   9.641  0.0616 -0.2810 -0.0082
  534loPI   C3A 8537   6.019   5.402   9.207  0.3323 -0.0517  0.0953
  534loPI   C4A 8538   5.977   5.412   8.709 -0.2092  0.1436 -0.1435
  534loPI   C5A 8539   6.164   5.695   8.280 -0.1902  0.1550  0.2370
  534loPI   C6A 8540   6.252   5.961   7.902 -0.0544 -0.0120  0.2937
  534loPI   C1B 8541   5.636   5.692   9.875 -0.3552 -0.2499  0.0033
  534loPI   C2B 8542   5.687   5.809   9.395  0.0398  0.3273 -0.0462
  534loPI   C3B 8543   5.646   5.785   8.961 -0.0387  0.0348 -0.1243
  534loPI   C4B 8544   5.740   5.843   8.494  0.1418 -0.0823 -0.4735
  535loPI    C1 8545   4.493   9.116  11.143 -0.1322 -0.1368 -0.1382
  535loPI    C2 8546   4.341   9.466  11.263  0.2174  0.0214 -0.1450
  535loPI    C3 8547   4.484   9.207  11.532  0.1983 -0.0033 -0.1585
  535loPI   PO4 8548   4.318   9.122  10.913  0.1748  0.0584 -0.0507
  535loPI   GL1 8549   4.340   9.317  10.538 -0.1040  0.1583 -0.1674
  535loPI   GL2 8550   4.319   8.980  10.439  0.2191 -0.3054  0.1053
  535loPI   C1A 8551   4.365   9.649  10.299 -0.0020  0.0622  0.0395
  535loPI   C2A 8552   4.499   9.617   9.813  0.3604  0.2912 -0.2736
  535loPI   C3A 8553   4.626   9.750   9.417  0.3113  0.0655 -0.0698
  535loPI   C4A 8554   4.572   9.730   8.907 -0.2336 -0.1992 -0.0033
  535loPI   C5A 8555   4.807   9.624   8.606  0.0587 -0.3763 -0.3439
  535loPI   C6A 8556   5.015   9.299   8.408  0.0508 -0.0385 -0.3992
  535loPI   C1B 8557   4.234   9.102  10.059 -0.0512 -0.0970  0.0162
  535loPI   C2B 8558   4.354   9.212   9.602 -0.0973 -0.2551 -0.2014
  535loPI   C3B 8559   4.349   9.321   9.197 -0.3833  0.0429 -0.2718
  535loPI   C4B 8560   4.376   9.312   8.762  0.0567  0.0489  0.0716
  536loPI    C1 8561   3.893  11.223  11.201 -0.1766 -0.2170 -0.1049
  536loPI    C2 8562   3.506  11.136  11.150 -0.2929  0.1945  0.0301
  536loPI    C3 8563   3.663  11.142  11.518 -0.1532  0.0188 -0.0251
  536loPI   PO4 8564   3.934  11.244  10.977  0.0598  0.0698 -0.3077
  536loPI   GL1 8565   3.764  11.355  10.623  0.1296 -0.1285  0.2772
  536loPI   GL2 8566   3.450  11.383  10.704  0.0498 -0.2474  0.0671
  536loPI   C1A 8567   3.781  11.365  10.100  0.0194 -0.0686  0.2153
  536loPI   C2A 8568   3.915  11.503   9.659 -0.1254  0.0953 -0.2535
  536loPI   C3A 8569   3.880  11.569   9.297 -0.2278  0.3723  0.0404
  536loPI   C4A 8570   3.843  11.712   8.856 -0.2421 -0.1413 -0.0434
  536loPI   C5A 8571   3.985  11.739   8.376 -0.1723 -0.1063  0.2325
  536loPI   C6A 8572   4.235  12.003   8.156  0.0800 -0.0626 -0.0160
  536loPI   C1B 8573   3.301  11.374  10.195  0.2029 -0.0659 -0.2050
  536loPI   C2B 8574   3.325  11.474   9.641 -0.1370 -0.0607 -0.2515
  536loPI   C3B 8575   3.334  11.584   9.196  0.1439 -0.0193 -0.2836
  536loPI   C4B 8576   3.349  11.597   8.778  0.2116 -0.1143 -0.0890
  537loPI    C1 8577   8.902   3.914  11.004 -0.0537  0.1893 -0.2473
  537loPI    C2 8578   8.773   4.269  11.137 -0.0211  0.1316 -0.0591
  537loPI    C3 8579   8.778   3.953  11.383  0.0179  0.0175 -0.2053
  537loPI   PO4 8580   8.887   3.881  10.617  0.2678 -0.2265  0.2704
  537loPI   GL1 8581   8.672   4.032  10.210 -0.0044  0.2107 -0.3967
  537loPI   GL2 8582   8.977   4.205  10.276  0.0654 -0.1083  0.1662
  537loPI   C1A 8583   8.445   4.109   9.878 -0.2046 -0.1844  0.0938
  537loPI   C2A 8584   8.357   4.198   9.499  0.0865  0.1416  0.1211
  537loPI   C3A 8585   8.415   4.222   9.072  0.1567  0.0867 -0.0994
  537loPI   C4A 8586   8.456   4.222   8.623 -0.1055  0.0465 -0.1367
  537loPI   C5A 8587   8.634   4.265   8.198  0.3013  0.1644  0.1084
  537loPI   C6A 8588   9.020   4.009   8.115  0.0643  0.2387  0.1324
  537loPI   C1B 8589   8.976   4.144   9.833 -0.2449  0.1194  0.0729
  537loPI   C2B 8590   8.860   4.191   9.416 -0.2692 -0.1454  0.2561
  537loPI   C3B 8591   8.907   4.148   9.007  0.0003 -0.1423  0.1318
  537loPI   C4B 8592   8.957   4.235   8.593  0.3363 -0.3149 -0.0891
  538loPI    C1 8593  14.911   8.027  10.148 -0.0076  0.4017  0.0317
  538loPI    C2 8594  14.800   7.985  10.530  0.0854  0.0501  0.0238
  538loPI    C3 8595  15.145   8.167  10.441  0.0226  0.2091  0.1011
  538loPI   PO4 8596  14.760   8.144  10.000 -0.1311  0.1045 -0.2538
  538loPI   GL1 8597  14.479   8.221   9.785  0.1301  0.1002  0.0114
  538loPI   GL2 8598  14.283   8.016   9.596 -0.1201  0.4093  0.0561
  538loPI   C1A 8599  14.559   8.402   9.408 -0.0020  0.1798  0.0647
  538loPI   C2A 8600  14.668   8.469   8.969 -0.0982 -0.2250 -0.1894
  538loPI   C3A 8601  14.632   8.434   8.581 -0.0728 -0.4477  0.1569
  538loPI   C4A 8602  14.751   8.500   8.156  0.0361  0.3671  0.1952
  538loPI   C5A 8603  14.707   8.657   7.776  0.1171 -0.0819  0.1026
  538loPI   C6A 8604  14.569   8.961   7.346 -0.2382 -0.1959  0.0482
  538loPI   C1B 8605  14.302   8.056   9.186  0.0055 -0.0777 -0.2879
  538loPI   C2B 8606  14.425   7.926   8.751  0.0496  0.1015 -0.2047
  538loPI   C3B 8607  14.577   7.965   8.324 -0.0101 -0.1477  0.2526
  538loPI   C4B 8608  14.562   8.094   7.948 -0.2695 -0.2291 -0.2012
  539loPI    C1 8609   2.536   5.283  10.324 -0.2494 -0.2945  0.0436
  539loPI    C2 8610   2.545   5.089  10.674 -0.0557  0.0021  0.2071
  539loPI    C3 8611   2.593   5.486  10.663 -0.1459  0.0073 -0.1505
  539loPI   PO4 8612   2.609   5.057  10.070 -0.1297 -0.1706  0.4041
  539loPI   GL1 8613   2.567   4.875   9.620  0.0341  0.1168  0.0843
  539loPI   GL2 8614   2.688   4.535   9.688  0.0237  0.0066  0.0854
  539loPI   C1A 8615   2.516   5.044   9.244 -0.0689  0.0261  0.4094
  539loPI   C2A 8616   2.533   5.228   8.832  0.0420 -0.0806  0.0435
  539loPI   C3A 8617   2.550   5.332   8.345 -0.0479  0.0886 -0.1916
  539loPI   C4A 8618   2.384   5.477   7.948 -0.2387  0.0796  0.3078
  539loPI   C5A 8619   2.120   5.778   7.733 -0.2192 -0.2286  0.1333
  539loPI   C6A 8620   1.817   6.074   7.857 -0.1108 -0.2460  0.1460
  539loPI   C1B 8621   2.829   4.633   9.198 -0.0510 -0.1645 -0.0914
  539loPI   C2B 8622   2.819   4.716   8.803  0.1183  0.2632  0.0364
  539loPI   C3B 8623   2.765   4.860   8.369  0.3310 -0.1382  0.0752
  539loPI   C4B 8624   2.768   5.130   7.957  0.0145  0.1723  0.0931
  540loPI    C1 8625   6.910  10.544  11.527 -0.3389 -0.0046 -0.1105
  540loPI    C2 8626   7.119  10.802  11.751 -0.0974 -0.1294 -0.1892
  540loPI    C3 8627   6.786  10.634  11.896  0.0581 -0.2115  0.0794
  540loPI   PO4 8628   6.956  10.563  11.210  0.1592  0.0256 -0.2033
  540loPI   GL1 8629   7.018  10.666  10.826 -0.3768  0.1458  0.3110
  540loPI   GL2 8630   6.887  10.369  10.744 -0.1578  0.0953 -0.0757
  540loPI   C1A 8631   7.060  10.722  10.432  0.1024 -0.0580  0.0075
  540loPI   C2A 8632   7.021  10.789  10.012  0.2058  0.2944 -0.1348
  540loPI   C3A 8633   7.086  10.906   9.607 -0.1691 -0.0473 -0.1086
  540loPI   C4A 8634   7.101  10.781   9.149  0.0342  0.2096  0.1968
  540loPI   C5A 8635   7.190  10.589   8.789  0.1026 -0.0492  0.1047
  540loPI   C6A 8636   6.933  10.537   8.466 -0.2603 -0.4231 -0.4102
  540loPI   C1B 8637   6.834  10.346  10.283 -0.1874 -0.1624 -0.0132
  540loPI   C2B 8638   6.848  10.350   9.885 -0.0216  0.1405 -0.1231
  540loPI   C3B 8639   6.811  10.396   9.434  0.0472 -0.0303  0.0965
  540loPI   C4B 8640   6.883  10.348   9.102 -0.1562  0.1226  0.0352
  541loPI    C1 8641   3.527  12.608  11.413  0.0342  0.0947 -0.0097
  541loPI    C2 8642   3.142  12.620  11.302  0.0259  0.0984  0.0194
  541loPI    C3 8643   3.253  12.399  11.617  0.1116 -0.2473 -0.2468
  541loPI   PO4 8644   3.594  12.448  11.167 -0.3540 -0.1653  0.0551
  541loPI   GL1 8645   3.844  12.606  10.859  0.1897  0.1665  0.0105
  541loPI   GL2 8646   3.954  12.877  10.827 -0.0689 -0.3629  0.0437
  541loPI   C1A 8647   3.781  12.352  10.412 -0.1149 -0.1128 -0.2287
  541loPI   C2A 8648   3.809  12.382  10.007  0.0241 -0.1432  0.2124
  541loPI   C3A 8649   3.790  12.462   9.581  0.1379 -0.0815  0.5972
  541loPI   C4A 8650   3.788  12.489   9.141  0.1857  0.0159 -0.0247
  541loPI   C5A 8651   3.965  12.618   8.760 -0.0627  0.1295  0.0671
  541loPI   C6A 8652   4.239  12.925   8.443 -0.0718 -0.2337  0.0837
  541loPI   C1B 8653   3.913  12.847  10.346  0.0866  0.1371  0.1307
  541loPI   C2B 8654   3.954  12.811   9.867 -0.1328 -0.0259 -0.1667
  541loPI   C3B 8655   4.084  12.947   9.435  0.0754  0.1121 -0.1193
  541loPI   C4B 8656   4.194  12.986   9.069 -0.0288  0.1264 -0.1257
  542loPI    C1 8657  10.824  12.946  11.259  0.0980  0.0389  0.0858
  542loPI    C2 8658  10.950  13.316  11.344  0.2825 -0.0044  0.0059
  542loPI    C3 8659  10.764  13.100  11.624  0.1445  0.1600  0.0429
  542loPI   PO4 8660  10.615  12.916  10.993  0.2163 -0.1725  0.1900
  542loPI   GL1 8661  10.638  12.957  10.570 -0.0098  0.1128  0.2319
  542loPI   GL2 8662  10.864  12.620  10.464 -0.0971  0.0031  0.1411
  542loPI   C1A 8663  10.519  12.846  10.213  0.0484  0.0078  0.2986
  542loPI   C2A 8664  10.533  12.843   9.710  0.1947 -0.0743  0.0442
  542loPI   C3A 8665  10.549  12.873   9.267  0.1461 -0.1741  0.0289
  542loPI   C4A 8666  10.489  12.900   8.842  0.2302  0.0686  0.3588
  542loPI   C5A 8667  10.781  12.778   8.516  0.0506 -0.3554  0.3411
  542loPI   C6A 8668  11.132  12.660   8.591  0.0475 -0.1272  0.1564
  542loPI   C1B 8669  10.862  12.416  10.077  0.1633  0.1305 -0.4961
  542loPI   C2B 8670  10.823  12.447   9.641 -0.0402  0.1578 -0.4154
  542loPI   C3B 8671  10.863  12.481   9.164 -0.1007  0.0096  0.0895
  542loPI   C4B 8672  10.862  12.366   8.873 -0.0126  0.2913  0.1013
  543loPI    C1 8673   7.485   7.498  11.147  0.1536 -0.0260  0.2288
  543loPI    C2 8674   7.438   7.767  11.439  0.1862 -0.0112  0.2203
  543loPI    C3 8675   7.446   7.377  11.526 -0.0484 -0.0189  0.2114
  543loPI   PO4 8676   7.354   7.592  10.974  0.2347 -0.0442  0.2518
  543loPI   GL1 8677   7.422   7.879  10.600  0.3126  0.1771 -0.0083
  543loPI   GL2 8678   7.246   7.562  10.513  0.0609 -0.0395 -0.2304
  543loPI   C1A 8679   7.293   8.059  10.281 -0.0650  0.0358  0.1868
  543loPI   C2A 8680   7.295   8.184   9.848 -0.0308  0.4552 -0.0340
  543loPI   C3A 8681   7.354   8.227   9.457 -0.1911  0.1047  0.3150
  543loPI   C4A 8682   7.349   8.221   9.027 -0.0049  0.2266 -0.0884
  543loPI   C5A 8683   7.315   8.292   8.574 -0.2094 -0.1714 -0.0506
  543loPI   C6A 8684   7.169   7.896   8.199 -0.2498 -0.1709  0.2901
  543loPI   C1B 8685   6.997   7.681  10.118  0.1459  0.1531  0.2973
  543loPI   C2B 8686   7.143   7.767   9.669  0.3164 -0.1193  0.2156
  543loPI   C3B 8687   7.147   7.716   9.208  0.3512  0.0575  0.0734
  543loPI   C4B 8688   7.139   7.819   8.788 -0.1689  0.0462  0.0220
  544loPI    C1 8689   3.414  13.447  11.791 -0.0148  0.0203  0.0077
  544loPI    C2 8690   3.509  13.139  12.028 -0.2466  0.0440  0.1354
  544loPI    C3 8691   3.301  13.447  12.175  0.0749  0.3153  0.0366
  544loPI   PO4 8692   3.245  13.421  11.485 -0.1450  0.0482 -0.1042
  544loPI   GL1 8693   3.306  13.474  10.994 -0.2144  0.1534  0.2423
  544loPI   GL2 8694   3.560  13.475  10.879 -0.0367 -0.1419  0.1421
  544loPI   C1A 8695   3.151  13.225  10.716  0.0890  0.2221  0.4785
  544loPI   C2A 8696   3.097  13.270  10.244  0.0439  0.0637 -0.1244
  544loPI   C3A 8697   3.141  13.232   9.722  0.4023 -0.1237  0.0648
  544loPI   C4A 8698   3.191  13.340   9.354 -0.0248 -0.0441  0.0991
  544loPI   C5A 8699   3.400  13.337   8.988 -0.0734 -0.0456 -0.2206
  544loPI   C6A 8700   3.585  13.656   8.695  0.0813  0.0294  0.1035
  544loPI   C1B 8701   3.638  13.256  10.528 -0.0554  0.0072 -0.0033
  544loPI   C2B 8702   3.672  13.211  10.100  0.2015 -0.1082 -0.2090
  544loPI   C3B 8703   3.721  13.234   9.769  0.4313 -0.0241  0.2951
  544loPI   C4B 8704   3.748  13.364   9.309  0.3539  0.1349 -0.0397
  545loPI    C1 8705  10.363  13.920  11.261 -0.1621  0.2285  0.0297
  545loPI    C2 8706  10.382  13.971  11.657 -0.0842 -0.0258  0.0608
  545loPI    C3 8707  10.700  13.834  11.458 -0.2401 -0.2557 -0.0348
  545loPI   PO4 8708  10.129  13.821  11.102 -0.3058 -0.1864 -0.1524
  545loPI   GL1 8709  10.122  13.703  10.751  0.2521  0.4353  0.2069
  545loPI   GL2 8710  10.267  13.464  10.685  0.1725 -0.0390 -0.1808
  545loPI   C1A 8711   9.967  13.688  10.313  0.0796  0.0164  0.1498
  545loPI   C2A 8712   9.922  13.712   9.898  0.0289  0.1648 -0.1351
  545loPI   C3A 8713   9.962  13.749   9.485  0.1859  0.2329  0.0021
  545loPI   C4A 8714   9.882  13.715   9.039 -0.2529  0.2048  0.3335
  545loPI   C5A 8715   9.948  13.873   8.604 -0.1769 -0.1521 -0.1149
  545loPI   C6A 8716   9.917  13.771   8.147 -0.0189  0.2323  0.3021
  545loPI   C1B 8717  10.298  13.287  10.289  0.4525  0.0921 -0.1154
  545loPI   C2B 8718  10.279  13.314   9.746 -0.1785  0.1257  0.0668
  545loPI   C3B 8719  10.214  13.338   9.362 -0.0872 -0.2763 -0.0858
  545loPI   C4B 8720  10.309  13.400   8.957 -0.0086 -0.1263  0.0121
  546loPI    C1 8721   3.486  15.511  11.049 -0.0429  0.2124  0.0186
  546loPI    C2 8722   3.338  15.759  11.326 -0.2574  0.1882 -0.0720
  546loPI    C3 8723   3.638  15.878  11.090 -0.0189  0.1810  0.2215
  546loPI   PO4 8724   3.269  15.367  10.999  0.2684  0.0205 -0.2011
  546loPI   GL1 8725   3.074  15.388  10.653 -0.1600  0.2427  0.1410
  546loPI   GL2 8726   2.737  15.345  10.600 -0.0218  0.3416  0.2662
  546loPI   C1A 8727   3.351  15.446  10.275 -0.0169  0.0083  0.0056
  546loPI   C2A 8728   3.257  15.585   9.780  0.2431  0.0686 -0.2583
  546loPI   C3A 8729   3.296  15.533   9.382 -0.1978  0.0966 -0.1247
  546loPI   C4A 8730   3.316  15.499   8.885 -0.2654 -0.0753  0.2016
  546loPI   C5A 8731   3.164  15.521   8.447 -0.2377  0.1541 -0.2873
  546loPI   C6A 8732   2.795  15.484   8.379  0.3416 -0.1662  0.0878
  546loPI   C1B 8733   2.751  15.384  10.178 -0.1443 -0.1811  0.1732
  546loPI   C2B 8734   2.729  15.479   9.792  0.1856  0.0148 -0.0134
  546loPI   C3B 8735   2.633  15.481   9.344 -0.2707  0.4671  0.0878
  546loPI   C4B 8736   2.810  15.522   8.923 -0.0656  0.0970 -0.2147
  547loPI    C1 8737  14.938  10.314  10.898 -0.1464 -0.1953 -0.3457
  547loPI    C2 8738  15.133  10.270  11.245 -0.2840  0.0515 -0.2340
  547loPI    C3 8739  15.050   9.950  11.019 -0.2153 -0.1139 -0.0281
  547loPI   PO4 8740  15.049  10.650  10.840 -0.1216  0.0781 -0.0021
  547loPI   GL1 8741  15.211  10.812  10.527 -0.2996 -0.3083  0.0245
  547loPI   GL2 8742  15.571  10.762  10.326  0.3389 -0.4365  0.2355
  547loPI   C1A 8743  15.120  10.763  10.105 -0.3171  0.1051 -0.0459
  547loPI   C2A 8744  15.202  10.761   9.695  0.0743 -0.2029  0.1723
  547loPI   C3A 8745  15.230  10.884   9.224  0.1396 -0.0226  0.0238
  547loPI   C4A 8746  15.248  10.924   8.825  0.0228  0.1848 -0.2349
  547loPI   C5A 8747  15.144  10.850   8.343 -0.0996  0.3536 -0.1179
  547loPI   C6A 8748  14.728  10.693   8.050 -0.3798  0.1423  0.2149
  547loPI   C1B 8749  15.688  10.781   9.847  0.0780  0.1727  0.2473
  547loPI   C2B 8750  15.845  10.878   9.474  0.0686  0.2049  0.2171
  547loPI   C3B 8751  15.710  10.842   9.078 -0.0990 -0.5214 -0.0368
  547loPI   C4B 8752  15.760  11.024   8.696  0.1033 -0.0620  0.2692
  548loPI    C1 8753   1.198   0.282  10.743  0.0725  0.2859  0.0472
  548loPI    C2 8754   0.984   0.024  10.961  0.0195  0.0984 -0.2210
  548loPI    C3 8755   1.182   0.322  11.141 -0.0271 -0.0479  0.0796
  548loPI   PO4 8756   1.165   0.226  10.467 -0.1035 -0.2643 -0.0386
  548loPI   GL1 8757   1.216   0.151  10.046 -0.0922 -0.0326 -0.1226
  548loPI   GL2 8758   1.468   0.042   9.820  0.3919  0.0483  0.1354
  548loPI   C1A 8759   0.939  -0.009   9.682 -0.1672 -0.1138 -0.1306
  548loPI   C2A 8760   0.893  -0.193   9.298 -0.1973 -0.2815 -0.0245
  548loPI   C3A 8761   0.954  -0.259   9.021  0.3730  0.1271  0.2326
  548loPI   C4A 8762   0.953  -0.167   8.643  0.1898 -0.0804 -0.0529
  548loPI   C5A 8763   0.787  -0.273   8.270 -0.0668 -0.1831 -0.0738
  548loPI   C6A 8764   0.551  -0.313   7.882  0.0410 -0.2448 -0.0068
  548loPI   C1B 8765   1.493  -0.163   9.447 -0.1953 -0.4475 -0.2319
  548loPI   C2B 8766   1.575  -0.180   8.920 -0.1266 -0.1830  0.2622
  548loPI   C3B 8767   1.565  -0.140   8.418 -0.0537 -0.1555  0.1726
  548loPI   C4B 8768   1.640  -0.036   7.936  0.1957  0.0434 -0.1332
  549loPI    C1 8769   8.243   3.939  11.189  0.1691  0.0431 -0.0030
  549loPI    C2 8770   8.320   4.274  11.395  0.0717  0.0053  0.0965
  549loPI    C3 8771   8.340   3.919  11.577 -0.1284 -0.0202  0.0702
  549loPI   PO4 8772   8.363   3.967  10.956 -0.3213 -0.1399  0.0799
  549loPI   GL1 8773   8.318   4.146  10.605 -0.0250 -0.2035  0.2841
  549loPI   GL2 8774   8.528   4.393  10.671  0.0355  0.1274 -0.1209
  549loPI   C1A 8775   8.089   4.059  10.220 -0.1067 -0.0521 -0.2954
  549loPI   C2A 8776   7.936   4.095   9.795 -0.0059  0.1246  0.0191
  549loPI   C3A 8777   7.922   4.161   9.263  0.0709  0.2144  0.2298
  549loPI   C4A 8778   7.943   4.067   8.768 -0.0294 -0.0919  0.2284
  549loPI   C5A 8779   8.000   4.095   8.425 -0.2357 -0.0659 -0.0258
  549loPI   C6A 8780   7.971   4.040   7.991  0.0443 -0.2873  0.3425
  549loPI   C1B 8781   8.641   4.565  10.210 -0.1664  0.1356  0.1976
  549loPI   C2B 8782   8.685   4.587   9.733  0.2570  0.0333 -0.1644
  549loPI   C3B 8783   8.622   4.634   9.266 -0.1547  0.0971  0.1711
  549loPI   C4B 8784   8.613   4.662   8.823  0.0514 -0.3227  0.1362
  550loPI    C1 8785   1.408   8.139  10.734  0.1196  0.2584  0.0186
  550loPI    C2 8786   1.720   8.107  10.982  0.0178  0.4101  0.1684
  550loPI    C3 8787   1.435   7.826  10.982  0.2451  0.1726 -0.1016
  550loPI   PO4 8788   1.561   8.199  10.453 -0.3056 -0.2274  0.2367
  550loPI   GL1 8789   1.579   8.368  10.113 -0.1104 -0.1636  0.2067
  550loPI   GL2 8790   1.259   8.535  10.120  0.0560  0.0153 -0.0177
  550loPI   C1A 8791   1.513   8.424   9.726 -0.0124 -0.1465 -0.2073
  550loPI   C2A 8792   1.471   8.609   9.309 -0.4993 -0.0939 -0.2443
  550loPI   C3A 8793   1.612   8.601   8.889  0.3580  0.1282  0.0313
  550loPI   C4A 8794   1.651   8.757   8.453 -0.0103  0.0409 -0.0004
  550loPI   C5A 8795   1.885   8.814   8.089  0.1069  0.4364  0.0400
  550loPI   C6A 8796   2.125   8.783   7.705 -0.1758 -0.0952 -0.1229
  550loPI   C1B 8797   1.146   8.871   9.845 -0.0195  0.0195  0.0205
  550loPI   C2B 8798   1.098   8.961   9.382 -0.0010 -0.0565  0.1068
  550loPI   C3B 8799   1.274   9.037   8.981  0.2161 -0.0749 -0.1592
  550loPI   C4B 8800   1.324   9.085   8.530 -0.0541  0.1736 -0.0596
  551loPI    C1 8801  16.436   8.911  10.644  0.0859 -0.0519 -0.1665
  551loPI    C2 8802  16.754   8.988  10.874 -0.0405  0.0414 -0.0209
  551loPI    C3 8803  16.396   9.137  10.972 -0.2056 -0.3708  0.0247
  551loPI   PO4 8804  16.547   8.922  10.369 -0.0995  0.1507  0.0092
  551loPI   GL1 8805  16.527   8.835  10.001  0.2100 -0.0748  0.2143
  551loPI   GL2 8806  16.867   9.028   9.988  0.0581 -0.3668 -0.2338
  551loPI   C1A 8807  16.422   8.838   9.540 -0.0504  0.4035  0.5323
  551loPI   C2A 8808  16.468   8.918   9.091 -0.2671  0.1378 -0.0728
  551loPI   C3A 8809  16.463   9.068   8.719  0.1595 -0.0536  0.0668
  551loPI   C4A 8810  16.407   9.277   8.276 -0.1202  0.0085  0.1468
  551loPI   C5A 8811  16.501   9.586   7.940 -0.1113  0.1816 -0.2004
  551loPI   C6A 8812  16.504   9.868   7.407 -0.2584 -0.0806 -0.0909
  551loPI   C1B 8813  16.783   9.225   9.634 -0.3721  0.2057  0.1110
  551loPI   C2B 8814  16.815   9.267   9.195  0.0123  0.0367 -0.1494
  551loPI   C3B 8815  16.903   9.267   8.730  0.0390 -0.0292  0.1307
  551loPI   C4B 8816  16.865   9.012   8.373 -0.2022  0.5153 -0.1351
  552loPI    C1 8817   5.673   0.887  10.981 -0.0836 -0.0960 -0.2318
  552loPI    C2 8818   5.434   1.122  11.200  0.2303  0.0710 -0.0625
  552loPI    C3 8819   5.278   0.892  10.913 -0.1723 -0.0573  0.2492
  552loPI   PO4 8820   5.841   1.110  10.852  0.0109 -0.0387 -0.1083
  552loPI   GL1 8821   5.625   1.299  10.394 -0.1946 -0.0495  0.0443
  552loPI   GL2 8822   5.943   1.323  10.399  0.0834  0.0113  0.0996
  552loPI   C1A 8823   5.680   1.305   9.957  0.3463  0.3784  0.1256
  552loPI   C2A 8824   5.625   1.260   9.603  0.2077  0.1526 -0.0692
  552loPI   C3A 8825   5.626   1.142   9.155  0.1582  0.0356 -0.0244
  552loPI   C4A 8826   5.572   1.161   8.708 -0.0031 -0.2073  0.0950
  552loPI   C5A 8827   5.288   1.159   8.447  0.1020  0.1403  0.0468
  552loPI   C6A 8828   5.108   0.863   8.296 -0.2693 -0.0358 -0.1264
  552loPI   C1B 8829   6.179   1.249   9.961  0.1430 -0.1861  0.0137
  552loPI   C2B 8830   6.091   1.266   9.520 -0.1094 -0.2621  0.4000
  552loPI   C3B 8831   6.129   1.142   9.071  0.3856  0.2728 -0.1019
  552loPI   C4B 8832   6.108   1.206   8.728 -0.1339  0.3132 -0.1838
  553loPI    C1 8833   0.284  10.494  11.169 -0.0838  0.1413  0.0143
  553loPI    C2 8834   0.095  10.249  11.421  0.1119  0.1135  0.1361
  553loPI    C3 8835   0.231  10.602  11.550  0.2083  0.1015  0.0681
  553loPI   PO4 8836   0.516  10.315  10.970  0.2079  0.1265  0.0054
  553loPI   GL1 8837   0.669  10.269  10.527  0.1379 -0.2812  0.0201
  553loPI   GL2 8838   0.361  10.117  10.492  0.1926 -0.1021  0.1496
  553loPI   C1A 8839   1.039  10.621  10.347  0.1197 -0.1020 -0.1067
  553loPI   C2A 8840   1.019  10.836   9.956 -0.1425  0.0385 -0.0152
  553loPI   C3A 8841   0.991  10.869   9.468 -0.1761 -0.2979 -0.1372
  553loPI   C4A 8842   1.090  10.874   8.974  0.3944  0.1492  0.1375
  553loPI   C5A 8843   1.170  10.927   8.575  0.3236 -0.2802  0.0679
  553loPI   C6A 8844   1.337  11.133   8.188 -0.0966  0.0023  0.2146
  553loPI   C1B 8845   0.216  10.230  10.114 -0.1065  0.1914  0.0885
  553loPI   C2B 8846   0.288  10.346   9.678  0.6411 -0.2809  0.0405
  553loPI   C3B 8847   0.264  10.416   9.190 -0.1949  0.0340 -0.1182
  553loPI   C4B 8848   0.238  10.253   8.713 -0.1550  0.0306  0.3535
  554loPI    C1 8849  10.724   3.376  10.942  0.1630  0.0095 -0.0462
  554loPI    C2 8850  10.627   3.085  10.685 -0.1897  0.1055 -0.0277
  554loPI    C3 8851  10.673   3.001  11.073  0.0973  0.0062 -0.0807
  554loPI   PO4 8852  10.897   3.486  10.819  0.0752 -0.3685  0.0369
  554loPI   GL1 8853  11.013   3.398  10.494  0.2760  0.1063 -0.2229
  554loPI   GL2 8854  11.086   3.090  10.449  0.2915 -0.3253  0.1172
  554loPI   C1A 8855  11.166   3.490  10.137 -0.1053 -0.0658  0.1397
  554loPI   C2A 8856  11.249   3.484   9.662 -0.0364 -0.0947  0.1460
  554loPI   C3A 8857  11.087   3.438   9.325  0.1058  0.3378 -0.1661
  554loPI   C4A 8858  11.259   3.375   8.896  0.1536  0.4069  0.1265
  554loPI   C5A 8859  11.040   3.234   8.570 -0.4071 -0.1035 -0.0735
  554loPI   C6A 8860  10.663   3.001   8.299 -0.4931 -0.1988 -0.1110
  554loPI   C1B 8861  11.001   3.030  10.021  0.0675 -0.2508 -0.2655
  554loPI   C2B 8862  10.923   3.056   9.659  0.0184 -0.2621 -0.3610
  554loPI   C3B 8863  10.915   2.909   9.265  0.0451 -0.1492 -0.0973
  554loPI   C4B 8864  10.996   2.782   8.757 -0.1669  0.3890  0.1744
  555loPI    C1 8865  12.759  11.407  10.528 -0.1951 -0.1002 -0.1170
  555loPI    C2 8866  12.706  11.095  10.772 -0.0262 -0.0776 -0.0495
  555loPI    C3 8867  12.911  11.049  10.432 -0.2561 -0.1077 -0.1864
  555loPI   PO4 8868  12.556  11.536  10.538 -0.0720 -0.1745  0.1285
  555loPI   GL1 8869  12.389  11.658  10.174  0.2576  0.1200  0.1627
  555loPI   GL2 8870  12.115  11.608  10.251  0.1452 -0.0945  0.0469
  555loPI   C1A 8871  12.442  11.698   9.777  0.3053  0.2114  0.0030
  555loPI   C2A 8872  12.472  11.662   9.360  0.2216 -0.0401 -0.0704
  555loPI   C3A 8873  12.500  11.662   8.970 -0.3469  0.1584  0.1104
  555loPI   C4A 8874  12.575  11.734   8.610  0.2987  0.1298  0.5160
  555loPI   C5A 8875  12.702  12.009   8.294 -0.1181  0.0028 -0.0298
  555loPI   C6A 8876  12.665  12.393   8.144  0.5263 -0.0948  0.3440
  555loPI   C1B 8877  11.908  11.655   9.907  0.0198 -0.2155  0.2551
  555loPI   C2B 8878  11.977  11.656   9.472  0.1921  0.0038  0.0043
  555loPI   C3B 8879  12.043  11.521   9.019 -0.0540  0.0210 -0.0372
  555loPI   C4B 8880  12.036  11.641   8.577 -0.2178 -0.2718 -0.1205
  556loPI    C1 8881  12.810  11.652  10.978 -0.0321 -0.1209 -0.0173
  556loPI    C2 8882  12.753  11.781  11.352 -0.0966 -0.0908 -0.0374
  556loPI    C3 8883  12.855  11.400  11.285  0.3326  0.0056  0.0378
  556loPI   PO4 8884  12.984  11.756  10.844  0.0752  0.0318  0.1378
  556loPI   GL1 8885  13.025  11.794  10.379  0.4369  0.2296 -0.3776
  556loPI   GL2 8886  12.714  11.970  10.380  0.0998  0.1902 -0.0170
  556loPI   C1A 8887  13.060  11.706   9.954 -0.2073  0.0254  0.0225
  556loPI   C2A 8888  12.924  11.667   9.556  0.2164  0.3499  0.0507
  556loPI   C3A 8889  12.998  11.687   9.080 -0.0492  0.0534 -0.1658
  556loPI   C4A 8890  13.051  11.704   8.614 -0.1129  0.4504 -0.0436
  556loPI   C5A 8891  13.328  11.653   8.197 -0.2128 -0.1903 -0.0629
  556loPI   C6A 8892  13.732  11.515   8.147 -0.2018 -0.0689 -0.0315
  556loPI   C1B 8893  12.717  12.181  10.011 -0.2924 -0.1152  0.0537
  556loPI   C2B 8894  12.638  12.172   9.601  0.0136  0.0256  0.1982
  556loPI   C3B 8895  12.696  12.078   9.172  0.5155 -0.0590 -0.0572
  556loPI   C4B 8896  12.820  12.150   8.780 -0.0438  0.2115 -0.1835
  557loPI    C1 8897   2.651  15.249  11.140 -0.0440  0.0606 -0.2311
  557loPI    C2 8898   2.538  15.491  11.439  0.2167 -0.1940  0.0810
  557loPI    C3 8899   2.896  15.539  11.266  0.1091 -0.1137 -0.1231
  557loPI   PO4 8900   2.359  15.189  10.934  0.2430  0.1161  0.1758
  557loPI   GL1 8901   2.301  15.125  10.576  0.0662 -0.2700 -0.1589
  557loPI   GL2 8902   2.462  14.954  10.417  0.4504 -0.2382  0.1909
  557loPI   C1A 8903   2.232  15.414  10.221  0.0006  0.4164 -0.1457
  557loPI   C2A 8904   2.196  15.422   9.848  0.1957 -0.2751 -0.2215
  557loPI   C3A 8905   2.124  15.448   9.331 -0.1219 -0.2494 -0.1125
  557loPI   C4A 8906   2.186  15.400   8.897  0.1222 -0.1072  0.2629
  557loPI   C5A 8907   2.140  15.457   8.461 -0.0005  0.1259 -0.0123
  557loPI   C6A 8908   2.046  15.217   8.191  0.0844 -0.1372 -0.3069
  557loPI   C1B 8909   2.498  15.001   9.980  0.2372 -0.2366  0.1849
  557loPI   C2B 8910   2.439  15.051   9.473 -0.0590 -0.1179  0.1154
  557loPI   C3B 8911   2.588  15.036   9.028 -0.1803  0.0155 -0.3786
  557loPI   C4B 8912   2.538  15.119   8.570 -0.1085 -0.1629 -0.0720
  558loPI    C1 8913   2.148   6.487  10.218 -0.0165  0.0303  0.0515
  558loPI    C2 8914   1.987   6.181  10.419  0.0318  0.0143  0.0661
  558loPI    C3 8915   2.303   6.375  10.569  0.1386 -0.0700 -0.0477
  558loPI   PO4 8916   1.879   6.630  10.170 -0.2246 -0.0322 -0.2098
  558loPI   GL1 8917   1.591   6.715   9.771  0.0388  0.0821  0.3428
  558loPI   GL2 8918   1.679   6.979   9.526  0.1715  0.1382  0.0841
  558loPI   C1A 8919   1.538   6.542   9.346 -0.0044  0.1369  0.0552
  558loPI   C2A 8920   1.601   6.446   8.876 -0.3099 -0.1363  0.0208
  558loPI   C3A 8921   1.883   6.612   8.532 -0.0809 -0.0303 -0.1295
  558loPI   C4A 8922   2.035   6.642   8.070  0.0875 -0.0844  0.1966
  558loPI   C5A 8923   2.371   6.671   7.749  0.0885 -0.0680  0.2442
  558loPI   C6A 8924   2.708   6.790   7.700 -0.1310 -0.3830  0.0334
  558loPI   C1B 8925   1.682   6.979   9.140 -0.2663  0.2931  0.1577
  558loPI   C2B 8926   1.753   7.125   8.760 -0.0951 -0.2683  0.3287
  558loPI   C3B 8927   2.016   7.218   8.378 -0.1299  0.0348  0.1926
  558loPI   C4B 8928   2.130   7.147   7.910  0.0374  0.2831  0.0742
  559loPI    C1 8929  16.019   9.824  10.806 -0.0287  0.1855 -0.1038
  559loPI    C2 8930  15.896   9.471  10.949 -0.0127  0.2318  0.0256
  559loPI    C3 8931  15.984   9.769  11.201  0.1052  0.2851 -0.0774
  559loPI   PO4 8932  16.201   9.725  10.543 -0.1497  0.0776  0.2896
  559loPI   GL1 8933  16.200   9.713  10.185 -0.1538  0.0301 -0.0169
  559loPI   GL2 8934  16.534   9.741   9.911  0.3721  0.2063 -0.1507
  559loPI   C1A 8935  15.878   9.847   9.828 -0.2691  0.0500 -0.0164
  559loPI   C2A 8936  15.792   9.939   9.500 -0.1158 -0.0523 -0.0751
  559loPI   C3A 8937  15.739   9.999   9.107 -0.1781 -0.2413  0.1541
  559loPI   C4A 8938  15.855  10.104   8.741  0.3498 -0.0466  0.1880
  559loPI   C5A 8939  15.745  10.238   8.266  0.0552  0.0242 -0.1086
  559loPI   C6A 8940  15.446  10.508   8.066 -0.2630  0.0003  0.0944
  559loPI   C1B 8941  16.714   9.665   9.402  0.0047 -0.3557  0.4075
  559loPI   C2B 8942  16.611   9.661   8.877 -0.2783  0.2790  0.4277
  559loPI   C3B 8943  16.737   9.661   8.370  0.1811  0.2483  0.0745
  559loPI   C4B 8944  16.984   9.442   8.026 -0.3182  0.0829  0.1927
  560loPI    C1 8945  16.341  13.010  11.131  0.1314 -0.1578  0.1158
  560loPI    C2 8946  16.232  12.735  11.401  0.1275 -0.2018  0.0694
  560loPI    C3 8947  16.251  13.120  11.505  0.1699 -0.2241  0.1447
  560loPI   PO4 8948  16.373  12.725  10.811 -0.0652 -0.1335 -0.1697
  560loPI   GL1 8949  16.246  12.696  10.340 -0.1298  0.5935  0.2090
  560loPI   GL2 8950  16.384  12.366  10.361  0.2228  0.1135 -0.0448
  560loPI   C1A 8951  16.047  12.740   9.896  0.1624  0.0453  0.2966
  560loPI   C2A 8952  16.076  12.746   9.461 -0.2082  0.1041 -0.0027
  560loPI   C3A 8953  16.194  12.786   8.952  0.2601  0.0518  0.1063
  560loPI   C4A 8954  16.213  12.940   8.549 -0.0680  0.2209 -0.0259
  560loPI   C5A 8955  16.368  13.246   8.277  0.0813  0.1678 -0.2193
  560loPI   C6A 8956  16.161  13.535   8.113  0.1865  0.0378 -0.3089
  560loPI   C1B 8957  16.366  12.265   9.898 -0.6447  0.1587 -0.1734
  560loPI   C2B 8958  16.423  12.309   9.432  0.1667  0.0571  0.1232
  560loPI   C3B 8959  16.452  12.360   8.984 -0.0292  0.0833  0.3011
  560loPI   C4B 8960  16.478  12.409   8.685 -0.0862 -0.1025  0.0328
  561loPI    C1 8961   9.405  14.825  11.139 -0.0270 -0.2457 -0.1115
  561loPI    C2 8962   9.344  15.219  11.105  0.1419 -0.2126 -0.0412
  561loPI    C3 8963   9.297  15.039  11.459  0.0262 -0.2636 -0.0817
  561loPI   PO4 8964   9.667  14.758  11.022 -0.2696 -0.1100  0.3028
  561loPI   GL1 8965   9.762  14.598  10.700 -0.0089  0.0612 -0.0978
  561loPI   GL2 8966   9.513  14.616  10.419  0.1437 -0.0390 -0.1185
  561loPI   C1A 8967   9.942  14.556  10.253 -0.2311  0.0915  0.2600
  561loPI   C2A 8968   9.957  14.613   9.843 -0.0110 -0.2069  0.2768
  561loPI   C3A 8969   9.940  14.608   9.395 -0.3977  0.1589 -0.3854
  561loPI   C4A 8970   9.948  14.786   9.001 -0.0562  0.2622  0.1123
  561loPI   C5A 8971  10.043  15.180   8.666 -0.0788  0.4470 -0.3849
  561loPI   C6A 8972  10.144  15.387   8.324 -0.4064  0.0925  0.0543
  561loPI   C1B 8973   9.491  14.614   9.974  0.0497 -0.0192  0.1605
  561loPI   C2B 8974   9.374  14.583   9.621 -0.0385  0.3235  0.1111
  561loPI   C3B 8975   9.448  14.655   9.216 -0.0348  0.0022  0.2354
  561loPI   C4B 8976   9.418  14.722   8.855 -0.1451 -0.1372 -0.1659
  562loPI    C1 8977   9.663  17.570  10.698  0.0633 -0.1880  0.0133
  562loPI    C2 8978  10.009  17.771  10.704  0.0418 -0.1547  0.1801
  562loPI    C3 8979   9.876  17.593  11.036 -0.1171 -0.1407  0.1247
  562loPI   PO4 8980   9.586  17.480  10.405 -0.3247 -0.3436 -0.0079
  562loPI   GL1 8981   9.807  17.433  10.077  0.0148 -0.0802  0.0570
  562loPI   GL2 8982   9.824  17.837  10.192  0.1521  0.2614  0.0390
  562loPI   C1A 8983   9.863  17.445   9.678  0.1555  0.1344 -0.1533
  562loPI   C2A 8984   9.786  17.386   9.317 -0.0573 -0.4099  0.0187
  562loPI   C3A 8985   9.688  17.449   8.996  0.2739  0.0488  0.0994
  562loPI   C4A 8986   9.640  17.356   8.642  0.0006 -0.1518  0.5760
  562loPI   C5A 8987   9.859  17.354   8.231  0.3109  0.2202 -0.0090
  562loPI   C6A 8988   9.881  17.247   7.757 -0.0578 -0.0356  0.2499
  562loPI   C1B 8989   9.903  17.941   9.739  0.0453  0.2347 -0.0950
  562loPI   C2B 8990   9.936  17.910   9.245 -0.0854 -0.1351  0.1326
  562loPI   C3B 8991   9.831  17.881   8.855  0.0297 -0.0559  0.0001
  562loPI   C4B 8992   9.730  17.802   8.424  0.0289 -0.0941  0.3546
  563loPI    C1 8993   4.958  15.767  11.300  0.3240  0.0266  0.0680
  563loPI    C2 8994   4.914  15.997  11.624  0.1291  0.0573  0.0210
  563loPI    C3 8995   4.799  15.614  11.633 -0.0545  0.1094 -0.0698
  563loPI   PO4 8996   4.883  15.985  11.105  0.3242 -0.0507 -0.1944
  563loPI   GL1 8997   5.084  16.021  10.694  0.3478  0.1570 -0.0026
  563loPI   GL2 8998   4.909  16.250  10.589  0.0361 -0.5199  0.0713
  563loPI   C1A 8999   4.852  15.672  10.275 -0.2048 -0.1706  0.1889
  563loPI   C2A 9000   4.810  15.690   9.910 -0.1348  0.2970 -0.0472
  563loPI   C3A 9001   4.771  15.697   9.551 -0.0288 -0.1645  0.1098
  563loPI   C4A 9002   4.950  15.641   9.089 -0.3034 -0.1591 -0.1003
  563loPI   C5A 9003   4.954  15.640   8.656 -0.2256 -0.2578 -0.3198
  563loPI   C6A 9004   5.027  15.827   8.400  0.1156 -0.0433 -0.2193
  563loPI   C1B 9005   4.973  16.157  10.154  0.1251 -0.2175  0.0136
  563loPI   C2B 9006   4.987  16.143   9.780 -0.0931 -0.0395  0.2649
  563loPI   C3B 9007   5.032  16.152   9.299  0.3766  0.0210 -0.1219
  563loPI   C4B 9008   5.144  16.037   8.860  0.1206 -0.2687 -0.2272
  564loPI    C1 9009   8.387  12.610  11.272  0.0505  0.0766 -0.1630
  564loPI    C2 9010   8.511  12.313  11.510  0.1216  0.0621 -0.2180
  564loPI    C3 9011   8.209  12.549  11.625  0.2344  0.1306 -0.0596
  564loPI   PO4 9012   8.626  12.707  11.142  0.2007  0.0047  0.0532
  564loPI   GL1 9013   8.750  12.968  10.822  0.2954 -0.2478 -0.1066
  564loPI   GL2 9014   8.849  12.740  10.723  0.1074  0.2349  0.2138
  564loPI   C1A 9015   8.742  13.025  10.358  0.1467 -0.0065 -0.0970
  564loPI   C2A 9016   8.705  13.247   9.974  0.1964  0.1357 -0.0452
  564loPI   C3A 9017   8.695  13.201   9.576 -0.2255  0.0617  0.1405
  564loPI   C4A 9018   8.713  13.201   9.189  0.0083  0.1093  0.3944
  564loPI   C5A 9019   8.560  13.117   8.765  0.0105  0.2578 -0.0488
  564loPI   C6A 9020   8.202  13.215   8.440  0.3772 -0.0814  0.1942
  564loPI   C1B 9021   9.059  12.651  10.307 -0.2269 -0.1777  0.1457
  564loPI   C2B 9022   9.051  12.786   9.865 -0.1342  0.3471 -0.0953
  564loPI   C3B 9023   8.993  12.822   9.490  0.1493  0.1442  0.1669
  564loPI   C4B 9024   9.085  12.761   9.049  0.0489  0.0574 -0.0114
  565loPI    C1 9025   8.239  15.725  10.834 -0.0567 -0.0993  0.0320
  565loPI    C2 9026   8.387  15.919  11.151  0.0233  0.1810 -0.1716
  565loPI    C3 9027   8.576  15.597  11.007 -0.0755 -0.0171  0.1307
  565loPI   PO4 9028   8.052  15.874  10.796  0.1697 -0.0903  0.2136
  565loPI   GL1 9029   7.923  16.027  10.504 -0.1486  0.0450  0.2122
  565loPI   GL2 9030   7.617  16.118  10.503 -0.0050 -0.1096  0.1099
  565loPI   C1A 9031   7.879  16.061  10.116  0.0665 -0.0601 -0.0563
  565loPI   C2A 9032   7.955  15.886   9.642  0.3355 -0.0100 -0.1919
  565loPI   C3A 9033   8.013  15.864   9.198 -0.4082  0.0955  0.0422
  565loPI   C4A 9034   8.059  15.803   8.787  0.0866 -0.0006  0.1954
  565loPI   C5A 9035   7.784  15.796   8.419 -0.1907  0.2973 -0.2512
  565loPI   C6A 9036   7.540  15.686   8.038 -0.2849  0.0876  0.3974
  565loPI   C1B 9037   7.384  15.959  10.181 -0.1776 -0.1079  0.3315
  565loPI   C2B 9038   7.394  15.859   9.783  0.0145  0.0605  0.1034
  565loPI   C3B 9039   7.469  15.866   9.322 -0.4813 -0.0740 -0.0463
  565loPI   C4B 9040   7.588  15.726   8.890  0.1510  0.0626  0.3759
  566loPI    C1 9041  13.305   1.291  11.028 -0.4183 -0.0158  0.1356
  566loPI    C2 9042  13.477   1.652  11.056 -0.3775 -0.0123 -0.1374
  566loPI    C3 9043  13.265   1.507  11.363  0.1747 -0.0507  0.2399
  566loPI   PO4 9044  13.220   1.271  10.707 -0.4732  0.2924 -0.0361
  566loPI   GL1 9045  12.939   1.490  10.449  0.0516 -0.1164  0.2754
  566loPI   GL2 9046  12.723   1.518  10.588 -0.1445 -0.0240 -0.1427
  566loPI   C1A 9047  12.757   1.386  10.011  0.1737  0.0194 -0.1268
  566loPI   C2A 9048  12.677   1.326   9.629  0.1370  0.1023  0.3653
  566loPI   C3A 9049  12.607   1.291   9.220  0.0458  0.2219 -0.3941
  566loPI   C4A 9050  12.637   1.218   8.821 -0.0959 -0.2063 -0.4336
  566loPI   C5A 9051  12.458   0.957   8.359 -0.2190 -0.3470  0.0704
  566loPI   C6A 9052  12.367   0.476   8.265  0.1369  0.3552 -0.3142
  566loPI   C1B 9053  12.500   1.747  10.279 -0.1747  0.0274 -0.1614
  566loPI   C2B 9054  12.304   1.734   9.783  0.0593  0.4740 -0.2676
  566loPI   C3B 9055  12.385   1.712   9.338  0.1527  0.1864  0.2999
  566loPI   C4B 9056  12.304   1.597   8.986 -0.0118 -0.0320 -0.0359
  567loPI    C1 9057   8.866   6.175  11.143  0.0211 -0.3606  0.0354
  567loPI    C2 9058   8.750   6.352  11.482 -0.0723 -0.1018 -0.1285
  567loPI    C3 9059   9.135   6.360  11.374 -0.1074  0.1994 -0.2432
  567loPI   PO4 9060   8.763   6.272  10.944 -0.3768 -0.2446 -0.2623
  567loPI   GL1 9061   8.580   5.980  10.605 -0.1099 -0.0509 -0.2270
  567loPI   GL2 9062   8.486   6.251  10.452 -0.1733 -0.1128 -0.2574
  567loPI   C1A 9063   8.808   5.960  10.115  0.0370  0.1070 -0.0429
  567loPI   C2A 9064   8.881   5.919   9.744  0.1560  0.2667 -0.1844
  567loPI   C3A 9065   8.774   6.030   9.313 -0.0417  0.1563  0.2371
  567loPI   C4A 9066   8.814   5.966   8.815 -0.1603  0.4649  0.0475
  567loPI   C5A 9067   8.744   6.062   8.397 -0.0286 -0.1755  0.0535
  567loPI   C6A 9068   8.409   6.369   8.215  0.1435  0.0138  0.0715
  567loPI   C1B 9069   8.410   6.383  10.086  0.1192 -0.0600  0.0520
  567loPI   C2B 9070   8.481   6.337   9.691  0.0848 -0.3332  0.0823
  567loPI   C3B 9071   8.467   6.392   9.244  0.0709  0.0632 -0.3032
  567loPI   C4B 9072   8.379   6.449   8.754  0.1741  0.1337  0.0654
  568loPI    C1 9073  13.277  10.818  11.052  0.0375 -0.1553  0.1525
  568loPI    C2 9074  12.903  10.919  11.153  0.0602  0.0405  0.0444
  568loPI    C3 9075  13.125  10.701  11.403 -0.0676  0.0688  0.1837
  568loPI   PO4 9076  13.249  10.769  10.783 -0.1540 -0.2848 -0.1220
  568loPI   GL1 9077  13.350  10.733  10.432 -0.0440  0.1022 -0.3921
  568loPI   GL2 9078  13.512  10.864  10.253  0.1391  0.0882 -0.5029
  568loPI   C1A 9079  13.105  10.722  10.055  0.1407 -0.0911  0.1367
  568loPI   C2A 9080  13.162  10.881   9.671 -0.0202  0.0712  0.2209
  568loPI   C3A 9081  13.150  10.672   9.214 -0.1970 -0.1298 -0.0812
  568loPI   C4A 9082  13.293  10.623   8.767  0.1732 -0.0661 -0.2345
  568loPI   C5A 9083  13.307  10.642   8.384  0.0581 -0.0912  0.2194
  568loPI   C6A 9084  13.718  10.536   8.095  0.2685 -0.0250 -0.0461
  568loPI   C1B 9085  13.624  10.686   9.924 -0.0337  0.0826  0.2135
  568loPI   C2B 9086  13.598  10.691   9.439  0.4568  0.0094 -0.1218
  568loPI   C3B 9087  13.705  10.684   9.054  0.1378 -0.3831  0.1629
  568loPI   C4B 9088  13.745  10.666   8.574 -0.2801  0.3274  0.0226
  569loPI    C1 9089  16.248   4.902   9.404 -0.0283 -0.0684  0.1722
  569loPI    C2 9090  16.136   5.217   9.623  0.0928  0.1508 -0.0756
  569loPI    C3 9091  16.384   5.267   9.314 -0.0241 -0.1634 -0.2244
  569loPI   PO4 9092  16.288   4.724   9.528  0.0570  0.1882  0.2704
  569loPI   GL1 9093  16.261   4.272   9.376 -0.0157 -0.0013  0.2383
  569loPI   GL2 9094  16.506   4.419   9.185 -0.1339 -0.0181 -0.3323
  569loPI   C1A 9095  16.155   4.035   8.973  0.0124 -0.0810  0.1893
  569loPI   C2A 9096  16.165   3.906   8.651 -0.2583 -0.0615  0.3102
  569loPI   C3A 9097  16.432   4.274   8.430  0.1404  0.1505 -0.3417
  569loPI   C4A 9098  16.438   4.425   8.094  0.0161 -0.1453 -0.2219
  569loPI   C5A 9099  16.208   4.587   7.729 -0.0148  0.1067 -0.4126
  569loPI   C6A 9100  16.152   4.759   7.343  0.0370 -0.2526  0.2792
  569loPI   C1B 9101  16.425   4.516   8.838 -0.0510 -0.4416 -0.0321
  569loPI   C2B 9102  16.682   4.735   8.602 -0.2850  0.1710  0.2252
  569loPI   C3B 9103  16.715   4.879   8.203  0.0495  0.2459 -0.0443
  569loPI   C4B 9104  16.668   4.866   7.858 -0.2305  0.4515  0.0432
  570loPI    C1 9105   4.052   0.076  10.917 -0.1489  0.1412  0.1081
  570loPI    C2 9106   3.833  -0.187  11.124  0.0761 -0.1490 -0.0152
  570loPI    C3 9107   4.081   0.061  11.316 -0.3702  0.2009  0.1279
  570loPI   PO4 9108   4.189  -0.003  10.744 -0.1669 -0.1074  0.1463
  570loPI   GL1 9109   4.226   0.158  10.398 -0.0249  0.0747  0.2569
  570loPI   GL2 9110   4.592   0.191  10.485 -0.1080 -0.1454 -0.0491
  570loPI   C1A 9111   4.217   0.174   9.917  0.4355 -0.1765  0.0049
  570loPI   C2A 9112   4.045   0.174   9.539  0.0861 -0.2198  0.0503
  570loPI   C3A 9113   4.041   0.075   9.036  0.0596 -0.1887 -0.1414
  570loPI   C4A 9114   4.061   0.053   8.636  0.1894 -0.1252 -0.1624
  570loPI   C5A 9115   4.408   0.052   8.399  0.2869  0.0790  0.2480
  570loPI   C6A 9116   4.823   0.173   8.342 -0.5224  0.1246 -0.1619
  570loPI   C1B 9117   4.647   0.304  10.151  0.0737 -0.0421  0.3387
  570loPI   C2B 9118   4.700   0.273   9.729 -0.0955  0.0685  0.1596
  570loPI   C3B 9119   4.611   0.200   9.358 -0.0247  0.1023  0.1355
  570loPI   C4B 9120   4.672   0.058   8.915 -0.0220  0.2090 -0.0467
  571loPI    C1 9121  15.504   7.142  10.058 -0.1594  0.4233  0.0569
  571loPI    C2 9122  15.426   6.932  10.389 -0.0014  0.2874  0.0094
  571loPI    C3 9123  15.743   7.176  10.378  0.1224  0.1232 -0.1153
  571loPI   PO4 9124  15.452   7.014   9.853  0.1921  0.1000  0.1495
  571loPI   GL1 9125  15.563   7.052   9.445  0.2760 -0.0642  0.1143
  571loPI   GL2 9126  15.427   7.185   9.261  0.1309  0.3674  0.0360
  571loPI   C1A 9127  15.996   6.980   9.168 -0.2417  0.0454 -0.1340
  571loPI   C2A 9128  16.440   6.942   9.050 -0.0902  0.3365  0.3333
  571loPI   C3A 9129  16.584   7.072   8.683 -0.3810  0.0216 -0.0245
  571loPI   C4A 9130  16.597   6.988   8.226 -0.3261  0.2613  0.0841
  571loPI   C5A 9131  16.405   6.658   7.871  0.1139 -0.1665  0.3246
  571loPI   C6A 9132  16.379   6.215   7.724  0.0489  0.1265 -0.1631
  571loPI   C1B 9133  15.154   7.269   8.777 -0.0757  0.0921 -0.1643
  571loPI   C2B 9134  15.223   7.452   8.388 -0.3807 -0.2492  0.0749
  571loPI   C3B 9135  15.324   7.453   7.888 -0.0173  0.0676 -0.2488
  571loPI   C4B 9136  15.738   7.300   7.633 -0.0664  0.2222  0.2166
  572loPI    C1 9137  12.621   2.006  11.190 -0.0785 -0.2145 -0.3249
  572loPI    C2 9138  12.294   1.830  11.339  0.0839 -0.1797  0.0847
  572loPI    C3 9139  12.424   2.175  11.494  0.2587 -0.1405 -0.1430
  572loPI   PO4 9140  12.598   1.938  10.888 -0.0763 -0.0471 -0.1560
  572loPI   GL1 9141  12.706   2.160  10.398 -0.3129 -0.1672  0.1081
  572loPI   GL2 9142  12.883   1.989  10.517 -0.1281 -0.0080  0.0520
  572loPI   C1A 9143  12.586   2.179   9.985 -0.3072 -0.2564 -0.0214
  572loPI   C2A 9144  12.518   2.098   9.505 -0.1369 -0.1689  0.2113
  572loPI   C3A 9145  12.604   2.107   9.072  0.0937  0.3069  0.0423
  572loPI   C4A 9146  12.595   1.848   8.684  0.0624 -0.4358 -0.3482
  572loPI   C5A 9147  12.389   1.479   8.506  0.0152  0.4415  0.0478
  572loPI   C6A 9148  12.173   1.105   8.774 -0.0485 -0.2686  0.1882
  572loPI   C1B 9149  12.988   1.819  10.094  0.1712  0.0828  0.0900
  572loPI   C2B 9150  12.850   1.802   9.702  0.2304  0.0493  0.1979
  572loPI   C3B 9151  12.868   1.737   9.417  0.0419 -0.2592  0.0920
  572loPI   C4B 9152  12.865   1.666   9.019 -0.0990  0.0966 -0.0877
  573loPI    C1 9153  16.107  17.178  10.798 -0.1135 -0.0357  0.0094
  573loPI    C2 9154  15.773  17.192  11.018  0.0012 -0.1051  0.1908
  573loPI    C3 9155  16.075  17.441  11.098 -0.0369  0.0128 -0.0249
  573loPI   PO4 9156  15.945  17.078  10.542 -0.0007 -0.0199 -0.6598
  573loPI   GL1 9157  16.073  16.923  10.114 -0.1099  0.3378  0.1203
  573loPI   GL2 9158  15.796  17.183  10.081 -0.1993  0.0318  0.0715
  573loPI   C1A 9159  15.999  16.745   9.740  0.4009  0.0932 -0.0409
  573loPI   C2A 9160  16.003  16.538   9.369  0.3908  0.1716 -0.0509
  573loPI   C3A 9161  15.823  16.339   9.113  0.1063  0.2162  0.1327
  573loPI   C4A 9162  15.779  16.248   8.742 -0.1673 -0.0231  0.1478
  573loPI   C5A 9163  15.649  16.250   8.272 -0.1874  0.1637 -0.0739
  573loPI   C6A 9164  15.241  16.207   7.965  0.0419  0.2738 -0.3613
  573loPI   C1B 9165  15.886  17.203   9.583 -0.1941 -0.2670  0.0470
  573loPI   C2B 9166  16.005  17.041   9.221 -0.0704  0.0605  0.2923
  573loPI   C3B 9167  16.123  16.775   8.905 -0.1822  0.0137 -0.0937
  573loPI   C4B 9168  16.096  16.598   8.505 -0.0140 -0.1682  0.1499
  574loPI    C1 9169  12.725   3.536  11.025  0.1229 -0.0898  0.0532
  574loPI    C2 9170  12.930   3.826  11.210  0.0472  0.1262 -0.1943
  574loPI    C3 9171  12.687   3.587  11.420  0.2308  0.1377  0.0358
  574loPI   PO4 9172  12.640   3.602  10.793  0.3521  0.1182 -0.1408
  574loPI   GL1 9173  12.834   3.550  10.419 -0.1328 -0.1069 -0.0395
  574loPI   GL2 9174  12.792   3.691  10.237  0.0167  0.0725  0.2175
  574loPI   C1A 9175  12.663   3.165  10.101  0.0146 -0.1833  0.2587
  574loPI   C2A 9176  12.476   3.155   9.705 -0.0421  0.1322  0.0798
  574loPI   C3A 9177  12.402   3.166   9.201  0.5408 -0.0157 -0.4362
  574loPI   C4A 9178  12.414   3.329   8.797 -0.0596  0.2898  0.0291
  574loPI   C5A 9179  12.443   3.305   8.368  0.0531 -0.0008 -0.0668
  574loPI   C6A 9180  12.719   3.444   8.011  0.4104 -0.0299 -0.1265
  574loPI   C1B 9181  12.803   3.615   9.791 -0.0942  0.0399  0.1311
  574loPI   C2B 9182  12.726   3.600   9.418  0.0487  0.0850  0.1298
  574loPI   C3B 9183  12.822   3.542   9.016  0.0595 -0.1954  0.1913
  574loPI   C4B 9184  12.960   3.380   8.582  0.1376  0.0215  0.3083
  575loPI    C1 9185   1.845  16.154  11.098 -0.0169  0.0659 -0.0799
  575loPI    C2 9186   2.103  16.394  11.286 -0.2239  0.1785  0.0651
  575loPI    C3 9187   1.911  16.108  11.490 -0.0277 -0.0703 -0.0936
  575loPI   PO4 9188   1.976  16.050  10.907  0.0640 -0.0564 -0.0598
  575loPI   GL1 9189   1.970  16.095  10.455  0.2957 -0.0411  0.0090
  575loPI   GL2 9190   1.892  15.827  10.274 -0.0324 -0.0504  0.0679
  575loPI   C1A 9191   1.646  16.224  10.136  0.3508  0.0351 -0.0819
  575loPI   C2A 9192   1.621  16.423   9.682 -0.0339  0.4165 -0.0044
  575loPI   C3A 9193   1.562  16.313   9.237  0.1522 -0.0298 -0.4017
  575loPI   C4A 9194   1.599  16.194   8.844 -0.0353 -0.1264  0.3049
  575loPI   C5A 9195   1.450  16.198   8.384  0.1115 -0.1685 -0.0009
  575loPI   C6A 9196   1.598  16.041   7.942  0.0581  0.1286  0.0740
  575loPI   C1B 9197   1.871  15.952   9.791 -0.1626 -0.2608  0.0156
  575loPI   C2B 9198   1.898  15.925   9.372 -0.0077 -0.1341  0.0206
  575loPI   C3B 9199   1.869  15.792   8.921  0.0980  0.0237 -0.0924
  575loPI   C4B 9200   1.918  15.903   8.479  0.1920 -0.0266 -0.1604
  576loPI    C1 9201  17.635  12.625  11.411 -0.0470 -0.0349  0.1274
  576loPI    C2 9202  17.378  12.901  11.544 -0.0813 -0.1494  0.3033
  576loPI    C3 9203  17.749  12.885  11.693  0.0496  0.0525  0.0086
  576loPI   PO4 9204  17.688  12.626  11.093 -0.0884  0.0310  0.1451
  576loPI   GL1 9205  17.681  12.679  10.625  0.1169  0.3239  0.1248
  576loPI   GL2 9206  17.328  12.771  10.604 -0.3249  0.2219 -0.1785
  576loPI   C1A 9207  17.728  12.862  10.170 -0.0706  0.0354 -0.1686
  576loPI   C2A 9208  17.727  12.867   9.774 -0.0516 -0.2127  0.4677
  576loPI   C3A 9209  17.694  12.903   9.335  0.0216 -0.3216  0.1350
  576loPI   C4A 9210  17.734  13.022   8.801  0.1287  0.0319  0.0505
  576loPI   C5A 9211  17.669  13.100   8.317 -0.0459 -0.0682  0.0644
  576loPI   C6A 9212  17.893  13.052   7.851 -0.1183 -0.2466  0.1102
  576loPI   C1B 9213  17.217  12.777  10.181 -0.0254  0.1490 -0.0547
  576loPI   C2B 9214  17.187  12.686   9.801  0.1605  0.0684 -0.1190
  576loPI   C3B 9215  17.203  12.872   9.281  0.1218 -0.1229  0.2622
  576loPI   C4B 9216  17.203  12.927   8.889 -0.5680 -0.1985 -0.1010
  577loPI    C1 9217   5.552   3.182  11.197  0.0335  0.0506  0.3472
  577loPI    C2 9218   5.261   3.444  11.283 -0.0393  0.0241  0.1838
  577loPI    C3 9219   5.631   3.574  11.205 -0.0152  0.0603  0.3555
  577loPI   PO4 9220   5.497   3.087  10.985  0.0216  0.1497  0.1072
  577loPI   GL1 9221   5.680   3.124  10.531 -0.0127 -0.0120  0.2051
  577loPI   GL2 9222   5.411   3.051  10.458  0.1909  0.1315  0.0847
  577loPI   C1A 9223   5.940   3.094  10.140  0.1430 -0.0957 -0.1703
  577loPI   C2A 9224   5.887   3.084   9.661 -0.0492 -0.3769 -0.2111
  577loPI   C3A 9225   6.004   3.010   9.224 -0.1212  0.0444 -0.2542
  577loPI   C4A 9226   6.009   2.942   8.798 -0.4339  0.0327  0.0606
  577loPI   C5A 9227   5.884   2.555   8.571  0.1678 -0.0162  0.4415
  577loPI   C6A 9228   6.078   2.176   8.286 -0.0522 -0.0127  0.0791
  577loPI   C1B 9229   5.340   2.900  10.069 -0.1806 -0.0051 -0.0087
  577loPI   C2B 9230   5.393   3.029   9.691 -0.0432  0.0489  0.1425
  577loPI   C3B 9231   5.465   2.959   9.301 -0.0036  0.0266  0.0775
  577loPI   C4B 9232   5.498   3.039   8.916 -0.4501  0.1642 -0.2694
  578loPI    C1 9233  11.571  10.191  10.833  0.1853 -0.1396 -0.2108
  578loPI    C2 9234  11.739   9.952  11.105 -0.0504 -0.2106 -0.1249
  578loPI    C3 9235  11.754  10.349  11.152 -0.1063 -0.2230  0.0019
  578loPI   PO4 9236  11.577  10.024  10.574 -0.3096 -0.0274  0.2095
  578loPI   GL1 9237  11.716  10.197  10.228 -0.1571  0.1285 -0.1808
  578loPI   GL2 9238  12.030  10.227  10.162  0.1054  0.1269 -0.1218
  578loPI   C1A 9239  11.282  10.295  10.011  0.0412 -0.2854 -0.0279
  578loPI   C2A 9240  11.287  10.279   9.566 -0.5143 -0.2534 -0.1793
  578loPI   C3A 9241  11.366  10.295   9.163  0.0511  0.0583  0.4828
  578loPI   C4A 9242  11.281  10.202   8.761  0.2006  0.0753  0.1170
  578loPI   C5A 9243  11.350   9.977   8.445  0.5573  0.1224 -0.0167
  578loPI   C6A 9244  11.104   9.598   8.304  0.1872 -0.1508  0.1501
  578loPI   C1B 9245  11.754  10.358   9.772  0.0611 -0.0664  0.1591
  578loPI   C2B 9246  11.824  10.380   9.400 -0.2923 -0.0440  0.1507
  578loPI   C3B 9247  11.872  10.206   8.969 -0.1172 -0.2605 -0.0935
  578loPI   C4B 9248  11.793  10.148   8.550  0.0306  0.2397  0.0401
  579loPI    C1 9249   7.380  11.256  11.439 -0.0654 -0.0885  0.0104
  579loPI    C2 9250   7.144  11.023  11.214 -0.0516 -0.1587  0.0682
  579loPI    C3 9251   6.986  11.324  11.425 -0.0732 -0.1325  0.0147
  579loPI   PO4 9252   7.616  11.216  11.276  0.1496 -0.1255 -0.0883
  579loPI   GL1 9253   7.680  11.226  10.841 -0.1585 -0.2067 -0.1143
  579loPI   GL2 9254   7.340  11.138  10.678 -0.0423 -0.1166 -0.0290
  579loPI   C1A 9255   7.812  11.250  10.401  0.2816 -0.0361 -0.0289
  579loPI   C2A 9256   7.723  11.334   9.993 -0.1288 -0.0431  0.0571
  579loPI   C3A 9257   7.870  11.387   9.581  0.0175 -0.2232 -0.1008
  579loPI   C4A 9258   7.861  11.311   9.106 -0.3334 -0.0604  0.1355
  579loPI   C5A 9259   7.735  11.467   8.717  0.1876 -0.2343  0.1215
  579loPI   C6A 9260   7.782  11.538   8.384 -0.3369 -0.1535  0.0857
  579loPI   C1B 9261   7.296  11.220  10.237  0.0598  0.1799 -0.1183
  579loPI   C2B 9262   7.243  11.340   9.740  0.0507 -0.5206  0.1933
  579loPI   C3B 9263   7.273  11.343   9.298 -0.1858 -0.2410  0.0994
  579loPI   C4B 9264   7.152  11.375   8.844 -0.1280 -0.1142 -0.0269
  580loPI    C1 9265  17.477   8.011  10.251  0.0648  0.2491  0.0363
  580loPI    C2 9266  17.247   7.777  10.480  0.0461  0.2767  0.0458
  580loPI    C3 9267  17.547   7.985  10.644  0.3140 -0.0460 -0.0238
  580loPI   PO4 9268  17.339   8.200  10.082  0.0789  0.5108 -0.0036
  580loPI   GL1 9269  17.108   8.169   9.736  0.2444 -0.2072 -0.0572
  580loPI   GL2 9270  17.277   8.018   9.561 -0.0039  0.0179  0.1334
  580loPI   C1A 9271  16.903   8.142   9.299 -0.1958 -0.0383  0.0655
  580loPI   C2A 9272  17.020   8.153   8.814  0.0707 -0.1343 -0.1561
  580loPI   C3A 9273  16.714   8.057   8.473  0.1413 -0.1731  0.0829
  580loPI   C4A 9274  16.548   7.964   8.041  0.0341  0.2995  0.1590
  580loPI   C5A 9275  16.586   7.766   7.701  0.2840 -0.0850  0.1625
  580loPI   C6A 9276  16.552   7.448   7.528 -0.0912  0.0981 -0.0052
  580loPI   C1B 9277  17.385   8.294   9.222  0.1531 -0.0314  0.0269
  580loPI   C2B 9278  17.476   8.423   8.784 -0.3599  0.0576 -0.2548
  580loPI   C3B 9279  17.609   8.693   8.548 -0.1326 -0.0891  0.0871
  580loPI   C4B 9280  17.718   8.834   8.112 -0.1138  0.1382  0.2877
  581loPI    C1 9281   2.584  14.258  11.248 -0.0063 -0.0175  0.0345
  581loPI    C2 9282   2.431  14.334  11.610 -0.1086 -0.1011  0.0094
  581loPI    C3 9283   2.788  14.156  11.577 -0.0233  0.0570  0.0684
  581loPI   PO4 9284   2.362  14.236  11.121 -0.2680  0.1046  0.0296
  581loPI   GL1 9285   2.385  14.147  10.665  0.4038  0.1537 -0.0848
  581loPI   GL2 9286   2.123  14.131  10.457 -0.1325  0.2125  0.0268
  581loPI   C1A 9287   2.630  14.114  10.265  0.0614 -0.0581 -0.1288
  581loPI   C2A 9288   2.634  14.128   9.774  0.2442  0.0342  0.1659
  581loPI   C3A 9289   2.618  14.076   9.342 -0.2057 -0.0267 -0.1827
  581loPI   C4A 9290   2.653  14.207   8.951  0.0248  0.0344 -0.1162
  581loPI   C5A 9291   2.686  14.349   8.543  0.0181 -0.1081  0.0790
  581loPI   C6A 9292   2.886  14.714   8.411 -0.0718 -0.2435 -0.2508
  581loPI   C1B 9293   2.114  14.083  10.028 -0.0128 -0.1937 -0.1369
  581loPI   C2B 9294   2.046  14.146   9.492 -0.1327 -0.3509  0.0593
  581loPI   C3B 9295   2.079  14.074   9.032 -0.1297 -0.0939 -0.2674
  581loPI   C4B 9296   2.212  14.076   8.580 -0.1937  0.0615  0.3370
  582loPI    C1 9297   5.539   7.413  11.164  0.0449  0.3578  0.0781
  582loPI    C2 9298   5.414   7.623  11.480  0.2711  0.2223  0.2604
  582loPI    C3 9299   5.718   7.366  11.518  0.2914  0.1940 -0.0652
  582loPI   PO4 9300   5.593   7.587  11.033  0.0969  0.2561  0.3831
  582loPI   GL1 9301   5.594   7.725  10.597  0.2306 -0.2100 -0.4130
  582loPI   GL2 9302   5.778   7.629  10.411 -0.0320  0.0746  0.2863
  582loPI   C1A 9303   5.319   7.889  10.304 -0.1921 -0.2653 -0.2112
  582loPI   C2A 9304   5.218   7.915   9.870 -0.1641  0.3943  0.0866
  582loPI   C3A 9305   5.287   7.982   9.323 -0.1264 -0.0802 -0.2409
  582loPI   C4A 9306   5.296   8.064   8.974  0.1417 -0.4493 -0.0709
  582loPI   C5A 9307   5.316   8.090   8.522 -0.0317 -0.1848 -0.0520
  582loPI   C6A 9308   5.396   8.405   8.184  0.2180  0.0084 -0.2227
  582loPI   C1B 9309   6.008   7.641  10.022 -0.0045  0.3520  0.4083
  582loPI   C2B 9310   6.098   7.561   9.561 -0.0486  0.0675 -0.0517
  582loPI   C3B 9311   6.049   7.682   9.157 -0.4039  0.1765 -0.3105
  582loPI   C4B 9312   6.135   7.698   8.729  0.0358  0.0755 -0.1994
  583loPI    C1 9313  15.660   2.368   9.947 -0.1528  0.1161 -0.1357
  583loPI    C2 9314  15.583   2.012   9.782 -0.2907  0.0814  0.0016
  583loPI    C3 9315  15.731   2.033  10.153  0.0603  0.1581 -0.1390
  583loPI   PO4 9316  15.823   2.488   9.811  0.1193  0.2149 -0.0130
  583loPI   GL1 9317  16.085   2.427   9.463 -0.0592 -0.1802 -0.2595
  583loPI   GL2 9318  15.740   2.326   9.336 -0.3614 -0.1371  0.2257
  583loPI   C1A 9319  16.136   2.392   9.061 -0.3241  0.1260 -0.2075
  583loPI   C2A 9320  16.014   2.236   8.667  0.2127 -0.0153  0.3360
  583loPI   C3A 9321  15.972   1.896   8.284 -0.0284 -0.2118  0.0136
  583loPI   C4A 9322  15.831   1.633   8.015 -0.0489 -0.0560  0.1565
  583loPI   C5A 9323  15.720   1.346   7.701  0.0607  0.0900  0.0562
  583loPI   C6A 9324  15.338   1.182   7.581 -0.0488 -0.0526  0.1911
  583loPI   C1B 9325  15.679   2.200   8.986  0.1173  0.2052 -0.1109
  583loPI   C2B 9326  15.551   2.031   8.578 -0.3310  0.0114 -0.3410
  583loPI   C3B 9327  15.424   1.863   8.166 -0.2116 -0.0474  0.2281
  583loPI   C4B 9328  15.133   1.685   7.914 -0.1998  0.0683 -0.0652
  584loPI    C1 9329   6.403  11.550  11.404 -0.3490  0.1509  0.2367
  584loPI    C2 9330   6.615  11.564  11.743 -0.0920  0.1388  0.0786
  584loPI    C3 9331   6.328  11.835  11.675 -0.2080  0.0856  0.3452
  584loPI   PO4 9332   6.564  11.477  11.194  0.0793  0.0681  0.0604
  584loPI   GL1 9333   6.513  11.505  10.696  0.1020  0.1429  0.0748
  584loPI   GL2 9334   6.422  11.802  10.595  0.1710  0.0873  0.3916
  584loPI   C1A 9335   6.633  11.232  10.361 -0.3187 -0.1985  0.0520
  584loPI   C2A 9336   6.762  11.183   9.906  0.2162  0.0634  0.2419
  584loPI   C3A 9337   6.756  11.195   9.459  0.2098  0.1080  0.2311
  584loPI   C4A 9338   6.748  11.209   9.014 -0.0847 -0.0637  0.2213
  584loPI   C5A 9339   6.716  11.298   8.568 -0.2448 -0.1564 -0.0587
  584loPI   C6A 9340   6.650  11.370   8.046  0.0648  0.2242 -0.0147
  584loPI   C1B 9341   6.479  11.641  10.178 -0.3285 -0.1666 -0.2216
  584loPI   C2B 9342   6.498  11.618   9.748 -0.0842 -0.3010  0.1767
  584loPI   C3B 9343   6.439  11.657   9.345  0.0346  0.0854 -0.3666
  584loPI   C4B 9344   6.419  11.661   8.856  0.0268 -0.0309  0.1217
  585loPI    C1 9345   4.462   9.913  11.569  0.2097 -0.1903 -0.0084
  585loPI    C2 9346   4.768   9.846  11.817  0.1120 -0.1266  0.1312
  585loPI    C3 9347   4.426   9.643  11.862  0.0086  0.0626  0.2051
  585loPI   PO4 9348   4.526   9.929  11.279  0.1466  0.0593  0.1297
  585loPI   GL1 9349   4.663  10.287  11.144  0.0808  0.2206 -0.1576
  585loPI   GL2 9350   4.870  10.377  10.842 -0.2170  0.1861 -0.2133
  585loPI   C1A 9351   4.384  10.491  10.738  0.0420  0.0662  0.1610
  585loPI   C2A 9352   4.500  10.504  10.282 -0.3046  0.1988 -0.0119
  585loPI   C3A 9353   4.466  10.490   9.857 -0.1299  0.1837  0.1452
  585loPI   C4A 9354   4.415  10.690   9.427  0.0975 -0.0336  0.3729
  585loPI   C5A 9355   4.341  10.763   8.928 -0.0164  0.2733 -0.2023
  585loPI   C6A 9356   4.611  10.689   8.531 -0.1123 -0.0758 -0.1091
  585loPI   C1B 9357   5.120  10.178  10.479  0.1735 -0.1065  0.1801
  585loPI   C2B 9358   5.222  10.251  10.010 -0.0442  0.1454 -0.0387
  585loPI   C3B 9359   5.226  10.213   9.554  0.1525 -0.1105 -0.1299
  585loPI   C4B 9360   5.327  10.271   9.197  0.0160  0.2606 -0.1118
  586loPI    C1 9361   2.128  14.674  11.203 -0.2033  0.1084  0.1443
  586loPI    C2 9362   1.787  14.616  11.403 -0.2265  0.3086  0.1644
  586loPI    C3 9363   2.125  14.691  11.603 -0.0808 -0.3061  0.1678
  586loPI   PO4 9364   2.087  14.758  10.997 -0.1093  0.1718 -0.0908
  586loPI   GL1 9365   2.166  14.604  10.549  0.0915  0.0863  0.0690
  586loPI   GL2 9366   1.814  14.604  10.569 -0.0216 -0.0020  0.0625
  586loPI   C1A 9367   2.356  14.528  10.194  0.5555  0.0052  0.0938
  586loPI   C2A 9368   2.274  14.474   9.743 -0.0575 -0.2617 -0.0221
  586loPI   C3A 9369   2.395  14.584   9.371  0.0899 -0.0061 -0.1129
  586loPI   C4A 9370   2.337  14.575   8.938 -0.2455 -0.1299 -0.1560
  586loPI   C5A 9371   2.277  14.597   8.455 -0.1654  0.1086  0.0429
  586loPI   C6A 9372   2.295  14.326   8.143 -0.0910  0.0717  0.1528
  586loPI   C1B 9373   1.777  14.488  10.211 -0.2648 -0.2802  0.4227
  586loPI   C2B 9374   1.765  14.469   9.820  0.1624  0.2351  0.0907
  586loPI   C3B 9375   1.798  14.582   9.488  0.2643 -0.0460  0.0133
  586loPI   C4B 9376   1.768  14.496   9.059  0.2420  0.0857 -0.0073
  587loPI    C1 9377   6.182   8.766  11.108 -0.0087  0.0542 -0.0946
  587loPI    C2 9378   5.976   9.099  11.027 -0.1991 -0.0553 -0.0677
  587loPI    C3 9379   5.858   8.858  11.323  0.1114  0.0051  0.1103
  587loPI   PO4 9380   6.409   8.792  10.998 -0.3064  0.2490 -0.0302
  587loPI   GL1 9381   6.742   8.852  10.886  0.0658 -0.2546  0.3247
  587loPI   GL2 9382   6.839   9.155  10.778  0.0782  0.0087  0.0275
  587loPI   C1A 9383   6.634   8.887  10.370 -0.0424  0.0022 -0.0983
  587loPI   C2A 9384   6.635   9.060   9.859  0.2095 -0.1368  0.1279
  587loPI   C3A 9385   6.762   9.087   9.495 -0.3064  0.1427  0.1405
  587loPI   C4A 9386   6.768   9.003   9.014 -0.3773 -0.1972  0.1674
  587loPI   C5A 9387   6.773   8.935   8.519 -0.2844 -0.2148 -0.1512
  587loPI   C6A 9388   6.587   8.560   8.270  0.2055 -0.2748 -0.0234
  587loPI   C1B 9389   7.098   8.945  10.464 -0.3047  0.0287  0.1742
  587loPI   C2B 9390   7.126   9.017  10.037  0.0940  0.0578  0.0910
  587loPI   C3B 9391   7.255   9.019   9.631 -0.0076 -0.1560  0.1105
  587loPI   C4B 9392   7.235   9.095   9.193  0.0708  0.0749 -0.0965
  588loPI    C1 9393   2.863   3.964  10.426 -0.1126  0.1032  0.0736
  588loPI    C2 9394   2.808   3.758  10.764 -0.3973 -0.0286 -0.0498
  588loPI    C3 9395   2.871   4.153  10.779  0.1899 -0.1208  0.1910
  588loPI   PO4 9396   2.711   3.821  10.214  0.0533 -0.0889 -0.0710
  588loPI   GL1 9397   2.994   3.589   9.863  0.0397 -0.0218 -0.1330
  588loPI   GL2 9398   3.004   3.352   9.712  0.3170 -0.0542  0.1142
  588loPI   C1A 9399   3.181   3.756   9.515  0.2585  0.1950 -0.0310
  588loPI   C2A 9400   3.289   3.664   9.128 -0.0305 -0.4364 -0.0722
  588loPI   C3A 9401   3.398   3.843   8.842 -0.2045 -0.0643  0.0033
  588loPI   C4A 9402   3.254   3.899   8.374  0.1007  0.0327 -0.2295
  588loPI   C5A 9403   2.978   3.987   7.993  0.1113 -0.0565  0.2642
  588loPI   C6A 9404   3.080   4.307   7.742 -0.0678  0.0704 -0.0959
  588loPI   C1B 9405   2.998   3.239   9.315 -0.1275 -0.0298 -0.3606
  588loPI   C2B 9406   3.032   3.242   8.884 -0.0977  0.2671  0.2967
  588loPI   C3B 9407   3.113   3.415   8.481 -0.0614  0.2214 -0.0618
  588loPI   C4B 9408   3.115   3.459   8.090 -0.0464  0.3000 -0.0512
  589loPI    C1 9409   4.503  17.763  10.721  0.1509 -0.1574 -0.1180
  589loPI    C2 9410   4.709  17.644  11.043 -0.0637 -0.0256  0.0706
  589loPI    C3 9411   4.344  17.804  11.086 -0.0253  0.1495 -0.2252
  589loPI   PO4 9412   4.531  17.628  10.558  0.4658  0.0136 -0.1614
  589loPI   GL1 9413   4.734  17.471  10.297  0.0868  0.3984  0.0467
  589loPI   GL2 9414   4.881  17.281  10.594  0.3390 -0.1307  0.2147
  589loPI   C1A 9415   4.607  17.393   9.864  0.3201  0.1178 -0.2398
  589loPI   C2A 9416   4.658  17.388   9.371  0.1490 -0.0882  0.2403
  589loPI   C3A 9417   4.719  17.438   9.008 -0.4718 -0.3678  0.1124
  589loPI   C4A 9418   4.730  17.461   8.624 -0.1955 -0.2352 -0.0608
  589loPI   C5A 9419   4.630  17.649   8.285  0.3180  0.0583 -0.0856
  589loPI   C6A 9420   4.628  18.010   8.013 -0.0414 -0.0029  0.0882
  589loPI   C1B 9421   5.061  17.100  10.125 -0.1105 -0.4555  0.1575
  589loPI   C2B 9422   4.954  17.031   9.711 -0.0574 -0.1407  0.1249
  589loPI   C3B 9423   4.981  16.990   9.319  0.0662  0.1501  0.5443
  589loPI   C4B 9424   5.079  17.061   8.894  0.1309  0.0039  0.0821
  590loPI    C1 9425  10.304   2.047  11.016 -0.0422 -0.0413  0.0532
  590loPI    C2 9426  10.082   2.378  11.043  0.0206  0.0061 -0.0062
  590loPI    C3 9427   9.952   2.036  11.204 -0.0779  0.0423 -0.0082
  590loPI   PO4 9428  10.343   1.976  10.687  0.1049 -0.0631 -0.0602
  590loPI   GL1 9429  10.536   2.141  10.323  0.1894 -0.1940  0.0084
  590loPI   GL2 9430  10.542   1.941  10.136 -0.2872  0.0018  0.2013
  590loPI   C1A 9431  10.341   2.387  10.077  0.2870  0.0689 -0.1173
  590loPI   C2A 9432  10.232   2.422   9.615  0.0356 -0.1650  0.1620
  590loPI   C3A 9433  10.307   2.339   9.170  0.4039  0.0305  0.1076
  590loPI   C4A 9434  10.260   2.393   8.777  0.2671  0.3450  0.0352
  590loPI   C5A 9435  10.319   2.560   8.376  0.0445  0.2102  0.1567
  590loPI   C6A 9436  10.546   2.515   8.125  0.2422 -0.0418 -0.1326
  590loPI   C1B 9437  10.557   2.052   9.693 -0.1402  0.0409 -0.2106
  590loPI   C2B 9438  10.568   1.933   9.203  0.1762 -0.0538 -0.2123
  590loPI   C3B 9439  10.602   1.840   8.772 -0.0248  0.1041  0.1291
  590loPI   C4B 9440  10.505   2.020   8.377 -0.0761  0.4766  0.3301
  591POPI    C1 9441  12.537  14.775  10.789 -0.1140 -0.1982 -0.1254
  591POPI    C2 9442  12.754  14.940  11.082 -0.3504  0.0725 -0.0982
  591POPI    C3 9443  12.431  14.722  11.171 -0.2908 -0.0383 -0.1508
  591POPI   PO4 9444  12.412  14.987  10.646  0.0168 -0.2149  0.4158
  591POPI   GL1 9445  12.410  15.104  10.277 -0.2355  0.0272 -0.1172
  591POPI   GL2 9446  12.636  14.819  10.134  0.2068  0.1401 -0.0203
  591POPI   C1A 9447  12.330  15.243   9.885 -0.1705 -0.0609  0.1784
  591POPI   D2A 9448  12.299  15.208   9.531  0.0558  0.0448 -0.3127
  591POPI   C3A 9449  12.226  15.264   9.081 -0.0049 -0.3449  0.3664
  591POPI   C4A 9450  12.241  15.432   8.643 -0.3164 -0.1171  0.1565
  591POPI   C1B 9451  12.602  14.716   9.715 -0.1741  0.0475  0.1742
  591POPI   C2B 9452  12.530  14.828   9.263  0.2359  0.0626 -0.2240
  591POPI   C3B 9453  12.663  14.822   8.877 -0.0017 -0.0221  0.0167
  591POPI   C4B 9454  12.394  14.688   8.529 -0.3725  0.0010  0.0971
  592POPI    C1 9455   5.507  15.507  11.140 -0.1411  0.0564  0.1124
  592POPI    C2 9456   5.564  15.226  11.419  0.1677  0.0511  0.0480
  592POPI    C3 9457   5.847  15.500  11.351 -0.0413  0.2493 -0.0389
  592POPI   PO4 9458   5.441  15.368  10.886 -0.1225 -0.3040  0.1518
  592POPI   GL1 9459   5.614  15.106  10.544  0.2414 -0.2919 -0.0092
  592POPI   GL2 9460   5.741  15.333  10.427  0.0227 -0.0289  0.0390
  592POPI   C1A 9461   5.251  15.309  10.255 -0.0301 -0.0038  0.1475
  592POPI   D2A 9462   5.136  15.288   9.871  0.0695  0.0975  0.1004
  592POPI   C3A 9463   5.079  15.274   9.382 -0.4262  0.0292  0.0625
  592POPI   C4A 9464   5.263  15.235   9.050 -0.2251 -0.3238 -0.2823
  592POPI   C1B 9465   5.649  15.272   9.932  0.0111 -0.1294 -0.0746
  592POPI   C2B 9466   5.695  15.250   9.441  0.1492 -0.1070 -0.1499
  592POPI   C3B 9467   5.769  15.257   8.976  0.2783 -0.0184  0.3198
  592POPI   C4B 9468   5.870  15.426   8.524 -0.1222 -0.1065  0.0304
  593POPI    C1 9469  14.879  12.380  10.971  0.2816 -0.0080 -0.2071
  593POPI    C2 9470  14.895  12.014  10.812  0.1143 -0.0666 -0.0930
  593POPI    C3 9471  15.223  12.176  10.975  0.1778 -0.1827 -0.1041
  593POPI   PO4 9472  14.580  12.418  10.919 -0.3118 -0.1196  0.2932
  593POPI   GL1 9473  14.574  12.632  10.526 -0.1880 -0.0830 -0.4241
  593POPI   GL2 9474  14.643  12.231  10.469 -0.1923  0.0876  0.2109
  593POPI   C1A 9475  14.514  12.517  10.081  0.0915 -0.1290 -0.2865
  593POPI   D2A 9476  14.642  12.591   9.665  0.2778 -0.2220 -0.1041
  593POPI   C3A 9477  14.587  12.524   9.285  0.2348  0.5207  0.0390
  593POPI   C4A 9478  14.432  12.715   8.869 -0.0264 -0.2111  0.0021
  593POPI   C1B 9479  14.771  12.116  10.028  0.6440  0.0762 -0.1034
  593POPI   C2B 9480  14.861  12.159   9.575  0.0153  0.2507  0.0432
  593POPI   C3B 9481  14.854  12.129   9.088  0.1251 -0.1706 -0.1038
  593POPI   C4B 9482  14.757  12.311   8.740  0.0549  0.0818  0.0570
  594POPI    C1 9483  16.320   7.202  10.207  0.1259  0.4648 -0.0905
  594POPI    C2 9484  16.610   7.112  10.468  0.0614 -0.1087 -0.2033
  594POPI    C3 9485  16.277   7.295  10.593  0.0627 -0.3102  0.1040
  594POPI   PO4 9486  16.357   7.334  10.042 -0.1930 -0.0497 -0.0510
  594POPI   GL1 9487  16.022   7.415   9.761  0.0708 -0.1087 -0.1183
  594POPI   GL2 9488  15.783   7.483   9.702 -0.1093  0.3145 -0.3145
  594POPI   C1A 9489  16.166   7.448   9.282 -0.3752 -0.0203  0.1555
  594POPI   D2A 9490  16.247   7.427   8.874 -0.1922 -0.2257 -0.0243
  594POPI   C3A 9491  16.234   7.548   8.462  0.1195 -0.1537 -0.2687
  594POPI   C4A 9492  16.298   7.483   7.989 -0.2738 -0.0099 -0.3238
  594POPI   C1B 9493  15.694   7.625   9.329  0.2592  0.1013  0.0323
  594POPI   C2B 9494  15.737   7.431   8.946 -0.0214  0.1863 -0.0843
  594POPI   C3B 9495  15.665   7.435   8.569  0.0355  0.2980 -0.0148
  594POPI   C4B 9496  15.798   7.381   8.123  0.0255  0.2047 -0.0661
  595POPI    C1 9497   0.173   2.603  10.324  0.3499 -0.0806  0.1527
  595POPI    C2 9498   0.068   2.324  10.591 -0.1635 -0.0058  0.0395
  595POPI    C3 9499   0.228   2.669  10.714  0.1340 -0.1987  0.2048
  595POPI   PO4 9500   0.198   2.385  10.080  0.0867 -0.0202  0.2227
  595POPI   GL1 9501  -0.045   2.126   9.819  0.0389  0.1807 -0.1879
  595POPI   GL2 9502  -0.132   2.466   9.641  0.0909  0.0742  0.0346
  595POPI   C1A 9503   0.211   1.812   9.527  0.0720  0.3330 -0.1590
  595POPI   D2A 9504   0.294   1.628   9.128  0.0134  0.1638 -0.1439
  595POPI   C3A 9505   0.365   1.594   8.655 -0.0809  0.0023 -0.1375
  595POPI   C4A 9506   0.435   1.627   8.243 -0.0179  0.1617 -0.0714
  595POPI   C1B 9507  -0.166   2.298   9.286  0.0422  0.1380  0.2075
  595POPI   C2B 9508  -0.132   1.993   9.061 -0.2100  0.1419  0.2391
  595POPI   C3B 9509  -0.059   1.840   8.606 -0.1089  0.0308  0.2992
  595POPI   C4B 9510  -0.061   1.697   8.257  0.0855  0.0516  0.0026
  596POPI    C1 9511  14.993   5.691  10.336 -0.2129 -0.0403  0.0667
  596POPI    C2 9512  15.342   5.495  10.348 -0.0541  0.2442  0.2319
  596POPI    C3 9513  15.038   5.378  10.580 -0.0033  0.1171  0.2350
  596POPI   PO4 9514  14.937   5.749  10.089 -0.3531 -0.2950 -0.1055
  596POPI   GL1 9515  14.981   5.570   9.702 -0.0583  0.1812  0.0623
  596POPI   GL2 9516  15.249   5.648   9.467  0.2314  0.4448  0.1580
  596POPI   C1A 9517  14.814   5.485   9.228  0.0070  0.3414 -0.0988
  596POPI   D2A 9518  14.824   5.542   8.755 -0.4496 -0.3294 -0.2404
  596POPI   C3A 9519  14.667   5.166   8.567 -0.1320  0.2236  0.3251
  596POPI   C4A 9520  14.546   4.741   8.681  0.2925  0.0226  0.0638
  596POPI   C1B 9521  15.299   5.391   9.089  0.1320 -0.2541 -0.0793
  596POPI   C2B 9522  15.263   5.372   8.637 -0.5583 -0.0709  0.1695
  596POPI   C3B 9523  15.177   5.468   8.275 -0.1139  0.1686 -0.0196
  596POPI   C4B 9524  15.109   5.481   7.787 -0.1718 -0.0957 -0.3732
  597POPI    C1 9525  15.263   6.045   9.751  0.1902  0.1724  0.0093
  597POPI    C2 9526  15.276   6.054  10.151 -0.0372  0.2621  0.0161
  597POPI    C3 9527  15.432   5.744   9.953 -0.0897  0.1280  0.1832
  597POPI   PO4 9528  15.268   6.201   9.626 -0.2652  0.0844 -0.2141
  597POPI   GL1 9529  15.244   6.661   9.527 -0.0125 -0.1121 -0.3455
  597POPI   GL2 9530  15.032   6.886   9.507  0.0970  0.1456  0.1491
  597POPI   C1A 9531  15.196   6.483   9.015 -0.0432  0.1834 -0.0972
  597POPI   D2A 9532  15.002   6.715   8.667  0.3906  0.2140 -0.1779
  597POPI   C3A 9533  14.954   6.994   8.403  0.1499  0.0129 -0.2015
  597POPI   C4A 9534  14.803   7.014   8.010  0.3565 -0.2123 -0.2367
  597POPI   C1B 9535  14.817   6.900   9.186  0.1737 -0.0967 -0.0769
  597POPI   C2B 9536  14.636   7.112   8.840  0.1005 -0.0401  0.0179
  597POPI   C3B 9537  14.431   6.990   8.577  0.0763 -0.0161 -0.1451
  597POPI   C4B 9538  14.295   6.969   8.144 -0.0542 -0.1236  0.0880
  598POPI    C1 9539  13.693   3.881  10.150 -0.0106 -0.2512  0.2919
  598POPI    C2 9540  13.680   4.178  10.417 -0.1641 -0.0155  0.0282
  598POPI    C3 9541  13.346   4.063  10.231 -0.0839 -0.2752  0.0412
  598POPI   PO4 9542  13.927   3.935  10.053  0.2079  0.1845 -0.0433
  598POPI   GL1 9543  14.150   3.864   9.714  0.1437 -0.4762 -0.2907
  598POPI   GL2 9544  14.335   4.080   9.668  0.2502 -0.2109  0.1472
  598POPI   C1A 9545  14.212   3.834   9.291 -0.1325 -0.0632  0.1961
  598POPI   D2A 9546  14.295   3.884   8.838  0.1893  0.1014  0.0691
  598POPI   C3A 9547  14.192   3.614   8.501 -0.2952  0.1565  0.0755
  598POPI   C4A 9548  14.268   3.595   8.074  0.0193 -0.0583 -0.1425
  598POPI   C1B 9549  14.390   4.510   9.432 -0.0259 -0.2272  0.3562
  598POPI   C2B 9550  14.451   4.359   8.961  0.0820 -0.1065  0.0879
  598POPI   C3B 9551  14.414   4.264   8.554 -0.0876  0.0040  0.0468
  598POPI   C4B 9552  14.438   4.217   8.168  0.0960  0.0683 -0.0575
  599POPI    C1 9553  15.942   5.751   9.658  0.0147  0.0811  0.1440
  599POPI    C2 9554  16.079   5.901  10.003  0.0026 -0.0505  0.2068
  599POPI    C3 9555  15.896   5.545   9.998 -0.2914  0.0985  0.1160
  599POPI   PO4 9556  15.733   5.889   9.565  0.1788 -0.4797  0.0722
  599POPI   GL1 9557  15.589   5.953   9.229 -0.1822 -0.0020  0.0637
  599POPI   GL2 9558  15.596   6.157   9.197  0.0083 -0.4956  0.1555
  599POPI   C1A 9559  15.568   5.783   8.796  0.0179 -0.3008 -0.0672
  599POPI   D2A 9560  15.625   5.850   8.446  0.3150  0.1427  0.3542
  599POPI   C3A 9561  15.601   5.680   8.054 -0.0964 -0.1681 -0.1064
  599POPI   C4A 9562  15.596   5.341   7.725 -0.0521  0.0262  0.0538
  599POPI   C1B 9563  15.568   6.263   8.738 -0.3652  0.1557 -0.0810
  599POPI   C2B 9564  15.436   6.425   8.453  0.1462  0.2549  0.0759
  599POPI   C3B 9565  15.247   6.561   8.132  0.1182  0.2640  0.1204
  599POPI   C4B 9566  15.087   6.783   7.702 -0.2428  0.2411 -0.1197
  600POPI    C1 9567   4.228   1.109  10.639 -0.0267  0.0466  0.0887
  600POPI    C2 9568   4.031   1.037  10.979  0.0590 -0.2230  0.0832
  600POPI    C3 9569   4.428   0.994  10.966  0.0599 -0.1782 -0.0413
  600POPI   PO4 9570   4.069   1.043  10.497  0.1405  0.0031 -0.0757
  600POPI   GL1 9571   3.898   0.956  10.097 -0.0915 -0.3262 -0.1145
  600POPI   GL2 9572   3.668   0.757  10.280 -0.4908  0.2079  0.0764
  600POPI   C1A 9573   3.907   0.966   9.722 -0.3171 -0.1584 -0.1686
  600POPI   D2A 9574   3.898   0.987   9.363 -0.0534  0.0475  0.1160
  600POPI   C3A 9575   4.049   0.991   8.957  0.0925 -0.1900  0.4229
  600POPI   C4A 9576   4.102   1.179   8.454  0.1200 -0.0338  0.3629
  600POPI   C1B 9577   3.761   0.484   9.894 -0.2969  0.3025 -0.0175
  600POPI   C2B 9578   3.678   0.521   9.510 -0.2181 -0.1161  0.1639
  600POPI   C3B 9579   3.770   0.549   9.027 -0.1114 -0.0521 -0.0716
  600POPI   C4B 9580   3.752   0.445   8.513 -0.1064  0.2075  0.4583
  601POPI    C1 9581  10.623   2.448  11.155  0.1052 -0.1138 -0.0927
  601POPI    C2 9582  10.734   2.096  11.310  0.0931  0.0082  0.1979
  601POPI    C3 9583  10.455   2.317  11.494 -0.1255  0.0281 -0.1498
  601POPI   PO4 9584  10.539   2.467  10.903  0.0341  0.0767 -0.0004
  601POPI   GL1 9585  10.643   2.634  10.516  0.0266  0.1150  0.2443
  601POPI   GL2 9586  10.808   2.591  10.295  0.1401  0.0919 -0.1497
  601POPI   C1A 9587  10.501   2.895  10.146 -0.0525  0.0242 -0.0385
  601POPI   D2A 9588  10.401   2.968   9.741 -0.2538  0.0546 -0.2297
  601POPI   C3A 9589  10.372   2.872   9.305  0.0552 -0.0082  0.0790
  601POPI   C4A 9590  10.567   2.836   8.906 -0.0873 -0.1523 -0.0602
  601POPI   C1B 9591  10.766   2.573   9.819  0.0073 -0.0313  0.2649
  601POPI   C2B 9592  10.798   2.444   9.420  0.2732 -0.0517 -0.0757
  601POPI   C3B 9593  10.793   2.381   9.034 -0.0397  0.0669  0.1694
  601POPI   C4B 9594  10.722   2.337   8.666  0.0454 -0.0443 -0.0326
  602POPI    C1 9595  12.037   9.222  10.885 -0.0778 -0.0288 -0.0780
  602POPI    C2 9596  11.708   9.236  11.113 -0.0924  0.0339 -0.1027
  602POPI    C3 9597  11.982   9.526  11.139 -0.0200 -0.0384 -0.0540
  602POPI   PO4 9598  11.856   9.048  10.667  0.0874  0.1684 -0.1367
  602POPI   GL1 9599  11.849   9.275  10.249  0.0008  0.0377 -0.0755
  602POPI   GL2 9600  11.445   9.217  10.226 -0.1020  0.3976 -0.4596
  602POPI   C1A 9601  12.001   9.321   9.822  0.0598 -0.1252 -0.2361
  602POPI   D2A 9602  11.930   9.313   9.370 -0.0331  0.1337  0.0205
  602POPI   C3A 9603  11.975   9.339   8.859 -0.0864  0.1373  0.0734
  602POPI   C4A 9604  11.978   9.290   8.469 -0.0123 -0.0538 -0.0572
  602POPI   C1B 9605  11.413   9.341   9.749 -0.0362  0.1754 -0.4052
  602POPI   C2B 9606  11.358   9.345   9.366  0.1938  0.0169  0.0798
  602POPI   C3B 9607  11.493   9.250   8.900  0.0072 -0.1049 -0.1070
  602POPI   C4B 9608  11.428   9.280   8.355 -0.1373  0.0823 -0.0468
  603POPI    C1 9609   2.453  16.782  11.141 -0.0099  0.1731  0.0073
  603POPI    C2 9610   2.147  17.035  11.185 -0.0743  0.0491  0.2962
  603POPI    C3 9611   2.393  16.964  11.492  0.0849 -0.0574  0.1458
  603POPI   PO4 9612   2.447  16.830  10.803  0.4155 -0.1273 -0.2381
  603POPI   GL1 9613   2.255  16.557  10.436 -0.0883  0.0258  0.0342
  603POPI   GL2 9614   2.240  16.944  10.381  0.0166 -0.1403  0.0710
  603POPI   C1A 9615   2.099  16.359  10.048  0.1620 -0.1994 -0.3090
  603POPI   D2A 9616   2.211  16.278   9.554  0.0448  0.3205  0.0382
  603POPI   C3A 9617   2.079  16.336   9.184  0.1610  0.1676  0.1416
  603POPI   C4A 9618   2.132  16.244   8.752 -0.2674  0.0015  0.1264
  603POPI   C1B 9619   2.368  16.810   9.964 -0.1975 -0.3271  0.0772
  603POPI   C2B 9620   2.343  16.795   9.482 -0.1342  0.2055 -0.0940
  603POPI   C3B 9621   2.426  16.725   9.025 -0.1593  0.0571 -0.0913
  603POPI   C4B 9622   2.368  16.647   8.572 -0.1937  0.0992 -0.0358
  604POPI    C1 9623   4.304  12.544  11.215  0.1699 -0.0489 -0.0436
  604POPI    C2 9624   4.021  12.795  11.345  0.1486 -0.1289  0.0669
  604POPI    C3 9625   4.007  12.408  11.446  0.3195 -0.1259  0.1065
  604POPI   PO4 9626   4.293  12.538  10.963 -0.2980 -0.0987  0.0098
  604POPI   GL1 9627   4.301  12.402  10.511  0.1071  0.1749  0.3455
  604POPI   GL2 9628   4.384  12.117  10.653 -0.2603 -0.1296  0.0189
  604POPI   C1A 9629   4.308  12.297   9.982 -0.0459 -0.0555 -0.0450
  604POPI   D2A 9630   4.310  12.376   9.597 -0.1089 -0.0355 -0.0008
  604POPI   C3A 9631   4.318  12.491   9.235 -0.0871  0.0689  0.5435
  604POPI   C4A 9632   4.459  12.554   8.802  0.1345  0.0328 -0.0608
  604POPI   C1B 9633   4.526  11.978  10.268  0.5074 -0.1413  0.1043
  604POPI   C2B 9634   4.670  11.969   9.804 -0.1932 -0.0542 -0.0391
  604POPI   C3B 9635   4.667  12.060   9.441  0.0374  0.2272  0.2606
  604POPI   C4B 9636   4.593  12.111   9.079  0.0227  0.2275  0.2615
  605POPI    C1 9637  14.186  12.802  10.980 -0.0321  0.1623  0.1534
  605POPI    C2 9638  14.112  12.452  11.160 -0.0124  0.0228 -0.1051
  605POPI    C3 9639  14.240  12.765  11.375  0.0307 -0.1458  0.1180
  605POPI   PO4 9640  14.077  12.817  10.838  0.1767  0.2778 -0.0483
  605POPI   GL1 9641  13.988  12.763  10.477  0.4730 -0.1941  0.3370
  605POPI   GL2 9642  14.019  12.458  10.247  0.0658  0.0583 -0.1362
  605POPI   C1A 9643  13.813  13.010  10.217 -0.0441  0.0994 -0.2658
  605POPI   D2A 9644  13.771  13.132   9.779  0.0718 -0.4594  0.2704
  605POPI   C3A 9645  13.745  13.137   9.333 -0.1021 -0.0533 -0.0283
  605POPI   C4A 9646  13.657  13.052   9.017  0.2482 -0.0728 -0.0550
  605POPI   C1B 9647  13.996  12.592   9.808 -0.1934 -0.2337 -0.0377
  605POPI   C2B 9648  14.069  12.598   9.416  0.1832 -0.1303  0.1662
  605POPI   C3B 9649  13.935  12.567   9.080  0.0569  0.0387  0.0042
  605POPI   C4B 9650  13.954  12.823   8.712 -0.2876  0.0296  0.1114
  606POPI    C1 9651   9.708   4.362  10.978  0.1750 -0.4242 -0.1439
  606POPI    C2 9652   9.719   4.605  11.296 -0.0793 -0.2966 -0.2296
  606POPI    C3 9653   9.871   4.235  11.321  0.1100 -0.2077 -0.0312
  606POPI   PO4 9654   9.606   4.497  10.802  0.3051 -0.3873 -0.2406
  606POPI   GL1 9655   9.717   4.623  10.377  0.1591  0.0901 -0.0452
  606POPI   GL2 9656   9.358   4.596  10.421 -0.1301 -0.3006  0.0428
  606POPI   C1A 9657   9.779   4.593   9.896  0.0596  0.1582  0.2643
  606POPI   D2A 9658   9.671   4.619   9.511 -0.1070 -0.2338  0.0263
  606POPI   C3A 9659   9.616   4.668   9.060 -0.4381  0.2915 -0.1810
  606POPI   C4A 9660   9.710   4.724   8.572  0.0543 -0.0285 -0.3355
  606POPI   C1B 9661   9.212   4.538  10.052  0.1289 -0.0875  0.1138
  606POPI   C2B 9662   9.198   4.631   9.695  0.3421 -0.0985 -0.0069
  606POPI   C3B 9663   9.118   4.688   9.300 -0.0359  0.1232  0.0695
  606POPI   C4B 9664   9.169   4.571   8.903  0.1957  0.0283  0.0020
  607DPPI    C1 9665   1.968   0.718  10.693 -0.2042  0.1558 -0.1370
  607DPPI    C2 9666   1.776   1.024  10.865 -0.2186  0.0452  0.0459
  607DPPI    C3 9667   1.574   0.694  10.760 -0.2067  0.1049 -0.1693
  607DPPI   PO4 9668   2.068   0.746  10.504 -0.1004 -0.1139  0.3755
  607DPPI   GL1 9669   2.066   0.730  10.095 -0.1119  0.0992 -0.2644
  607DPPI   GL2 9670   1.833   0.908   9.850 -0.3081  0.0574 -0.0337
  607DPPI   C1A 9671   2.126   0.438   9.824 -0.1464 -0.1893  0.0781
  607DPPI   C2A 9672   2.253   0.422   9.441 -0.1010 -0.1256  0.0852
  607DPPI   C3A 9673   2.194   0.390   9.059  0.0119  0.2294  0.1454
  607DPPI   C4A 9674   2.274   0.339   8.668  0.2052  0.1995 -0.1639
  607DPPI   C1B 9675   1.919   0.838   9.443 -0.3293  0.2032  0.0073
  607DPPI   C2B 9676   1.898   0.777   9.159 -0.0288 -0.1142  0.2711
  607DPPI   C3B 9677   1.976   0.893   8.847  0.0693  0.2700 -0.0601
  607DPPI   C4B 9678   2.104   0.774   8.427 -0.2683 -0.2887  0.0349
  608DPPI    C1 9679  16.664  13.353  11.373 -0.2249  0.1166 -0.0049
  608DPPI    C2 9680  16.795  13.655  11.601  0.1319 -0.0531  0.0210
  608DPPI    C3 9681  16.679  13.312  11.770  0.0521 -0.0518 -0.0305
  608DPPI   PO4 9682  16.497  13.503  11.187  0.2704  0.1587 -0.0832
  608DPPI   GL1 9683  16.394  13.386  10.710  0.1017  0.0092  0.2093
  608DPPI   GL2 9684  16.413  13.167  10.455 -0.1655  0.0839 -0.2775
  608DPPI   C1A 9685  16.188  13.588  10.340  0.1776 -0.0398 -0.1221
  608DPPI   C2A 9686  16.037  13.623   9.845 -0.2094 -0.0611  0.0868
  608DPPI   C3A 9687  16.162  13.688   9.438 -0.0571 -0.0529 -0.1594
  608DPPI   C4A 9688  16.098  13.617   9.016  0.1279  0.1715 -0.1248
  608DPPI   C1B 9689  16.341  13.232  10.046  0.1067 -0.2123 -0.0384
  608DPPI   C2B 9690  16.405  13.100   9.651 -0.0525 -0.0041 -0.0889
  608DPPI   C3B 9691  16.299  13.185   9.243 -0.2275 -0.0524 -0.0057
  608DPPI   C4B 9692  16.425  13.348   8.730  0.1124 -0.1066  0.0233
  609DPPI    C1 9693   8.796   8.368  11.279  0.0624 -0.1652 -0.2749
  609DPPI    C2 9694   8.732   8.071  11.539  0.0239  0.0231 -0.0661
  609DPPI    C3 9695   9.081   8.266  11.541 -0.0336  0.1268 -0.0508
  609DPPI   PO4 9696   8.657   8.311  11.040 -0.0034  0.1373  0.0306
  609DPPI   GL1 9697   8.696   8.203  10.577 -0.1084 -0.0537 -0.3360
  609DPPI   GL2 9698   8.886   8.141  10.426 -0.0095  0.0360  0.0149
  609DPPI   C1A 9699   8.412   8.197  10.189  0.5086 -0.4576 -0.2004
  609DPPI   C2A 9700   8.362   8.141   9.730 -0.1721  0.0003  0.2760
  609DPPI   C3A 9701   8.455   8.215   9.385 -0.1001  0.1403 -0.0526
  609DPPI   C4A 9702   8.296   8.221   8.990 -0.2658 -0.2875 -0.1934
  609DPPI   C1B 9703   8.989   8.250  10.060  0.0180 -0.1905  0.1352
  609DPPI   C2B 9704   8.983   8.213   9.609 -0.1747  0.0668  0.0105
  609DPPI   C3B 9705   8.949   8.210   9.189  0.0974 -0.2239 -0.3197
  609DPPI   C4B 9706   8.921   8.231   8.809 -0.0724 -0.1137  0.1359
  610DPPI    C1 9707  15.228   8.932  10.559 -0.2817 -0.2126 -0.0143
  610DPPI    C2 9708  15.304   8.872  10.170 -0.1528 -0.0460 -0.0159
  610DPPI    C3 9709  15.416   8.599  10.441 -0.2189 -0.1497 -0.0927
  610DPPI   PO4 9710  14.969   9.018  10.509  0.0778 -0.0597 -0.1357
  610DPPI   GL1 9711  14.869   9.245  10.306 -0.1182  0.2203  0.0012
  610DPPI   GL2 9712  14.682   9.065  10.109 -0.0800 -0.1675  0.2081
  610DPPI   C1A 9713  15.092   9.327   9.931 -0.3549  0.1806 -0.1057
  610DPPI   C2A 9714  15.182   9.223   9.562  0.2574  0.1988 -0.0686
  610DPPI   C3A 9715  15.090   9.374   9.196  0.0508  0.0746  0.2939
  610DPPI   C4A 9716  15.077   9.357   8.734  0.1278  0.0236  0.2744
  610DPPI   C1B 9717  14.673   9.176   9.716  0.2621  0.3360 -0.0959
  610DPPI   C2B 9718  14.600   9.285   9.313 -0.2164  0.0125 -0.2304
  610DPPI   C3B 9719  14.619   9.487   8.980  0.1797 -0.2221  0.4853
  610DPPI   C4B 9720  14.625   9.379   8.445 -0.3235 -0.1455 -0.1492
  611DPPI    C1 9721   2.436   5.901  10.431  0.0155 -0.4283  0.0302
  611DPPI    C2 9722   2.802   5.972  10.577 -0.0109 -0.0006 -0.0967
  611DPPI    C3 9723   2.488   5.953  10.825  0.0718 -0.2054 -0.0050
  611DPPI   PO4 9724   2.418   6.105  10.190  0.2860 -0.0116  0.3662
  611DPPI   GL1 9725   2.133   6.129   9.870 -0.0759 -0.3400  0.0840
  611DPPI   GL2 9726   1.863   6.083   9.607  0.0526 -0.0430  0.1332
  611DPPI   C1A 9727   2.315   6.003   9.476  0.0405  0.0261 -0.1806
  611DPPI   C2A 9728   2.409   6.107   9.026 -0.1043 -0.0536  0.1017
  611DPPI   C3A 9729   2.562   6.244   8.652  0.3004  0.2358 -0.0068
  611DPPI   C4A 9730   2.409   6.401   8.304  0.0106  0.0002  0.2091
  611DPPI   C1B 9731   1.890   6.160   9.164  0.3350  0.0586 -0.0439
  611DPPI   C2B 9732   2.034   6.202   8.759  0.1836  0.0870  0.2520
  611DPPI   C3B 9733   1.993   6.159   8.261 -0.3598 -0.4104 -0.1132
  611DPPI   C4B 9734   2.349   6.174   7.894  0.0310  0.2438  0.1454
  612DPPI    C1 9735   4.391   5.162  10.390 -0.0150  0.2258  0.1253
  612DPPI    C2 9736   4.346   4.885  10.675 -0.0234 -0.1216 -0.2057
  612DPPI    C3 9737   4.683   5.100  10.657 -0.1672  0.1600  0.2783
  612DPPI   PO4 9738   4.224   5.294  10.393 -0.0436  0.1302 -0.0213
  612DPPI   GL1 9739   4.289   5.504  10.015 -0.3064 -0.1868 -0.3036
  612DPPI   GL2 9740   4.008   5.531   9.764  0.0779 -0.0953  0.2623
  612DPPI   C1A 9741   4.499   5.748   9.796 -0.0250 -0.2945  0.2210
  612DPPI   C2A 9742   4.587   5.690   9.327  0.0202  0.2279 -0.0642
  612DPPI   C3A 9743   4.631   5.684   8.839  0.4450 -0.3779 -0.0908
  612DPPI   C4A 9744   4.803   5.693   8.433 -0.1113  0.1435 -0.1340
  612DPPI   C1B 9745   4.120   5.556   9.394  0.2716 -0.0170 -0.2140
  612DPPI   C2B 9746   4.099   5.643   8.964 -0.0682 -0.0031 -0.3454
  612DPPI   C3B 9747   4.176   5.716   8.517 -0.0039  0.0586 -0.2549
  612DPPI   C4B 9748   4.315   5.628   8.115 -0.4580  0.0434  0.1734
  613DPPI    C1 9749   1.736  11.916  11.282  0.1517  0.0970 -0.3256
  613DPPI    C2 9750   1.805  12.309  11.309  0.1236  0.0772  0.0913
  613DPPI    C3 9751   2.098  12.050  11.389  0.0507  0.0106  0.1445
  613DPPI   PO4 9752   1.654  11.896  10.999 -0.1549 -0.2131 -0.0304
  613DPPI   GL1 9753   1.624  12.017  10.538  0.0015  0.1221  0.2230
  613DPPI   GL2 9754   1.511  11.648  10.541 -0.0745  0.2907  0.1975
  613DPPI   C1A 9755   1.315  12.129  10.188 -0.0379 -0.0883 -0.3169
  613DPPI   C2A 9756   1.168  12.179   9.703 -0.0188 -0.0138  0.0178
  613DPPI   C3A 9757   1.202  12.219   9.314 -0.2097 -0.1174  0.1685
  613DPPI   C4A 9758   1.304  12.162   8.938  0.0341 -0.2115 -0.3399
  613DPPI   C1B 9759   1.492  11.667  10.164  0.1561  0.0492  0.1961
  613DPPI   C2B 9760   1.521  11.847   9.687 -0.0557  0.1458  0.0471
  613DPPI   C3B 9761   1.532  11.772   9.243 -0.4259  0.2989 -0.0777
  613DPPI   C4B 9762   1.650  11.816   8.809 -0.5539  0.1151  0.1177
  614DPPI    C1 9763   6.781  17.239  11.369 -0.1281  0.1687 -0.0372
  614DPPI    C2 9764   7.115  17.458  11.398  0.1115 -0.2007  0.0641
  614DPPI    C3 9765   6.996  17.232  11.706 -0.1281 -0.2219 -0.0412
  614DPPI   PO4 9766   6.803  17.184  11.100  0.2205  0.2883  0.1893
  614DPPI   GL1 9767   6.901  17.108  10.564 -0.0542 -0.2054 -0.1037
  614DPPI   GL2 9768   6.725  16.917  10.479  0.2335 -0.1802 -0.0316
  614DPPI   C1A 9769   7.065  17.231  10.164  0.0688 -0.3169  0.0249
  614DPPI   C2A 9770   7.030  17.234   9.746  0.0848 -0.2099  0.1222
  614DPPI   C3A 9771   7.020  17.150   9.334 -0.1153 -0.0544 -0.2882
  614DPPI   C4A 9772   7.019  17.222   8.939  0.0210 -0.0714  0.2189
  614DPPI   C1B 9773   6.872  16.808  10.014  0.1522 -0.0086  0.0700
  614DPPI   C2B 9774   6.869  16.695   9.556 -0.1226  0.0353  0.1896
  614DPPI   C3B 9775   6.823  16.758   9.153 -0.1403 -0.1574 -0.0423
  614DPPI   C4B 9776   6.840  16.821   8.720  0.0130 -0.1983 -0.2576
  615DPPI    C1 9777  11.015   7.445  11.019 -0.2557 -0.0517  0.0354
  615DPPI    C2 9778  11.356   7.343  11.203 -0.3981 -0.2332  0.2021
  615DPPI    C3 9779  11.127   7.636  11.352 -0.2200  0.0235 -0.0192
  615DPPI   PO4 9780  11.183   7.455  10.735  0.0191 -0.2135  0.0237
  615DPPI   GL1 9781  11.102   7.338  10.358  0.0389 -0.1720 -0.0757
  615DPPI   GL2 9782  11.408   7.214  10.248  0.1093 -0.0301  0.4192
  615DPPI   C1A 9783  11.062   7.330   9.901 -0.0889 -0.3250  0.0451
  615DPPI   C2A 9784  11.038   7.405   9.380 -0.3184 -0.0576  0.0024
  615DPPI   C3A 9785  10.923   7.438   8.963  0.1765 -0.0083  0.1366
  615DPPI   C4A 9786  11.134   7.398   8.546 -0.2703  0.3277  0.1674
  615DPPI   C1B 9787  11.439   7.035   9.841 -0.2691 -0.0738  0.0489
  615DPPI   C2B 9788  11.307   6.988   9.327  0.1400 -0.0705 -0.0445
  615DPPI   C3B 9789  11.356   7.055   8.891 -0.2395 -0.1679  0.2175
  615DPPI   C4B 9790  11.400   6.793   8.553 -0.2098  0.0964 -0.1312
  616PYPI    C1 9791  13.314   6.291  10.627  0.0777  0.0168 -0.2308
  616PYPI    C2 9792  13.009   6.033  10.655  0.1739 -0.0925 -0.1813
  616PYPI    C3 9793  13.187   6.169  10.987  0.1082  0.0567 -0.2064
  616PYPI   PO4 9794  13.202   6.348  10.320 -0.1992  0.0479 -0.0262
  616PYPI   GL1 9795  12.705   6.284  10.232  0.1388  0.0812  0.1876
  616PYPI   GL2 9796  12.680   5.962   9.947  0.1995 -0.1298 -0.0034
  616PYPI   C1A 9797  12.397   6.429   9.983 -0.0555 -0.0806 -0.1496
  616PYPI   C2A 9798  12.276   6.574   9.563 -0.2566 -0.0203  0.1708
  616PYPI   D3A 9799  12.130   6.631   9.133  0.0917  0.0588 -0.0641
  616PYPI   C4A 9800  12.208   6.524   8.766 -0.0586  0.0761 -0.2281
  616PYPI   C1B 9801  12.503   6.119   9.519  0.3637 -0.0021 -0.0119
  616PYPI   C2B 9802  12.372   6.205   9.073  0.0888  0.0151  0.0535
  616PYPI   C3B 9803  12.389   6.090   8.638 -0.0079  0.0937 -0.0387
  616PYPI   C4B 9804  12.532   5.903   8.263  0.0857 -0.1649  0.2782
  617PYPI    C1 9805   4.749   4.190  10.712 -0.0013  0.0761  0.1363
  617PYPI    C2 9806   5.020   4.290  10.989  0.2048  0.0629 -0.0579
  617PYPI    C3 9807   4.727   4.545  10.894  0.3128  0.1924 -0.0456
  617PYPI   PO4 9808   4.923   4.093  10.477  0.0155 -0.1892  0.1751
  617PYPI   GL1 9809   4.985   4.267  10.079  0.1708 -0.2172 -0.2708
  617PYPI   GL2 9810   5.245   3.964  10.130  0.3023  0.5539  0.4299
  617PYPI   C1A 9811   5.044   4.343   9.727 -0.0408 -0.2983  0.0510
  617PYPI   C2A 9812   5.043   4.321   9.312 -0.1477 -0.0194  0.0306
  617PYPI   D3A 9813   5.181   4.284   8.958  0.1239 -0.1164  0.0415
  617PYPI   C4A 9814   5.169   4.554   8.631  0.1778  0.1163 -0.1876
  617PYPI   C1B 9815   5.344   3.893   9.699  0.0801  0.2026 -0.0129
  617PYPI   C2B 9816   5.403   3.934   9.343 -0.2272 -0.1123  0.0737
  617PYPI   C3B 9817   5.372   3.828   8.948  0.1380 -0.2032 -0.0961
  617PYPI   C4B 9818   5.345   4.071   8.542 -0.0318  0.1446 -0.1546
  618PYPI    C1 9819   5.989   2.932  11.062 -0.2089 -0.0562 -0.0320
  618PYPI    C2 9820   6.225   2.692  11.278 -0.0450  0.1672  0.0413
  618PYPI    C3 9821   5.843   2.747  11.386 -0.0478  0.0409  0.0978
  618PYPI   PO4 9822   5.978   2.883  10.847  0.0520 -0.1801 -0.3233
  618PYPI   GL1 9823   6.155   2.631  10.532 -0.1532  0.0620 -0.3092
  618PYPI   GL2 9824   6.080   2.339  10.556  0.1522  0.1252  0.1217
  618PYPI   C1A 9825   6.313   2.659  10.164  0.1385  0.1729  0.0531
  618PYPI   C2A 9826   6.291   2.643   9.739 -0.1164 -0.3372  0.4322
  618PYPI   D3A 9827   6.309   2.624   9.266  0.0323  0.0645 -0.5291
  618PYPI   C4A 9828   6.312   2.575   8.931 -0.1453 -0.0398  0.0228
  618PYPI   C1B 9829   6.015   2.218  10.078 -0.2819  0.0289 -0.0023
  618PYPI   C2B 9830   6.104   2.209   9.655 -0.1076  0.2545  0.0205
  618PYPI   C3B 9831   6.039   2.143   9.182 -0.0781 -0.0061 -0.3502
  618PYPI   C4B 9832   6.060   2.142   8.782  0.2451 -0.4527  0.1750
  619PYPI    C1 9833  10.849  16.302  11.146 -0.0872 -0.0858  0.0037
  619PYPI    C2 9834  10.528  16.072  11.211 -0.0997 -0.0433  0.0955
  619PYPI    C3 9835  10.674  16.298  11.506  0.0781 -0.1420  0.0846
  619PYPI   PO4 9836  10.771  16.352  10.741 -0.0555  0.0839  0.1169
  619PYPI   GL1 9837  10.685  16.189  10.345  0.0133  0.0373  0.3296
  619PYPI   GL2 9838  10.979  16.220  10.332  0.1711 -0.0024  0.0408
  619PYPI   C1A 9839  10.619  16.033   9.840  0.0667  0.1300 -0.1280
  619PYPI   C2A 9840  10.633  16.050   9.383  0.1009  0.1585  0.0540
  619PYPI   D3A 9841  10.569  16.102   8.974 -0.0635 -0.3116 -0.0561
  619PYPI   C4A 9842  10.617  16.158   8.541  0.2788  0.0053  0.2667
  619PYPI   C1B 9843  11.219  16.139  10.079  0.0768  0.1063 -0.0887
  619PYPI   C2B 9844  11.119  16.118   9.640 -0.0485 -0.0503  0.0146
  619PYPI   C3B 9845  11.128  16.108   9.312 -0.3103  0.0063  0.2348
  619PYPI   C4B 9846  11.038  16.146   8.883  0.0795 -0.0765  0.1639
  620PYPI    C1 9847  15.826   4.783   9.681  0.0878 -0.0994 -0.0065
  620PYPI    C2 9848  15.669   4.576   9.985 -0.0907  0.1163  0.0511
  620PYPI    C3 9849  16.065   4.625   9.960 -0.0758  0.1078  0.2560
  620PYPI   PO4 9850  15.682   4.612   9.457 -0.0518 -0.1396 -0.3255
  620PYPI   GL1 9851  15.930   4.507   9.018  0.2028  0.0432 -0.3623
  620PYPI   GL2 9852  15.752   4.695   8.929  0.0991 -0.2447 -0.1728
  620PYPI   C1A 9853  15.976   4.443   8.575  0.2106 -0.0891 -0.1725
  620PYPI   C2A 9854  15.928   4.442   8.139 -0.2802  0.0808 -0.1107
  620PYPI   D3A 9855  16.014   4.146   7.931  0.0847  0.0838 -0.0697
  620PYPI   C4A 9856  16.264   3.884   8.111 -0.2532  0.1756 -0.0761
  620PYPI   C1B 9857  15.484   4.675   8.580 -0.2340  0.1212  0.2916
  620PYPI   C2B 9858  15.431   4.559   8.143  0.0103 -0.0496 -0.1064
  620PYPI   C3B 9859  15.116   4.489   7.923 -0.0808  0.0223  0.1167
  620PYPI   C4B 9860  14.750   4.258   7.724 -0.0382  0.0583  0.1918
  621PYPI    C1 9861  18.144  14.588  10.994  0.1614  0.1049 -0.1586
  621PYPI    C2 9862  18.283  14.882  11.227 -0.0821 -0.0353  0.1705
  621PYPI    C3 9863  18.239  14.513  11.375  0.1076 -0.2145 -0.2055
  621PYPI   PO4 9864  17.963  14.740  10.799  0.0880  0.0069  0.1963
  621PYPI   GL1 9865  17.808  14.581  10.508 -0.3147 -0.2920  0.2924
  621PYPI   GL2 9866  17.620  14.675  10.275 -0.0451  0.1647  0.5202
  621PYPI   C1A 9867  18.098  14.720  10.134 -0.1066  0.0587  0.3116
  621PYPI   C2A 9868  18.025  14.801   9.802  0.0412  0.2027  0.3614
  621PYPI   D3A 9869  18.123  14.843   9.252  0.0305  0.1101  0.0319
  621PYPI   C4A 9870  18.060  14.713   8.846 -0.0972  0.1007  0.1834
  621PYPI   C1B 9871  17.552  14.699   9.794 -0.0235  0.0533 -0.1031
  621PYPI   C2B 9872  17.629  14.687   9.349  0.0016  0.0522 -0.0927
  621PYPI   C3B 9873  17.573  14.587   8.806  0.0509 -0.2412  0.1074
  621PYPI   C4B 9874  17.507  14.645   8.368  0.1934 -0.0192  0.2837
  622ERGO   ROH 9875   4.784   3.769  10.155  0.0959  0.0207  0.0029
  622ERGO    R1 9876   4.703   3.747   9.885 -0.0993 -0.0476  0.0655
  622ERGO    R2 9877   4.705   3.962   9.712 -0.0891 -0.1221 -0.0276
  622ERGO    R3 9878   4.856   3.795   9.558 -0.2894 -0.2770 -0.0601
  622ERGO    R4 9879   4.725   3.975   9.367  0.1814  0.1433 -0.0062
  622ERGO    R5 9880   4.722   3.757   9.363 -0.2283  0.1435 -0.1945
  622ERGO    C1 9881   4.878   3.826   9.022  0.1509  0.1523 -0.0242
  622ERGO    C2 9882   4.978   3.759   8.517  0.1075  0.1748  0.0629
  623ERGO   ROH 9883   3.365  17.091  10.623  0.1614 -0.2998  0.0387
  623ERGO    R1 9884   3.481  16.994  10.384  0.2192  0.0767 -0.0933
  623ERGO    R2 9885   3.352  16.815  10.217  0.5325 -0.2197 -0.0361
  623ERGO    R3 9886   3.403  17.004  10.029 -0.1202 -0.0077 -0.0231
  623ERGO    R4 9887   3.359  16.758   9.876  0.2695 -0.0434 -0.0736
  623ERGO    R5 9888   3.532  16.890   9.863 -0.0431  0.3639 -0.2249
  623ERGO    C1 9889   3.411  16.903   9.501 -0.4962  0.2581 -0.0831
  623ERGO    C2 9890   3.468  16.803   9.141  0.4379  0.2147  0.0708
  624ERGO   ROH 9891   3.744   6.015   9.679  0.0254  0.0833  0.0305
  624ERGO    R1 9892   3.727   5.932   9.409 -0.2695  0.1367  0.0304
  624ERGO    R2 9893   3.600   6.082   9.215 -0.0212  0.4385  0.0962
  624ERGO    R3 9894   3.838   6.058   9.086 -0.1166 -0.0817 -0.0050
  624ERGO    R4 9895   3.649   6.144   8.879 -0.0048  0.4703  0.1040
  624ERGO    R5 9896   3.780   5.970   8.871 -0.4195  0.1460 -0.0248
  624ERGO    C1 9897   3.901   6.157   8.562 -0.0848  0.0006  0.0135
  624ERGO    C2 9898   4.062   6.255   8.269 -0.1640 -0.1495 -0.0985
  625ERGO   ROH 9899  11.612   9.727  10.103  0.0382  0.0130  0.0876
  625ERGO    R1 9900  11.593   9.856   9.851  0.0124 -0.0335  0.0649
  625ERGO    R2 9901  11.796   9.849   9.665 -0.0063 -0.0717  0.0413
  625ERGO    R3 9902  11.599   9.756   9.501 -0.0273 -0.1011  0.0843
  625ERGO    R4 9903  11.819   9.827   9.320 -0.0617 -0.1279  0.0413
  625ERGO    R5 9904  11.612   9.896   9.307 -0.0613 -0.1354  0.0606
  625ERGO    C1 9905  11.647   9.728   8.967 -0.1138 -0.1884  0.0818
  625ERGO    C2 9906  11.668   9.649   8.610  0.2167  0.2613 -0.2415
  626ERGO   ROH 9907   6.057  15.701  10.380 -0.1310  0.0523 -0.0553
  626ERGO    R1 9908   5.964  15.650  10.118 -0.3182  0.1565 -0.0103
  626ERGO    R2 9909   5.839  15.842   9.964  0.0957  0.3932 -0.0586
  626ERGO    R3 9910   6.031  15.776   9.784 -0.0937 -0.1421 -0.0837
  626ERGO    R4 9911   5.785  15.790   9.626 -0.1081  0.5068 -0.0463
  626ERGO    R5 9912   5.924  15.623   9.635 -0.5412  0.1196 -0.0557
  626ERGO    C1 9913   5.935  15.697   9.261 -0.4046  0.0704 -0.0627
  626ERGO    C2 9914   6.044  15.716   8.959 -0.2998  0.0366  0.1804
  627ERGO   ROH 9915   3.468   7.342   9.640 -0.0406  0.0876  0.1233
  627ERGO    R1 9916   3.580   7.327   9.381 -0.0188 -0.0950  0.1411
  627ERGO    R2 9917   3.458   7.189   9.174 -0.1476 -0.0082  0.1496
  627ERGO    R3 9918   3.483   7.427   9.044  0.1368 -0.0573  0.1088
  627ERGO    R4 9919   3.472   7.227   8.831 -0.1310 -0.0665  0.1443
  627ERGO    R5 9920   3.626   7.379   8.858  0.0578 -0.2562  0.1044
  627ERGO    C1 9921   3.503   7.471   8.509  0.1456 -0.1466  0.1031
  627ERGO    C2 9922   3.580   7.639   8.155 -0.1690 -0.1639  0.1346
  628ERGO   ROH 9923  14.696  13.093  10.668  0.0071  0.4161  0.0301
  628ERGO    R1 9924  14.805  13.189  10.425 -0.0458  0.2132 -0.0751
  628ERGO    R2 9925  14.920  13.022  10.237 -0.1962  0.0428 -0.0141
  628ERGO    R3 9926  14.741  13.140  10.070 -0.2071  0.0166 -0.0222
  628ERGO    R4 9927  14.927  13.000   9.892  0.0418  0.3358 -0.0325
  628ERGO    R5 9928  14.872  13.210   9.882 -0.1507  0.2993  0.1143
  628ERGO    C1 9929  14.763  13.098   9.534  0.1703  0.4821 -0.0508
  628ERGO    C2 9930  14.770  13.004   9.280  0.1245  0.2626  0.1121
  629ERGO   ROH 9931  16.590   9.524   6.506 -0.0818 -0.4415 -0.0279
  629ERGO    R1 9932  16.431   9.443   6.724 -0.0799 -0.3494  0.0090
  629ERGO    R2 9933  16.530   9.292   6.933 -0.0657 -0.2232  0.0974
  629ERGO    R3 9934  16.430   9.494   7.085 -0.1041 -0.1556 -0.0179
  629ERGO    R4 9935  16.381   9.251   7.242 -0.2039 -0.0896  0.0490
  629ERGO    R5 9936  16.233   9.401   7.185 -0.1585 -0.0912 -0.0676
  629ERGO    C1 9937  16.200   9.417   7.565 -0.3203  0.0516 -0.0875
  629ERGO    C2 9938  16.056   9.163   7.895  0.5265 -0.0323 -0.4511
  630ERGO   ROH 9939   4.363  17.782  10.051  0.4774  0.0035 -0.1893
  630ERGO    R1 9940   4.384  17.894   9.792  0.2648  0.0398 -0.1929
  630ERGO    R2 9941   4.554  17.792   9.599  0.2362  0.1723 -0.2910
  630ERGO    R3 9942   4.327  17.782   9.450  0.1632  0.0270 -0.1718
  630ERGO    R4 9943   4.541  17.829   9.256  0.0632 -0.1115 -0.3183
  630ERGO    R5 9944   4.360  17.947   9.281  0.0642 -0.1085 -0.3260
  630ERGO    C1 9945   4.320  17.842   8.916 -0.1063 -0.4128 -0.2222
  630ERGO    C2 9946   4.461  17.854   8.724 -0.1665 -0.1710  0.3028
  631ERGO   ROH 9947   7.965   3.297   9.413 -0.1690 -0.2998 -0.0107
  631ERGO    R1 9948   7.929   3.284   9.133  0.0609 -0.2075 -0.0467
  631ERGO    R2 9949   8.127   3.355   8.953  0.2861 -0.3596  0.1392
  631ERGO    R3 9950   8.081   3.106   8.854  0.1332 -0.2974  0.0485
  631ERGO    R4 9951   8.134   3.271   8.618  0.1233 -0.2158  0.0978
  631ERGO    R5 9952   7.960   3.144   8.651  0.0736 -0.1505  0.1075
  631ERGO    C1 9953   8.095   2.988   8.330 -0.1151 -0.0736 -0.0114
  631ERGO    C2 9954   8.271   2.734   8.128 -0.2566  0.1698  0.1378
  632ERGO   ROH 9955  16.195   4.992   8.935  0.0043 -0.0584  0.0208
  632ERGO    R1 9956  16.163   5.065   8.664  0.0457  0.0547  0.0455
  632ERGO    R2 9957  16.251   4.906   8.456 -0.0030  0.0984 -0.0098
  632ERGO    R3 9958  15.994   4.929   8.372  0.0096  0.2258 -0.0140
  632ERGO    R4 9959  16.146   4.878   8.128 -0.0304  0.0061  0.0067
  632ERGO    R5 9960  16.009   5.044   8.162  0.0785  0.1132 -0.0706
  632ERGO    C1 9961  15.843   4.884   7.858 -0.0345  0.0721  0.0123
  632ERGO    C2 9962  15.601   4.745   7.558 -0.0935 -0.0699 -0.1907
  633ERGO   ROH 9963   4.058   5.011   9.774 -0.0969  0.1736  0.0635
  633ERGO    R1 9964   4.235   5.108   9.575 -0.1640  0.2321  0.0320
  633ERGO    R2 9965   4.336   4.947   9.374  0.0575  0.2020  0.1650
  633ERGO    R3 9966   4.233   5.139   9.212 -0.1269 -0.0249  0.0085
  633ERGO    R4 9967   4.463   5.032   9.064  0.1925  0.3088  0.2483
  633ERGO    R5 9968   4.424   5.242   9.112 -0.2059  0.2666  0.1465
  633ERGO    C1 9969   4.439   5.262   8.731  0.0981  0.1579  0.1499
  633ERGO    C2 9970   4.443   5.289   8.459  0.2512 -0.1399  0.1496
  634ERGO   ROH 9971  10.192   9.817  10.427  0.0215  0.1261 -0.2311
  634ERGO    R1 9972  10.180   9.675  10.182 -0.0197  0.0444 -0.1821
  634ERGO    R2 9973   9.967   9.699  10.007  0.0125  0.0871 -0.2143
  634ERGO    R3 9974  10.163   9.760   9.829  0.0635 -0.0737 -0.2151
  634ERGO    R4 9975   9.946   9.648   9.666  0.0146 -0.0011 -0.2016
  634ERGO    R5 9976  10.154   9.582   9.668 -0.0208 -0.1166 -0.1642
  634ERGO    C1 9977  10.118   9.675   9.300  0.0637 -0.2031 -0.1951
  634ERGO    C2 9978  10.225   9.759   8.990  0.2982 -0.1632 -0.1097
  635ERGO   ROH 9979   8.417   9.008  10.396  0.1286 -0.0882  0.1255
  635ERGO    R1 9980   8.348   8.970  10.124  0.1321 -0.1057  0.1277
  635ERGO    R2 9981   8.313   9.181   9.948  0.1669 -0.1205  0.1081
  635ERGO    R3 9982   8.497   9.046   9.800  0.1513 -0.1592  0.1226
  635ERGO    R4 9983   8.301   9.143   9.605  0.2361 -0.0232  0.0940
  635ERGO    R5 9984   8.368   8.937   9.630  0.1453 -0.0622  0.0599
  635ERGO    C1 9985   8.466   8.994   9.266  0.2617 -0.0029  0.0993
  635ERGO    C2 9986   8.393   9.135   9.020  0.0557 -0.0360  0.1402
  636ERGO   ROH 9987  13.222  15.756  10.176 -0.0607  0.1632  0.0108
  636ERGO    R1 9988  13.064  15.708   9.946 -0.0436  0.0593  0.0196
  636ERGO    R2 9989  13.004  15.906   9.762 -0.1553  0.0143  0.0012
  636ERGO    R3 9990  13.110  15.728   9.586 -0.0636  0.0528  0.0180
  636ERGO    R4 9991  12.921  15.885   9.427 -0.1154 -0.0454 -0.0048
  636ERGO    R5 9992  12.927  15.668   9.444 -0.0207 -0.0376  0.0058
  636ERGO    C1 9993  12.972  15.706   9.067 -0.0060 -0.0441  0.0075
  636ERGO    C2 9994  13.023  15.844   8.841 -0.1459 -0.2023  0.0990
  637ERGO   ROH 9995  13.824   7.684   9.908  0.1267  0.0153  0.1793
  637ERGO    R1 9996  13.736   7.750   9.647  0.0813 -0.3108  0.1059
  637ERGO    R2 9997  13.790   7.995   9.529 -0.5958 -0.1411  0.0897
  637ERGO    R3 9998  13.892   7.840   9.331  0.0278  0.1088  0.1956
  637ERGO    R4 9999  13.745   8.050   9.191 -0.3213 -0.2508  0.0336
  637ERGO    R510000  13.721   7.836   9.164  0.2367 -0.3107 -0.0136
  637ERGO    C110001  13.815   7.937   8.808  0.4239 -0.0801  0.1004
  637ERGO    C210002  14.024   7.838   8.495  0.2513 -0.0490  0.0778
  638ERGO   ROH10003   3.278   8.951  10.313 -0.1194 -0.3116 -0.0965
  638ERGO    R110004   3.186   8.990  10.048 -0.0798 -0.0124 -0.0708
  638ERGO    R210005   3.218   9.230   9.913  0.1865  0.0631  0.0997
  638ERGO    R310006   3.334   9.071   9.726  0.0132  0.0627 -0.0068
  638ERGO    R410007   3.259   9.314   9.580  0.0304  0.1086  0.0922
  638ERGO    R510008   3.206   9.110   9.527 -0.0785  0.1513  0.0772
  638ERGO    C110009   3.393   9.214   9.211 -0.2232  0.1349 -0.0123
  638ERGO    C210010   3.370   9.316   8.871  0.1161  0.3163 -0.0226
  639ERGO   ROH10011   4.219  11.011  10.624  0.0071  0.0761 -0.0024
  639ERGO    R110012   4.249  10.917  10.358 -0.1245  0.0275 -0.0010
  639ERGO    R210013   4.062  10.965  10.161 -0.0982  0.2184  0.0167
  639ERGO    R310014   4.277  11.064  10.027 -0.0040 -0.0184 -0.0113
  639ERGO    R410015   4.066  11.047   9.825 -0.0261  0.1477  0.0005
  639ERGO    R510016   4.266  10.961   9.811 -0.1100 -0.0505  0.0106
  639ERGO    C110017   4.270  11.187   9.504  0.1043 -0.1157 -0.0353
  639ERGO    C210018   4.159  11.170   9.184 -0.3801 -0.1365  0.0834
  640ERGO   ROH10019  15.405  10.205  10.121  0.1125 -0.3095 -0.0772
  640ERGO    R110020  15.424  10.353   9.881  0.1366 -0.0599  0.0741
  640ERGO    R210021  15.635  10.326   9.706  0.0516 -0.0357 -0.0337
  640ERGO    R310022  15.438  10.278   9.525 -0.0546  0.3141 -0.0176
  640ERGO    R410023  15.652  10.408   9.370  0.2224 -0.1658 -0.0591
  640ERGO    R510024  15.442  10.470   9.381  0.3404  0.2707 -0.0753
  640ERGO    C110025  15.476  10.412   9.005  0.2223  0.0867 -0.0589
  640ERGO    C210026  15.522  10.559   8.654  0.0114  0.2805 -0.1267
  641ERGO   ROH10027  12.629  15.667  10.356  0.2032 -0.2010 -0.1101
  641ERGO    R110028  12.515  15.679  10.097  0.0533  0.0823 -0.0364
  641ERGO    R210029  12.556  15.892   9.926  0.4838 -0.0098 -0.0610
  641ERGO    R310030  12.639  15.697   9.755 -0.1160 -0.2352 -0.1188
  641ERGO    R410031  12.492  15.887   9.587  0.4094  0.2587 -0.0531
  641ERGO    R510032  12.457  15.672   9.601 -0.2315  0.3397 -0.0986
  641ERGO    C110033  12.532  15.701   9.229 -0.1969  0.2033 -0.1026
  641ERGO    C210034  12.523  15.729   8.916 -0.1153  0.0841  0.0405
  642ERGO   ROH10035  13.997   2.254   6.397  0.0091  0.0363 -0.0952
  642ERGO    R110036  14.035   2.283   6.676 -0.1245  0.0662 -0.0790
  642ERGO    R210037  14.205   2.121   6.821 -0.3564 -0.0648  0.0609
  642ERGO    R310038  14.312   2.358   6.899 -0.1784 -0.1437  0.0595
  642ERGO    R410039  14.336   2.184   7.135  0.0446 -0.2643 -0.0594
  642ERGO    R510040  14.244   2.381   7.128  0.1061 -0.2316  0.1547
  642ERGO    C110041  14.513   2.443   7.391  0.4452 -0.4546 -0.1308
  642ERGO    C210042  14.835   2.468   7.514 -0.0439  0.1403  0.3073
  643ERGO   ROH10043   9.102  10.977  10.383  0.3772 -0.0508  0.1086
  643ERGO    R110044   9.120  10.889  10.115  0.3014 -0.1164  0.1236
  643ERGO    R210045   9.015  11.032   9.903 -0.0098 -0.3013  0.1390
  643ERGO    R310046   9.268  11.010   9.805 -0.0441 -0.0377 -0.0131
  643ERGO    R410047   9.094  10.954   9.576 -0.1143 -0.1980  0.0896
  643ERGO    R510048   9.256  10.828   9.650  0.0555 -0.0361 -0.0164
  643ERGO    C110049   9.377  10.889   9.293 -0.2071  0.1094 -0.0817
  643ERGO    C210050   9.286  11.040   9.012  0.3056 -0.4131  0.0011
  644ERGO   ROH10051   5.274  17.733  10.272  0.2080  0.2613 -0.1037
  644ERGO    R110052   5.239  17.562  10.050  0.0733  0.1209  0.0208
  644ERGO    R210053   5.069  17.623   9.841  0.0168  0.0365  0.0333
  644ERGO    R310054   5.292  17.582   9.690 -0.0455 -0.1340 -0.0114
  644ERGO    R410055   5.068  17.545   9.504 -0.1064 -0.0336  0.0509
  644ERGO    R510056   5.230  17.404   9.541 -0.1880 -0.1245  0.0400
  644ERGO    C110057   5.276  17.461   9.167 -0.2365 -0.2345  0.0192
  644ERGO    C210058   5.178  17.538   8.834 -0.0863  0.1076  0.4210
  645ERGO   ROH10059   1.111  15.282  10.386  0.2458 -0.0142  0.0337
  645ERGO    R110060   1.065  15.366  10.120  0.0770 -0.0290  0.0567
  645ERGO    R210061   1.267  15.460   9.956 -0.0380  0.0299 -0.0546
  645ERGO    R310062   1.177  15.266   9.788 -0.0722  0.0021 -0.0038
  645ERGO    R410063   1.246  15.491   9.613 -0.0318 -0.0540 -0.0623
  645ERGO    R510064   1.055  15.386   9.620 -0.0508 -0.0188 -0.0345
  645ERGO    C110065   1.150  15.328   9.255 -0.0604 -0.1289 -0.0191
  645ERGO    C210066   1.207  15.400   8.963 -0.0247  0.0875  0.3657
  646ERGO   ROH10067  14.375   9.622   6.200 -0.0018  0.1037  0.2488
  646ERGO    R110068  14.275   9.751   6.431 -0.1919  0.1008  0.1700
  646ERGO    R210069  14.076   9.642   6.588 -0.0261 -0.1044  0.2418
  646ERGO    R310070  14.258   9.680   6.787 -0.0722  0.2952  0.2167
  646ERGO    R410071  14.001   9.655   6.925 -0.0404  0.0337  0.2340
  646ERGO    R510072  14.144   9.817   6.946 -0.2655  0.2543  0.1174
  646ERGO    C110073  14.128   9.697   7.308 -0.0921  0.4892  0.2059
  646ERGO    C210074  14.274   9.493   7.545 -0.1806  0.0379  0.1190
  647ERGO   ROH10075  10.072   6.544  10.322  0.0698  0.0080 -0.0211
  647ERGO    R110076  10.099   6.429  10.065  0.1795  0.0925 -0.0484
  647ERGO    R210077   9.892   6.422   9.882  0.1898 -0.0443 -0.0590
  647ERGO    R310078  10.073   6.544   9.720  0.0922  0.1545 -0.0211
  647ERGO    R410079   9.893   6.402   9.537  0.2365  0.0249 -0.0625
  647ERGO    R510080  10.110   6.386   9.544  0.2515  0.2231 -0.0494
  647ERGO    C110081  10.064   6.505   9.184  0.1722  0.2517 -0.0291
  647ERGO    C210082  10.085   6.454   8.850  0.2593 -0.3388  0.0757
  648ERGO   ROH10083   0.428   7.420   9.557  0.0598 -0.0068  0.1384
  648ERGO    R110084   0.409   7.577   9.323  0.3337  0.1063  0.1863
  648ERGO    R210085   0.625   7.623   9.156  0.4213 -0.2342  0.1840
  648ERGO    R310086   0.457   7.527   8.966  0.2240  0.1208  0.1719
  648ERGO    R410087   0.682   7.639   8.816  0.4295 -0.2956  0.1836
  648ERGO    R510088   0.471   7.686   8.788  0.5208  0.1176  0.1976
  648ERGO    C110089   0.557   7.558   8.439  0.2490  0.0021  0.1719
  648ERGO    C210090   0.569   7.621   8.085 -0.4037  0.1978  0.0915
  649ERGO   ROH10091  15.209  17.271  10.147  0.0601 -0.0984  0.1177
  649ERGO    R110092  15.293  17.376   9.898 -0.0244 -0.0561  0.1070
  649ERGO    R210093  15.430  17.224   9.712  0.0231  0.0123  0.0895
  649ERGO    R310094  15.230  17.305   9.547 -0.0371 -0.0841  0.1142
  649ERGO    R410095  15.462  17.273   9.371 -0.0898 -0.1654  0.0519
  649ERGO    R510096  15.337  17.450   9.390 -0.0937 -0.1595  0.0016
  649ERGO    C110097  15.293  17.377   9.018 -0.2122 -0.3591  0.0530
  649ERGO    C210098  15.244  17.157   8.782 -0.1391  0.3322  0.1572
  650ERGO   ROH10099   9.287   2.300  10.138  0.1185  0.1041  0.0627
  650ERGO    R110100   9.189   2.231   9.881 -0.1233  0.1975  0.1281
  650ERGO    R210101   9.080   2.418   9.709  0.1050  0.3373  0.1350
  650ERGO    R310102   9.266   2.319   9.536 -0.1403 -0.0242  0.0659
  650ERGO    R410103   9.070   2.455   9.365  0.1084  0.4671  0.1480
  650ERGO    R510104   9.138   2.249   9.346 -0.3454  0.3100  0.0698
  650ERGO    C110105   9.238   2.384   9.003 -0.1199  0.2033  0.0907
  650ERGO    C210106   9.358   2.431   8.695  0.1691  0.1020  0.2654
  651ERGO   ROH10107   9.035  16.910  10.183 -0.2436 -0.3145 -0.0532
  651ERGO    R110108   8.963  16.823   9.923 -0.2261 -0.1180 -0.1256
  651ERGO    R210109   8.796  16.968   9.757  0.0308  0.1589 -0.1473
  651ERGO    R310110   9.003  16.946   9.583  0.0894 -0.0200 -0.0578
  651ERGO    R410111   8.768  16.981   9.413  0.1799  0.1357 -0.1613
  651ERGO    R510112   8.914  16.821   9.399  0.0682  0.0208 -0.0783
  651ERGO    C110113   8.946  16.968   9.049  0.3215 -0.0460 -0.0855
  651ERGO    C210114   8.937  16.980   8.702 -0.3414  0.1206 -0.2340
  652ERGO   ROH10115   8.379  15.968  10.197 -0.0995  0.0221  0.0385
  652ERGO    R110116   8.462  16.026   9.933  0.1168  0.0000  0.0986
  652ERGO    R210117   8.626  15.857   9.788 -0.0570 -0.1959  0.1123
  652ERGO    R310118   8.426  15.873   9.604  0.0446  0.1718  0.0284
  652ERGO    R410119   8.673  15.868   9.445  0.0914 -0.3906  0.1254
  652ERGO    R510120   8.514  16.017   9.434  0.4076 -0.0601  0.0182
  652ERGO    C110121   8.512  15.890   9.074  0.2732 -0.1589  0.0541
  652ERGO    C210122   8.540  15.955   8.749  0.0566  0.1505 -0.0156
  653ERGO   ROH10123  14.194   0.728  10.283  0.0175 -0.2318 -0.1474
  653ERGO    R110124  14.072   0.601  10.062 -0.1235 -0.0655 -0.1673
  653ERGO    R210125  13.901   0.733   9.889  0.0384  0.1545 -0.1589
  653ERGO    R310126  14.073   0.640   9.700 -0.0618 -0.0268 -0.1639
  653ERGO    R410127  13.805   0.598   9.586 -0.1200  0.1414 -0.1041
  653ERGO    R510128  13.962   0.448   9.609 -0.2251  0.0278 -0.0899
  653ERGO    C110129  13.910   0.432   9.231 -0.3063 -0.0364 -0.0769
  653ERGO    C210130  13.759   0.385   8.942 -0.2089 -0.2010 -0.0219
  654PSPI    C110131  16.947  15.965   5.818  0.0734  0.1785  0.2865
  654PSPI    C210132  17.321  15.888   5.699 -0.0585 -0.0804  0.0271
  654PSPI    C310133  17.012  15.713   5.513 -0.3061  0.0701  0.2897
  654PSPI   PO410134  16.941  16.081   6.027  0.1673  0.0782  0.0397
  654PSPI   GL110135  16.868  16.119   6.469  0.0369  0.1747 -0.2236
  654PSPI   GL210136  16.754  16.367   6.401  0.1046 -0.0729  0.0180
  654PSPI   C1A10137  17.097  16.125   6.819 -0.2489  0.0945  0.0672
  654PSPI   C2A10138  17.006  16.128   7.215  0.0936  0.0665  0.0766
  654PSPI   C3A10139  17.055  16.214   7.607  0.2983 -0.1320  0.0839
  654PSPI   C4A10140  17.071  16.342   8.056  0.1507 -0.0331 -0.1449
  654PSPI   C1B10141  16.700  16.549   6.742  0.1002 -0.0076  0.1433
  654PSPI   C2B10142  16.762  16.613   7.219  0.0771  0.0112 -0.0268
  654PSPI   C3B10143  16.741  16.633   7.647  0.2109  0.0715 -0.1932
  654PSPI   C4B10144  16.569  17.047   7.867 -0.3716  0.1833  0.0730
  655PSPI    C110145   0.359  13.413   6.102 -0.2037 -0.2287  0.2725
  655PSPI    C210146   0.106  13.352   5.798 -0.0329  0.1131  0.0566
  655PSPI    C310147   0.474  13.196   5.786  0.0369  0.2793 -0.0003
  655PSPI   PO410148   0.216  13.478   6.311 -0.1473 -0.0206  0.0214
  655PSPI   GL110149   0.212  13.635   6.687 -0.4319 -0.1307 -0.2155
  655PSPI   GL210150   0.192  13.940   6.578 -0.0729  0.1726 -0.0326
  655PSPI   C1A10151   0.343  13.375   6.995 -0.0749  0.0345  0.3192
  655PSPI   C2A10152   0.370  13.389   7.410 -0.2678 -0.1483 -0.0653
  655PSPI   C3A10153   0.589  13.531   7.784 -0.2402  0.3058 -0.1362
  655PSPI   C4A10154   0.360  13.548   8.211 -0.0660 -0.2368 -0.4137
  655PSPI   C1B10155   0.056  14.205   6.994 -0.1100  0.0182  0.0965
  655PSPI   C2B10156  -0.114  14.473   7.211  0.0853  0.2180  0.1742
  655PSPI   C3B10157  -0.383  14.608   7.511 -0.0419 -0.0122 -0.1476
  655PSPI   C4B10158  -0.488  14.688   7.906  0.1526  0.0334 -0.3117
  656PSPI    C110159   2.121  16.359   5.685 -0.2508  0.3203 -0.2165
  656PSPI    C210160   2.384  16.618   5.838 -0.2016  0.0696  0.1337
  656PSPI    C310161   2.479  16.405   5.512 -0.0166  0.0689  0.1865
  656PSPI   PO410162   2.028  16.265   5.958  0.1225 -0.0461  0.1963
  656PSPI   GL110163   2.190  16.185   6.341 -0.0104  0.0228 -0.0295
  656PSPI   GL210164   2.264  16.542   6.304  0.1670  0.1186  0.5074
  656PSPI   C1A10165   2.064  16.262   6.731  0.1314  0.0526 -0.1630
  656PSPI   C2A10166   2.150  16.354   7.236 -0.1991 -0.0350 -0.1782
  656PSPI   C3A10167   1.878  16.430   7.594 -0.1369 -0.3589  0.0629
  656PSPI   C4A10168   1.821  16.679   7.992 -0.3401 -0.0657  0.0570
  656PSPI   C1B10169   2.245  16.675   6.756 -0.0948  0.0520 -0.1052
  656PSPI   C2B10170   2.118  16.840   6.977  0.1700 -0.0094  0.1572
  656PSPI   C3B10171   2.009  16.896   7.403 -0.2390 -0.0061 -0.1791
  656PSPI   C4B10172   1.768  17.119   7.785 -0.2644  0.0110  0.0834
  657PSPI    C110173   3.386  13.571   5.665 -0.0170 -0.1078 -0.0827
  657PSPI    C210174   3.722  13.789   5.674  0.0181 -0.1486 -0.3302
  657PSPI    C310175   3.399  13.927   5.482 -0.1622 -0.0356  0.0452
  657PSPI   PO410176   3.238  13.583   5.964 -0.0180  0.0137  0.1947
  657PSPI   GL110177   3.244  13.375   6.359  0.1423  0.2010 -0.0596
  657PSPI   GL210178   3.596  13.207   6.539 -0.2168 -0.1252 -0.2561
  657PSPI   C1A10179   3.156  13.572   6.675  0.0241 -0.2196  0.1101
  657PSPI   C2A10180   3.044  13.775   6.967 -0.1046  0.1557 -0.0133
  657PSPI   C3A10181   3.286  14.135   7.221 -0.1466 -0.3243  0.2246
  657PSPI   C4A10182   3.544  14.118   7.598  0.2190  0.2001  0.0607
  657PSPI   C1B10183   3.560  13.141   6.988 -0.0822 -0.3672  0.1646
  657PSPI   C2B10184   3.591  13.196   7.448  0.3361 -0.1234 -0.0349
  657PSPI   C3B10185   3.775  13.531   7.784 -0.0102 -0.3792  0.2454
  657PSPI   C4B10186   3.594  13.673   8.096  0.0768 -0.1026  0.1058
  658PSPI    C110187   1.453   6.533   5.531  0.0285 -0.1745  0.0847
  658PSPI    C210188   1.215   6.498   5.212  0.0025  0.0437  0.0780
  658PSPI    C310189   1.602   6.400   5.185  0.0077  0.0927 -0.0297
  658PSPI   PO410190   1.476   6.835   5.611 -0.3385 -0.0193 -0.1001
  658PSPI   GL110191   1.104   6.863   5.817  0.2808 -0.2114 -0.0786
  658PSPI   GL210192   0.786   6.847   5.820 -0.1733 -0.2064 -0.0523
  658PSPI   C1A10193   1.202   6.642   6.184  0.1126 -0.3154  0.1531
  658PSPI   C2A10194   1.285   6.816   6.518 -0.2062 -0.3059  0.3344
  658PSPI   C3A10195   1.388   6.911   6.941  0.2411  0.4202 -0.1406
  658PSPI   C4A10196   1.582   6.973   7.376  0.2539 -0.1696 -0.1956
  658PSPI   C1B10197   0.602   6.888   6.227  0.0784  0.0104  0.2706
  658PSPI   C2B10198   0.667   6.593   6.464  0.1067  0.0898 -0.1542
  658PSPI   C3B10199   0.704   6.225   6.645 -0.2236  0.1173 -0.1277
  658PSPI   C4B10200   0.769   5.875   6.834  0.0202  0.2971  0.1892
  659PSPI    C110201   0.039   0.084   5.511  0.1781 -0.2198 -0.2441
  659PSPI    C210202   0.226   0.285   5.221  0.3437  0.1625  0.1172
  659PSPI    C310203   0.438   0.106   5.509  0.1724  0.0234  0.1583
  659PSPI   PO410204  -0.259   0.321   5.518 -0.0524 -0.0284  0.0727
  659PSPI   GL110205  -0.387   0.611   5.846  0.0465 -0.2627  0.0759
  659PSPI   GL210206  -0.595   0.770   5.757  0.0499 -0.2305  0.0260
  659PSPI   C1A10207  -0.050   0.711   6.081  0.1443  0.2562  0.2640
  659PSPI   C2A10208   0.105   1.139   6.251  0.0443 -0.1223 -0.1318
  659PSPI   C3A10209   0.285   1.380   6.617  0.0326 -0.1327 -0.1779
  659PSPI   C4A10210   0.266   1.359   7.052  0.2132  0.0847  0.0238
  659PSPI   C1B10211  -0.859   0.709   6.096  0.0962 -0.0284  0.1816
  659PSPI   C2B10212  -0.890   0.375   6.321  0.3634 -0.1691  0.1694
  659PSPI   C3B10213  -1.145   0.103   6.641  0.1553  0.0740 -0.2447
  659PSPI   C4B10214  -1.319  -0.093   7.074  0.2429 -0.0799 -0.2935
  660PSPI    C110215  11.562  11.570   5.763  0.2589 -0.0761 -0.0026
  660PSPI    C210216  11.876  11.375   5.609  0.0488 -0.3029 -0.1502
  660PSPI    C310217  11.680  11.645   5.387  0.0493 -0.2684 -0.1088
  660PSPI   PO410218  11.655  11.517   5.988  0.1690  0.1351 -0.2103
  660PSPI   GL110219  11.796  11.847   6.306  0.1538 -0.0651 -0.0206
  660PSPI   GL210220  11.498  12.175   6.232 -0.2259 -0.2807  0.2708
  660PSPI   C1A10221  11.988  11.681   6.751 -0.0509 -0.1166  0.1159
  660PSPI   C2A10222  12.119  11.898   7.190 -0.0054  0.1619 -0.1462
  660PSPI   C3A10223  12.036  12.237   7.631 -0.0794  0.1758  0.1325
  660PSPI   C4A10224  11.644  12.385   7.840 -0.3326 -0.1203  0.0493
  660PSPI   C1B10225  11.561  12.046   6.717 -0.2446  0.2254  0.2873
  660PSPI   C2B10226  11.642  12.290   7.114 -0.0173  0.1466 -0.0949
  660PSPI   C3B10227  11.875  12.650   7.336 -0.2424 -0.0670 -0.1032
  660PSPI   C4B10228  12.067  12.794   7.711  0.3278 -0.2778  0.0514
  661PSPI    C110229   4.288  11.755   5.998 -0.0253 -0.2527  0.0787
  661PSPI    C210230   4.064  11.563   5.728 -0.2297  0.2798 -0.1454
  661PSPI    C310231   4.453  11.627   5.657 -0.1240 -0.1654 -0.0024
  661PSPI   PO410232   4.247  11.711   6.295 -0.1128 -0.0982  0.0358
  661PSPI   GL110233   4.431  11.696   6.712 -0.0083 -0.0530  0.0553
  661PSPI   GL210234   4.194  11.928   6.734 -0.1311  0.0852 -0.3118
  661PSPI   C1A10235   4.496  11.377   7.076  0.3811 -0.0138  0.4053
  661PSPI   C2A10236   4.699  11.398   7.419  0.1192  0.1025  0.2049
  661PSPI   C3A10237   4.525  11.189   7.743  0.2027 -0.1461 -0.1358
  661PSPI   C4A10238   4.422  10.934   8.119  0.3692 -0.0179  0.0847
  661PSPI   C1B10239   4.429  11.948   7.136 -0.2214 -0.2308 -0.4127
  661PSPI   C2B10240   4.632  11.853   7.348 -0.3764 -0.1361 -0.0391
  661PSPI   C3B10241   4.679  11.836   7.773 -0.0966  0.1367  0.1344
  661PSPI   C4B10242   4.831  11.800   8.247 -0.2963  0.1403 -0.2079
  662PSPI    C110243  10.999  13.822   5.993  0.2285  0.1862 -0.0438
  662PSPI    C210244  10.707  14.053   5.846  0.0186 -0.1513 -0.1684
  662PSPI    C310245  11.050  14.010   5.644  0.0074 -0.0526 -0.2087
  662PSPI   PO410246  10.973  13.901   6.235  0.1162  0.0667 -0.0628
  662PSPI   GL110247  11.105  13.843   6.621  0.1924  0.3930  0.2075
  662PSPI   GL210248  10.895  13.590   6.573  0.1379  0.2123 -0.2997
  662PSPI   C1A10249  11.088  13.852   7.126 -0.3911 -0.0677 -0.3647
  662PSPI   C2A10250  11.183  13.722   7.540  0.1053 -0.1038  0.1613
  662PSPI   C3A10251  10.901  13.561   7.876 -0.0934 -0.3105 -0.0793
  662PSPI   C4A10252  10.772  13.212   8.078 -0.0992 -0.1408  0.1970
  662PSPI   C1B10253  10.929  13.334   7.009  0.1174 -0.0238  0.0704
  662PSPI   C2B10254  10.864  13.226   7.460  0.2695 -0.0050 -0.0795
  662PSPI   C3B10255  11.013  12.914   7.715 -0.1336  0.1072 -0.2162
  662PSPI   C4B10256  11.114  12.668   8.053 -0.3570  0.1030  0.0346
  663PSPI    C110257   1.723  13.523   5.992 -0.1034  0.0163  0.1831
  663PSPI    C210258   1.791  13.141   5.894 -0.0306  0.1004 -0.1045
  663PSPI    C310259   1.437  13.308   5.813  0.0226  0.1645 -0.2066
  663PSPI   PO410260   1.858  13.453   6.268  0.0664  0.0644 -0.2095
  663PSPI   GL110261   1.790  13.251   6.657 -0.1262  0.2246  0.1890
  663PSPI   GL210262   2.120  13.381   6.682  0.1033 -0.1576 -0.1884
  663PSPI   C1A10263   1.611  13.213   6.991 -0.0252  0.0717  0.2843
  663PSPI   C2A10264   1.563  13.225   7.338 -0.1003 -0.1447 -0.1354
  663PSPI   C3A10265   1.272  13.471   7.570  0.2996  0.2647  0.0667
  663PSPI   C4A10266   1.115  13.733   7.891 -0.1501  0.0196  0.1113
  663PSPI   C1B10267   2.099  13.361   7.172 -0.0452 -0.0116 -0.1355
  663PSPI   C2B10268   2.050  13.300   7.537 -0.0564  0.2403  0.0354
  663PSPI   C3B10269   1.982  13.527   7.834  0.1097  0.0505 -0.1272
  663PSPI   C4B10270   2.185  13.895   7.974  0.2296 -0.1319  0.1786
  664PSPI    C110271  17.957   4.721   5.073  0.0415  0.0529  0.0069
  664PSPI    C210272  17.882   5.043   5.298  0.0073  0.0397  0.0144
  664PSPI    C310273  17.782   5.042   4.911 -0.0251  0.0248  0.0229
  664PSPI   PO410274  17.955   4.481   5.302  0.1208  0.0484 -0.2413
  664PSPI   GL110275  17.674   4.194   5.530 -0.3221  0.1241 -0.2172
  664PSPI   GL210276  17.295   4.116   5.494 -0.0581 -0.1389 -0.1005
  664PSPI   C1A10277  17.865   3.970   6.003  0.0334  0.0551 -0.3299
  664PSPI   C2A10278  17.586   3.770   6.298 -0.3018 -0.0490 -0.0355
  664PSPI   C3A10279  17.607   3.584   6.729 -0.0793 -0.2679 -0.0114
  664PSPI   C4A10280  17.890   3.468   7.171  0.1045 -0.1136 -0.0257
  664PSPI   C1B10281  17.289   4.282   5.908  0.1117  0.0375 -0.0336
  664PSPI   C2B10282  17.386   4.255   6.351  0.0187 -0.4130 -0.4429
  664PSPI   C3B10283  17.508   4.107   6.832 -0.1398 -0.3549 -0.2093
  664PSPI   C4B10284  17.336   4.009   7.091 -0.1509  0.0711  0.4510
  665PSPI    C110285  17.763   2.269   5.132 -0.0580 -0.0148 -0.2358
  665PSPI    C210286  17.400   2.229   5.295  0.0291  0.1353 -0.0002
  665PSPI    C310287  17.445   2.198   4.899 -0.2382  0.1056 -0.0304
  665PSPI   PO410288  18.028   2.143   5.347  0.1424  0.1149  0.0652
  665PSPI   GL110289  18.104   1.986   5.884  0.0025  0.2967 -0.0216
  665PSPI   GL210290  18.045   2.252   5.863 -0.0149  0.2653  0.0452
  665PSPI   C1A10291  18.290   2.301   6.284  0.0224 -0.2019  0.0361
  665PSPI   C2A10292  18.491   2.576   6.501  0.2414  0.0748  0.1048
  665PSPI   C3A10293  18.634   2.870   6.766 -0.1966 -0.0648 -0.1682
  665PSPI   C4A10294  18.610   2.845   7.199 -0.4901 -0.0504  0.1892
  665PSPI   C1B10295  17.760   2.198   6.143  0.1196 -0.2553 -0.2441
  665PSPI   C2B10296  17.863   2.109   6.577 -0.0259 -0.1869  0.0584
  665PSPI   C3B10297  18.108   2.229   6.824 -0.0725  0.0539 -0.1975
  665PSPI   C4B10298  18.495   2.387   6.954 -0.0662 -0.0304 -0.2476
  666PSPI    C110299   7.034   9.940   6.279 -0.0855 -0.2855  0.0546
  666PSPI    C210300   6.857  10.217   6.051  0.0545 -0.0827  0.1896
  666PSPI    C310301   7.027   9.897   5.881 -0.0142 -0.0327  0.0246
  666PSPI   PO410302   7.179  10.060   6.490  0.3330 -0.1292 -0.1020
  666PSPI   GL110303   7.157  10.407   6.759  0.0790  0.0223  0.2155
  666PSPI   GL210304   6.889  10.553   7.042 -0.1123  0.1439 -0.1718
  666PSPI   C1A10305   7.392  10.697   7.076 -0.0170  0.1654  0.1441
  666PSPI   C2A10306   7.679  10.609   7.285  0.2106  0.2567  0.1207
  666PSPI   C3A10307   7.797  10.771   7.644 -0.2062  0.0729  0.0633
  666PSPI   C4A10308   8.064  10.602   7.954 -0.1232  0.0198  0.2414
  666PSPI   C1B10309   7.019  10.531   7.499  0.0225  0.0171 -0.0485
  666PSPI   C2B10310   6.821  10.482   7.927 -0.2577 -0.0207 -0.2554
  666PSPI   C3B10311   6.668  10.206   8.179  0.0952 -0.1633  0.1515
  666PSPI   C4B10312   6.357   9.861   8.309 -0.0891  0.2707  0.0142
  667PSPI    C110313   6.846  15.954   6.157 -0.0587 -0.3752  0.2441
  667PSPI    C210314   7.134  15.956   5.880 -0.2263  0.0014  0.0663
  667PSPI    C310315   6.758  15.868   5.777 -0.3033  0.2182  0.1561
  667PSPI   PO410316   6.923  16.005   6.299  0.1774 -0.0120  0.2581
  667PSPI   GL110317   6.937  15.751   6.655  0.4394  0.1714  0.0525
  667PSPI   GL210318   7.085  15.513   6.609 -0.4945  0.1492 -0.1680
  667PSPI   C1A10319   6.967  15.996   7.053 -0.1328 -0.2328  0.0637
  667PSPI   C2A10320   6.925  16.045   7.511 -0.0924  0.0979  0.3100
  667PSPI   C3A10321   6.774  16.383   7.827  0.2073 -0.0186 -0.1548
  667PSPI   C4A10322   6.607  16.753   7.895  0.1048 -0.2123  0.2494
  667PSPI   C1B10323   7.318  15.493   7.027  0.1369  0.0050  0.1937
  667PSPI   C2B10324   7.286  15.499   7.470 -0.1723 -0.1421 -0.0716
  667PSPI   C3B10325   7.083  15.566   7.780  0.0084 -0.2032  0.0288
  667PSPI   C4B10326   7.075  15.899   8.147 -0.2125 -0.0377 -0.1658
  668PSPI    C110327  15.931   3.938   5.096 -0.0989  0.1195  0.0956
  668PSPI    C210328  15.729   3.761   5.392 -0.0526  0.2141  0.1840
  668PSPI    C310329  15.531   3.955   5.103 -0.0998  0.0839  0.1285
  668PSPI   PO410330  16.104   4.053   5.247 -0.1448 -0.2848  0.3227
  668PSPI   GL110331  16.453   3.872   5.543  0.1427 -0.1466  0.2633
  668PSPI   GL210332  16.188   3.759   5.641 -0.1126  0.1588  0.1361
  668PSPI   C1A10333  16.569   3.751   5.958 -0.1204 -0.1477 -0.5320
  668PSPI   C2A10334  16.520   3.934   6.348 -0.0109  0.0691  0.1362
  668PSPI   C3A10335  16.368   4.003   6.741 -0.1121  0.0382 -0.1445
  668PSPI   C4A10336  16.402   3.644   7.097 -0.0543  0.0385  0.1678
  668PSPI   C1B10337  16.055   3.923   6.010  0.1403 -0.1984  0.0324
  668PSPI   C2B10338  16.022   3.820   6.311  0.0528  0.0327  0.1346
  668PSPI   C3B10339  15.935   3.778   6.827 -0.0228 -0.0469  0.3561
  668PSPI   C4B10340  15.697   4.185   6.922 -0.1959 -0.3639 -0.0262
  669PSPI    C110341   8.826   9.035   6.090 -0.3524 -0.0252  0.0740
  669PSPI    C210342   8.549   9.066   5.803  0.0067 -0.0039 -0.2796
  669PSPI    C310343   8.799   9.371   5.874 -0.0363 -0.0340  0.0160
  669PSPI   PO410344   8.733   8.969   6.304 -0.0118  0.1991 -0.0967
  669PSPI   GL110345   8.548   9.048   6.571 -0.3936 -0.0280 -0.3517
  669PSPI   GL210346   8.680   8.788   6.808 -0.5281  0.1051  0.3295
  669PSPI   C1A10347   8.316   9.106   6.966  0.4593  0.0536  0.2969
  669PSPI   C2A10348   8.318   9.334   7.468  0.0194  0.0429 -0.1282
  669PSPI   C3A10349   8.411   9.542   7.812  0.1160  0.0168 -0.0176
  669PSPI   C4A10350   8.561   9.836   8.156 -0.1044  0.1865 -0.2637
  669PSPI   C1B10351   8.545   8.702   7.021  0.1128 -0.0577 -0.0985
  669PSPI   C2B10352   8.333   8.869   7.422 -0.3838 -0.0427  0.1124
  669PSPI   C3B10353   8.221   8.607   7.831 -0.0690 -0.0642  0.1811
  669PSPI   C4B10354   8.381   8.611   8.218 -0.5408 -0.3196  0.2915
  670PSPI    C110355   8.938   0.204   5.929 -0.0016 -0.0411 -0.1251
  670PSPI    C210356   8.905  -0.020   5.599 -0.1523 -0.1318 -0.0499
  670PSPI    C310357   8.706   0.326   5.627 -0.0051 -0.0400 -0.1220
  670PSPI   PO410358   8.871   0.153   6.087  0.2322 -0.3667 -0.2848
  670PSPI   GL110359   8.729   0.298   6.477  0.3099  0.1822 -0.0208
  670PSPI   GL210360   9.100   0.415   6.417  0.3225 -0.1148 -0.1783
  670PSPI   C1A10361   8.623   0.196   6.809 -0.1107  0.0466 -0.1326
  670PSPI   C2A10362   8.772   0.173   7.238 -0.0797  0.2031 -0.0279
  670PSPI   C3A10363   9.074   0.065   7.529  0.0594  0.3721 -0.0727
  670PSPI   C4A10364   9.035  -0.341   7.756  0.1496 -0.2305  0.2922
  670PSPI   C1B10365   9.104   0.370   6.845 -0.0823 -0.1006  0.5329
  670PSPI   C2B10366   9.154   0.511   7.238  0.0566  0.1604  0.0855
  670PSPI   C3B10367   9.007   0.538   7.653  0.2440 -0.0368  0.0043
  670PSPI   C4B10368   8.735   0.516   8.041  0.2803 -0.1281  0.3328
  671PSPI    C110369   7.181   0.634   6.186  0.0382  0.1920  0.0743
  671PSPI    C210370   7.363   0.490   5.860  0.0644  0.2096  0.0811
  671PSPI    C310371   7.489   0.832   6.026 -0.0003  0.2425  0.0626
  671PSPI   PO410372   7.030   0.411   6.206  0.0941  0.1996 -0.0861
  671PSPI   GL110373   6.990   0.083   6.558 -0.0378  0.1502 -0.2640
  671PSPI   GL210374   7.151   0.359   6.713  0.0005 -0.1292 -0.2780
  671PSPI   C1A10375   6.886  -0.046   6.902  0.0913 -0.2155 -0.2434
  671PSPI   C2A10376   6.982  -0.018   7.251 -0.0058  0.2900 -0.1817
  671PSPI   C3A10377   6.877   0.017   7.550  0.0556  0.0772  0.0232
  671PSPI   C4A10378   6.936  -0.002   8.000  0.0562  0.0199 -0.5318
  671PSPI   C1B10379   7.242   0.391   7.039  0.1470 -0.0560 -0.4074
  671PSPI   C2B10380   7.210   0.420   7.527  0.4877 -0.2653 -0.1432
  671PSPI   C3B10381   7.127   0.463   7.871 -0.0199  0.2914  0.1319
  671PSPI   C4B10382   7.087   0.504   8.291  0.1055  0.0762  0.1387
  672PSPI    C110383   2.406   9.204   5.473  0.0545  0.2553  0.1285
  672PSPI    C210384   2.601   9.387   5.176 -0.0158  0.1513  0.0175
  672PSPI    C310385   2.720   9.026   5.302 -0.0098  0.1784  0.0897
  672PSPI   PO410386   2.410   9.437   5.773  0.2366  0.0563 -0.0967
  672PSPI   GL110387   2.497   9.280   6.291 -0.3341  0.1583  0.0945
  672PSPI   GL210388   2.767   9.290   6.351  0.0618 -0.0910 -0.1074
  672PSPI   C1A10389   2.523   9.003   6.722 -0.0813  0.0655  0.1326
  672PSPI   C2A10390   2.411   8.834   7.232 -0.0129  0.1857 -0.1389
  672PSPI   C3A10391   2.421   9.089   7.533  0.2572 -0.0709 -0.1666
  672PSPI   C4A10392   2.294   9.319   7.634 -0.0275 -0.1054  0.0025
  672PSPI   C1B10393   2.994   9.080   6.613 -0.1244 -0.0222 -0.4786
  672PSPI   C2B10394   2.898   8.873   7.009  0.3103  0.0824 -0.3796
  672PSPI   C3B10395   2.847   8.781   7.434 -0.2001 -0.0401 -0.0409
  672PSPI   C4B10396   2.716   8.649   7.860 -0.0442 -0.0548  0.0765
  673PSPI    C110397  14.364  13.085   6.374  0.2068 -0.0510 -0.1542
  673PSPI    C210398  14.387  12.696   6.282  0.0934 -0.0727 -0.0926
  673PSPI    C310399  14.137  12.819   6.569  0.3042  0.0171  0.0547
  673PSPI   PO410400  14.660  13.154   6.396 -0.1228  0.0736 -0.1815
  673PSPI   GL110401  14.888  13.024   6.702  0.2893  0.2701 -0.1548
  673PSPI   GL210402  14.577  12.890   6.821  0.2452 -0.1482  0.0970
  673PSPI   C1A10403  14.858  13.133   7.167  0.0344  0.2067 -0.0060
  673PSPI   C2A10404  14.660  13.183   7.579  0.2885  0.1053  0.1236
  673PSPI   C3A10405  14.760  13.222   8.042  0.4085  0.0821  0.1750
  673PSPI   C4A10406  14.920  13.156   8.459  0.0773 -0.1352 -0.2284
  673PSPI   C1B10407  14.535  12.753   7.288 -0.3810 -0.3043  0.1114
  673PSPI   C2B10408  14.360  12.752   7.670  0.0722  0.1663 -0.0618
  673PSPI   C3B10409  14.462  12.814   8.109  0.2906  0.2368 -0.0243
  673PSPI   C4B10410  14.677  12.748   8.456 -0.1449  0.0465 -0.0724
  674POPI    C110411   2.591   6.890   5.449 -0.1266 -0.3765 -0.1092
  674POPI    C210412   2.275   7.071   5.283  0.0186  0.3036  0.3162
  674POPI    C310413   2.643   7.142   5.143  0.0078 -0.4628 -0.1580
  674POPI   PO410414   2.464   6.832   5.752  0.2700 -0.1502 -0.1929
  674POPI   GL110415   2.588   6.985   6.065 -0.0123 -0.1412 -0.2406
  674POPI   GL210416   2.854   6.807   6.206 -0.0554 -0.1044  0.0766
  674POPI   C1A10417   2.470   7.040   6.512 -0.2259  0.2654 -0.0090
  674POPI   D2A10418   2.527   7.134   6.849 -0.3157 -0.3160 -0.1226
  674POPI   C3A10419   2.769   6.774   7.074 -0.0531  0.2249  0.0558
  674POPI   C4A10420   3.056   6.667   7.388  0.1631  0.1574 -0.0567
  674POPI   C1B10421   2.709   6.599   6.577  0.0665  0.0482  0.1262
  674POPI   C2B10422   2.699   6.271   6.962  0.0996  0.1338 -0.0381
  674POPI   C3B10423   2.650   6.155   7.435  0.1066 -0.0067 -0.4519
  674POPI   C4B10424   2.644   5.872   7.660 -0.0425  0.1005 -0.1012
  675POPI    C110425   9.890  17.900   5.983 -0.1371 -0.0431 -0.0011
  675POPI    C210426  10.225  17.692   6.050 -0.1259 -0.0408 -0.0496
  675POPI    C310427   9.869  17.516   6.093 -0.1159 -0.0798 -0.1244
  675POPI   PO410428   9.876  18.100   6.108  0.0617  0.0611  0.1556
  675POPI   GL110429   9.889  18.303   6.450 -0.2463  0.0845 -0.0612
  675POPI   GL210430   9.568  18.516   6.659 -0.1352 -0.0053  0.1099
  675POPI   C1A10431  10.165  18.298   6.735 -0.1165  0.1075  0.2890
  675POPI   D2A10432  10.319  18.125   7.172  0.2642  0.1786 -0.5376
  675POPI   C3A10433  10.011  17.787   7.529 -0.0834 -0.1104  0.3799
  675POPI   C4A10434  10.051  17.867   8.025  0.6388  0.0507 -0.0276
  675POPI   C1B10435   9.561  18.792   7.017 -0.2760  0.4044 -0.3725
  675POPI   C2B10436   9.627  18.941   7.296  0.2477 -0.1486  0.2040
  675POPI   C3B10437   9.411  19.142   7.595  0.2964  0.0836 -0.3860
  675POPI   C4B10438   9.534  19.388   8.070  0.0642 -0.1460  0.1721
  676POPI    C110439   6.402  16.074   5.978  0.1044  0.0780  0.0255
  676POPI    C210440   6.186  15.740   5.941 -0.0057  0.1391  0.1097
  676POPI    C310441   6.092  16.064   5.726 -0.1050  0.2194  0.2723
  676POPI   PO410442   6.431  16.150   6.282  0.5399  0.5163 -0.0236
  676POPI   GL110443   6.474  16.108   6.643 -0.1404 -0.3484 -0.0901
  676POPI   GL210444   6.490  15.844   6.788 -0.0517 -0.3858 -0.1921
  676POPI   C1A10445   6.532  16.223   7.071  0.0817  0.2055  0.0788
  676POPI   D2A10446   6.459  16.410   7.449 -0.1079 -0.1044  0.1050
  676POPI   C3A10447   6.898  16.574   7.398 -0.1454 -0.2328 -0.1468
  676POPI   C4A10448   7.339  16.810   7.349 -0.0540 -0.0664 -0.1742
  676POPI   C1B10449   6.414  15.744   7.172 -0.0088 -0.1481 -0.0211
  676POPI   C2B10450   6.488  15.890   7.564  0.0643  0.0134  0.2205
  676POPI   C3B10451   6.555  15.846   7.946 -0.1054  0.0324 -0.1178
  676POPI   C4B10452   6.759  15.503   8.162  0.1955 -0.1537 -0.2898
  677POPI    C110453   0.319  12.400   5.962 -0.0027  0.1224 -0.1106
  677POPI    C210454   0.395  12.066   5.756 -0.2156 -0.0689  0.1151
  677POPI    C310455   0.695  12.269   5.926 -0.0602 -0.0171 -0.2126
  677POPI   PO410456   0.065  12.268   6.155  0.1640  0.3231 -0.2552
  677POPI   GL110457  -0.045  12.139   6.511  0.1014  0.1676 -0.1957
  677POPI   GL210458   0.074  11.836   6.603 -0.0313  0.0017 -0.1376
  677POPI   C1A10459  -0.200  12.230   6.851 -0.0390  0.0900  0.1882
  677POPI   D2A10460  -0.161  12.226   7.225 -0.0475  0.0304  0.1646
  677POPI   C3A10461   0.141  12.419   7.546 -0.0128  0.3263  0.3563
  677POPI   C4A10462   0.511  12.593   7.805  0.1200  0.0483 -0.3493
  677POPI   C1B10463   0.380  11.569   6.659  0.1994 -0.2286 -0.2498
  677POPI   C2B10464   0.615  11.826   6.855 -0.1511 -0.1711 -0.0706
  677POPI   C3B10465   0.858  11.856   7.189  0.1723  0.0129  0.0130
  677POPI   C4B10466   0.912  11.772   7.603 -0.2124  0.0550 -0.2452
  678POPI    C110467  11.129  11.771   6.013 -0.1650  0.0669  0.0677
  678POPI    C210468  11.256  11.515   6.293 -0.0254  0.0394 -0.0197
  678POPI    C310469  11.129  11.378   5.939 -0.0352  0.0855 -0.0341
  678POPI   PO410470  11.021  12.029   6.127  0.0987  0.2516  0.4742
  678POPI   GL110471  11.031  12.236   6.543  0.1727 -0.0131  0.1452
  678POPI   GL210472  11.153  11.891   6.590 -0.1559 -0.1168  0.3343
  678POPI   C1A10473  11.160  12.461   6.914  0.2770 -0.0712  0.1401
  678POPI   D2A10474  11.241  12.557   7.343  0.3253  0.0614  0.2641
  678POPI   C3A10475  11.515  12.826   7.656  0.1342 -0.5024 -0.2267
  678POPI   C4A10476  11.630  12.880   8.000  0.1378  0.0941  0.4219
  678POPI   C1B10477  11.204  11.970   7.024  0.3340 -0.2126 -0.0281
  678POPI   C2B10478  11.126  12.053   7.432  0.0583 -0.2526  0.1095
  678POPI   C3B10479  11.151  12.225   7.818 -0.1831 -0.1857  0.0161
  678POPI   C4B10480  11.358  12.328   8.310 -0.0664 -0.3540 -0.1052
  679POPI    C110481  10.377   1.618   5.949  0.0712  0.0325 -0.0802
  679POPI    C210482  10.312   1.226   5.902 -0.1952  0.0329  0.2454
  679POPI    C310483  10.046   1.491   5.765 -0.0405  0.1006  0.0715
  679POPI   PO410484  10.461   1.636   6.180  0.0692  0.2345  0.0166
  679POPI   GL110485  10.496   1.462   6.581 -0.2385  0.1833  0.2233
  679POPI   GL210486  10.715   1.654   6.690 -0.1059 -0.0153  0.0266
  679POPI   C1A10487  10.148   1.414   6.867  0.0362  0.0662  0.1100
  679POPI   D2A10488  10.182   1.442   7.339  0.0917  0.0817 -0.2347
  679POPI   C3A10489  10.006   1.852   7.521 -0.2724  0.0460 -0.3848
  679POPI   C4A10490   9.713   1.948   7.750 -0.1592 -0.1171  0.4500
  679POPI   C1B10491  10.457   1.781   7.048 -0.1529  0.0117 -0.1465
  679POPI   C2B10492  10.503   1.978   7.498 -0.2768  0.0443 -0.3372
  679POPI   C3B10493  10.327   2.187   7.804  0.0384  0.1763 -0.1837
  679POPI   C4B10494  10.010   2.118   8.132  0.0604  0.1227 -0.3445
  680POPI    C110495  17.219   2.770   5.170  0.2351  0.5304  0.3177
  680POPI    C210496  17.616   2.736   5.204  0.2124 -0.0690  0.0920
  680POPI    C310497  17.448   2.763   4.842  0.0305 -0.0536  0.1761
  680POPI   PO410498  17.179   2.706   5.413 -0.0315 -0.2605  0.1554
  680POPI   GL110499  16.772   2.884   5.570  0.1028 -0.1879  0.1366
  680POPI   GL210500  16.889   2.817   5.930  0.2966 -0.0967 -0.0215
  680POPI   C1A10501  16.488   3.154   5.982  0.0218 -0.2840 -0.1350
  680POPI   D2A10502  16.150   3.369   6.119 -0.0466  0.2608 -0.0715
  680POPI   C3A10503  15.927   3.333   6.473 -0.1880  0.0784  0.0538
  680POPI   C4A10504  15.826   3.308   6.914 -0.0504  0.2446  0.1463
  680POPI   C1B10505  16.876   2.719   6.376 -0.0170  0.0456  0.2188
  680POPI   C2B10506  16.974   2.658   6.717 -0.2129 -0.2729  0.1791
  680POPI   C3B10507  17.092   2.951   6.946  0.0703 -0.0295 -0.0238
  680POPI   C4B10508  17.018   3.091   7.412 -0.0849  0.0729  0.1571
  681POPI    C110509   5.308   1.896   5.766  0.0241 -0.1029  0.0629
  681POPI    C210510   5.227   1.686   5.435  0.0935 -0.0466  0.0099
  681POPI    C310511   4.931   1.869   5.632  0.0521 -0.0801 -0.0210
  681POPI   PO410512   5.477   1.761   5.858 -0.1566  0.2358 -0.0908
  681POPI   GL110513   5.674   1.916   6.278 -0.2881  0.0103  0.0318
  681POPI   GL210514   5.622   2.211   6.392  0.1435  0.2771  0.2142
  681POPI   C1A10515   6.044   1.976   6.515  0.0220  0.0012  0.1521
  681POPI   D2A10516   6.132   2.319   6.931 -0.0102 -0.0793 -0.3199
  681POPI   C3A10517   6.125   2.404   7.396 -0.0203 -0.1957 -0.1842
  681POPI   C4A10518   5.968   2.543   7.824  0.0801 -0.0363  0.2748
  681POPI   C1B10519   5.654   2.256   6.769 -0.2140  0.0106  0.2308
  681POPI   C2B10520   5.595   2.230   7.144 -0.1401 -0.4720  0.1977
  681POPI   C3B10521   5.592   2.067   7.544  0.4880 -0.0325  0.1268
  681POPI   C4B10522   6.020   2.046   7.777  0.1865 -0.3284 -0.0236
  682POPI    C110523   8.088  15.767   5.861  0.3622 -0.1366  0.1949
  682POPI    C210524   7.934  15.428   6.008  0.1813 -0.1452 -0.0108
  682POPI    C310525   7.903  15.510   5.617  0.2443  0.0978  0.0335
  682POPI   PO410526   8.331  15.813   6.079 -0.2375 -0.0325  0.3429
  682POPI   GL110527   8.427  15.621   6.457  0.2046 -0.0354 -0.2080
  682POPI   GL210528   8.330  15.898   6.593  0.0581  0.0553 -0.0718
  682POPI   C1A10529   8.641  15.691   6.983  0.1357  0.0771  0.1888
  682POPI   D2A10530   8.780  15.772   7.279  0.1980 -0.0842  0.1283
  682POPI   C3A10531   8.667  16.170   7.452 -0.2439  0.3561  0.2131
  682POPI   C4A10532   8.857  16.506   7.649 -0.0809  0.2934  0.1303
  682POPI   C1B10533   8.552  16.185   6.878  0.1260  0.0188 -0.0037
  682POPI   C2B10534   8.474  16.530   7.145 -0.0316 -0.0984 -0.3227
  682POPI   C3B10535   8.223  16.652   7.314  0.2192 -0.0021 -0.0745
  682POPI   C4B10536   8.223  16.693   7.711  0.0858  0.1628 -0.0330
  683POPI    C110537   9.905   9.362   5.794 -0.0058 -0.0896  0.0495
  683POPI    C210538   9.626   9.316   5.512 -0.0284 -0.0602  0.0671
  683POPI    C310539   9.859   9.640   5.510 -0.0018 -0.0794  0.0589
  683POPI   PO410540   9.763   9.334   6.041  0.1110 -0.0678 -0.0059
  683POPI   GL110541   9.640   9.240   6.438  0.1535 -0.1088  0.0839
  683POPI   GL210542   9.753   9.605   6.461  0.0136  0.2156 -0.0212
  683POPI   C1A10543   9.523   9.227   6.890 -0.2758 -0.2296  0.2920
  683POPI   D2A10544   9.526   9.112   7.337  0.0962 -0.3813 -0.2580
  683POPI   C3A10545   9.477   8.700   7.570 -0.0126 -0.0895 -0.1546
  683POPI   C4A10546   9.185   8.492   7.561  0.2151 -0.1453 -0.0975
  683POPI   C1B10547   9.426   9.774   6.791 -0.2904  0.0040 -0.1777
  683POPI   C2B10548   9.178   9.484   7.156 -0.3471 -0.0446  0.0903
  683POPI   C3B10549   9.232   9.455   7.535  0.1126 -0.1072 -0.0970
  683POPI   C4B10550   9.371   9.408   7.849  0.0647 -0.1912 -0.1275
  684POPI    C110551   4.057   6.485   5.678  0.1473  0.1858 -0.1896
  684POPI    C210552   4.099   6.877   5.745 -0.1257  0.1203  0.4296
  684POPI    C310553   4.403   6.628   5.818  0.0515  0.2095  0.0257
  684POPI   PO410554   3.739   6.457   5.761  0.0309 -0.0503 -0.3384
  684POPI   GL110555   3.548   6.438   6.087 -0.1727  0.0183 -0.1595
  684POPI   GL210556   3.213   6.494   6.062 -0.0459  0.1490  0.3369
  684POPI   C1A10557   3.396   6.722   6.428  0.2967 -0.0716  0.0064
  684POPI   D2A10558   3.167   6.938   6.669  0.0163 -0.1467 -0.0382
  684POPI   C3A10559   3.215   7.358   6.818 -0.1022 -0.1493  0.2187
  684POPI   C4A10560   2.862   7.448   7.105  0.0952  0.0138 -0.2615
  684POPI   C1B10561   3.061   6.285   6.444 -0.1523  0.2785 -0.1079
  684POPI   C2B10562   3.157   6.442   6.839 -0.2406  0.0988 -0.0704
  684POPI   C3B10563   3.442   6.587   7.137 -0.2084 -0.0001 -0.1321
  684POPI   C4B10564   3.545   6.750   7.604 -0.0452  0.1996  0.3537
  685POPI    C110565   7.051   1.679   5.554 -0.1787 -0.1406  0.0804
  685POPI    C210566   6.666   1.669   5.444 -0.0829  0.0037 -0.2844
  685POPI    C310567   6.898   1.975   5.333  0.0998 -0.0001  0.0722
  685POPI   PO410568   7.079   1.734   5.807  0.0376  0.1973 -0.0454
  685POPI   GL110569   7.312   1.670   6.230 -0.0039 -0.0003 -0.0679
  685POPI   GL210570   7.283   1.890   6.508 -0.7577 -0.0701 -0.0040
  685POPI   C1A10571   7.401   1.331   6.534 -0.2707  0.0501 -0.0547
  685POPI   D2A10572   7.221   0.925   6.570  0.1587 -0.0034 -0.0230
  685POPI   C3A10573   6.955   0.797   6.914  0.1189 -0.0965  0.2450
  685POPI   C4A10574   6.726   1.016   7.252 -0.0842  0.0375  0.0626
  685POPI   C1B10575   7.087   1.654   6.782  0.1590 -0.2241 -0.1156
  685POPI   C2B10576   7.198   1.222   6.975  0.3881 -0.3107 -0.1881
  685POPI   C3B10577   7.162   1.152   7.431 -0.2023  0.2328  0.0665
  685POPI   C4B10578   6.983   0.969   7.726  0.0938 -0.3448 -0.2373
  686POPI    C110579   4.210   0.905   5.977 -0.0199 -0.0777 -0.0942
  686POPI    C210580   4.416   1.061   5.671 -0.0049  0.0289 -0.0304
  686POPI    C310581   4.016   1.055   5.660 -0.0056  0.0722 -0.0330
  686POPI   PO410582   4.421   0.893   6.112  0.3787  0.1048 -0.1422
  686POPI   GL110583   4.635   1.028   6.501 -0.2454  0.0466  0.2634
  686POPI   GL210584   4.735   1.135   6.857 -0.1007  0.0762 -0.2296
  686POPI   C1A10585   4.203   1.199   6.715 -0.1706 -0.3490  0.0304
  686POPI   D2A10586   4.020   1.326   7.041  0.4817 -0.0366  0.3024
  686POPI   C3A10587   3.867   1.708   7.149  0.2701 -0.3591  0.1008
  686POPI   C4A10588   3.925   1.863   7.535  0.0393 -0.0653 -0.2678
  686POPI   C1B10589   4.540   1.359   7.075  0.0129  0.2642  0.0730
  686POPI   C2B10590   4.291   1.464   7.438  0.2410  0.1065 -0.1185
  686POPI   C3B10591   4.266   1.577   7.845  0.0181 -0.0530 -0.0067
  686POPI   C4B10592   4.081   1.614   8.237  0.2886  0.2275  0.1727
  687POPI    C110593   1.870   3.452   5.425 -0.1034  0.1731  0.1667
  687POPI    C210594   1.867   3.743   5.150 -0.0735  0.0155 -0.0021
  687POPI    C310595   1.972   3.371   5.047 -0.0540 -0.0436  0.2253
  687POPI   PO410596   1.990   3.547   5.639 -0.0515 -0.2693  0.0426
  687POPI   GL110597   1.985   3.911   6.009  0.0161 -0.1140  0.0949
  687POPI   GL210598   2.104   4.110   6.186  0.1610 -0.0470  0.0389
  687POPI   C1A10599   1.977   3.632   6.509 -0.0483 -0.2516 -0.0844
  687POPI   D2A10600   1.972   3.510   6.855 -0.2406 -0.0457 -0.1183
  687POPI   C3A10601   1.772   3.717   7.187  0.0481 -0.1481  0.0619
  687POPI   C4A10602   1.614   4.126   7.168 -0.2920  0.1121 -0.0128
  687POPI   C1B10603   2.085   4.102   6.565  0.1561 -0.3352  0.1134
  687POPI   C2B10604   2.053   4.072   6.948  0.1169  0.2737  0.2934
  687POPI   C3B10605   2.044   4.120   7.368  0.4162 -0.1318 -0.1031
  687POPI   C4B10606   2.129   4.377   7.746  0.0727 -0.0637 -0.0812
  688POPI    C110607   1.222   3.784   5.234 -0.0542 -0.1120  0.1411
  688POPI    C210608   1.439   3.448   5.226 -0.2577 -0.2412 -0.2194
  688POPI    C310609   1.458   3.706   4.920 -0.0236  0.1341  0.1009
  688POPI   PO410610   1.088   3.753   5.457 -0.0027  0.1865 -0.0811
  688POPI   GL110611   1.160   3.787   5.984 -0.0079  0.0567 -0.1071
  688POPI   GL210612   0.910   3.571   5.996 -0.1447  0.3861 -0.0523
  688POPI   C1A10613   1.454   3.845   6.387  0.2952 -0.1989 -0.2127
  688POPI   D2A10614   1.526   3.978   6.721  0.2679 -0.1782 -0.3161
  688POPI   C3A10615   1.114   3.943   7.018  0.2592 -0.2079 -0.3522
  688POPI   C4A10616   0.793   3.772   7.296 -0.0992  0.0912 -0.0697
  688POPI   C1B10617   1.124   3.401   6.354 -0.0094  0.0740  0.1221
  688POPI   C2B10618   1.272   3.377   6.804 -0.2008 -0.0021  0.1179
  688POPI   C3B10619   1.357   3.496   7.229 -0.0266  0.2498 -0.1469
  688POPI   C4B10620   1.212   3.389   7.612  0.0695 -0.1289  0.1477
  689POPI    C110621   7.303   9.458   5.778 -0.0296  0.1779 -0.3740
  689POPI    C210622   7.514   9.197   5.561 -0.0912  0.0002 -0.2228
  689POPI    C310623   7.133   9.119   5.651 -0.0189 -0.0084  0.0892
  689POPI   PO410624   7.383   9.469   6.002 -0.1267  0.2001 -0.1426
  689POPI   GL110625   7.291   9.494   6.483  0.1134  0.3019  0.0489
  689POPI   GL210626   7.020   9.540   6.557  0.0287 -0.1313  0.1440
  689POPI   C1A10627   7.397   9.580   6.943  0.0694  0.1944 -0.1235
  689POPI   D2A10628   7.433   9.406   7.319 -0.2142  0.1674  0.1352
  689POPI   C3A10629   7.367   9.717   7.606 -0.1476  0.2274  0.1147
  689POPI   C4A10630   7.109  10.047   7.773 -0.1296 -0.2259 -0.1529
  689POPI   C1B10631   7.006   9.361   6.988  0.2019  0.0582  0.3848
  689POPI   C2B10632   7.013   9.267   7.496  0.1461  0.0638 -0.0520
  689POPI   C3B10633   6.748   9.418   7.860 -0.1333  0.1235 -0.0723
  689POPI   C4B10634   6.789   9.727   8.171  0.1587 -0.0227 -0.1933
  690POPI    C110635  14.526   6.108   5.496 -0.1345  0.0989 -0.0230
  690POPI    C210636  14.322   5.766   5.451  0.1127 -0.0215 -0.2574
  690POPI    C310637  14.160   6.113   5.334 -0.0741 -0.0777 -0.1688
  690POPI   PO410638  14.813   6.001   5.466  0.3302 -0.0258 -0.1126
  690POPI   GL110639  15.134   5.732   5.641  0.3710 -0.1346 -0.0873
  690POPI   GL210640  15.363   5.604   5.818  0.0225  0.3392 -0.0312
  690POPI   C1A10641  15.043   5.865   6.081 -0.0539  0.1962 -0.0561
  690POPI   D2A10642  15.028   5.805   6.563 -0.1055 -0.2715  0.2329
  690POPI   C3A10643  15.335   5.799   6.897  0.0898 -0.2035 -0.1191
  690POPI   C4A10644  15.630   5.582   7.225 -0.0043  0.2523  0.1375
  690POPI   C1B10645  15.417   5.587   6.258  0.2090 -0.2071 -0.1793
  690POPI   C2B10646  15.715   5.599   6.597 -0.1673  0.0581  0.0889
  690POPI   C3B10647  15.928   5.473   6.855 -0.3453  0.0957 -0.2396
  690POPI   C4B10648  16.121   5.627   7.222  0.3538  0.1625 -0.1330
  691POPI    C110649   1.979   1.677   5.195 -0.0816  0.0286  0.0107
  691POPI    C210650   1.866   1.294   5.208  0.0806 -0.0211 -0.0229
  691POPI    C310651   1.698   1.543   4.943 -0.1338 -0.0316  0.1005
  691POPI   PO410652   2.013   1.746   5.445  0.1605  0.3312 -0.2152
  691POPI   GL110653   2.372   1.938   5.783  0.0305 -0.1891 -0.0386
  691POPI   GL210654   2.276   2.220   5.780  0.0243  0.1620  0.2923
  691POPI   C1A10655   2.531   1.659   6.114 -0.0114 -0.1516 -0.0322
  691POPI   D2A10656   2.914   1.603   6.419  0.0407 -0.1727 -0.2360
  691POPI   C3A10657   2.812   1.576   6.771 -0.2116  0.2004  0.1873
  691POPI   C4A10658   2.544   1.445   7.074 -0.3572 -0.4833 -0.0170
  691POPI   C1B10659   2.328   2.555   5.985  0.3423 -0.0719 -0.0350
  691POPI   C2B10660   2.532   2.826   6.203 -0.2014  0.0603  0.0181
  691POPI   C3B10661   2.720   3.267   6.257 -0.0575  0.2918  0.0262
  691POPI   C4B10662   3.147   3.288   6.281  0.1445  0.1337  0.0724
  692POPI    C110663  12.602   6.811   5.423  0.1532  0.0510  0.1534
  692POPI    C210664  12.386   7.139   5.503 -0.0270 -0.0442  0.0641
  692POPI    C310665  12.343   6.952   5.152  0.1883 -0.0758  0.0531
  692POPI   PO410666  12.588   6.666   5.644  0.0103 -0.0243 -0.2310
  692POPI   GL110667  12.617   6.635   6.107  0.0407 -0.2877 -0.3073
  692POPI   GL210668  12.801   6.476   6.313  0.0165 -0.1989 -0.0192
  692POPI   C1A10669  12.653   6.987   6.437 -0.3078  0.0012 -0.0637
  692POPI   D2A10670  12.802   7.305   6.761  0.0694 -0.4851 -0.0050
  692POPI   C3A10671  12.691   7.249   7.181  0.1598 -0.1239  0.0985
  692POPI   C4A10672  12.331   7.230   7.513  0.1189  0.2292  0.0801
  692POPI   C1B10673  12.835   6.607   6.695 -0.0839 -0.2991  0.2650
  692POPI   C2B10674  12.747   6.587   7.136  0.0914 -0.0841  0.1294
  692POPI   C3B10675  12.562   6.737   7.434 -0.2049 -0.4418  0.1832
  692POPI   C4B10676  12.429   6.692   7.880 -0.1651 -0.0783 -0.3096
  693POPI    C110677   3.430   2.791   5.574 -0.1035 -0.1965  0.2128
  693POPI    C210678   3.236   2.526   5.346  0.0425 -0.0243 -0.1192
  693POPI    C310679   3.049   2.856   5.474 -0.0991 -0.2169  0.1827
  693POPI   PO410680   3.619   2.803   5.506 -0.0857 -0.1924  0.3132
  693POPI   GL110681   3.977   2.802   5.804  0.2562  0.2725  0.0289
  693POPI   GL210682   4.138   3.021   5.941 -0.0869  0.1764  0.2536
  693POPI   C1A10683   3.658   2.721   6.137 -0.0558 -0.1100  0.0800
  693POPI   D2A10684   3.552   2.949   6.504 -0.0171 -0.0666 -0.2425
  693POPI   C3A10685   3.882   2.935   6.850  0.1527 -0.1497  0.0713
  693POPI   C4A10686   3.904   2.856   7.281 -0.2231 -0.1963  0.1084
  693POPI   C1B10687   3.999   3.175   6.355  0.1531 -0.0898 -0.0328
  693POPI   C2B10688   4.032   3.349   6.681 -0.0694  0.2272 -0.1716
  693POPI   C3B10689   3.935   3.429   7.074  0.0692  0.1677 -0.1391
  693POPI   C4B10690   3.786   3.387   7.362 -0.3020 -0.2791 -0.1589
  694POPI    C110691  14.334   9.841   5.728  0.0700  0.0740  0.1689
  694POPI    C210692  14.648  10.042   5.584  0.1466 -0.0716  0.1303
  694POPI    C310693  14.706   9.709   5.797  0.0186 -0.0870  0.1417
  694POPI   PO410694  14.189  10.005   5.805 -0.0750 -0.0298  0.2263
  694POPI   GL110695  13.937  10.057   6.222  0.3034  0.0202 -0.1338
  694POPI   GL210696  13.667   9.721   6.306 -0.4748  0.1914  0.0203
  694POPI   C1A10697  14.026  10.150   6.611  0.1502 -0.2032 -0.2506
  694POPI   D2A10698  14.195  10.282   7.000 -0.0975  0.0785 -0.3523
  694POPI   C3A10699  14.382  10.150   7.307 -0.1993  0.0516  0.0154
  694POPI   C4A10700  14.670   9.913   7.575 -0.0133  0.3644 -0.1268
  694POPI   C1B10701  13.598   9.558   6.699 -0.0936 -0.0674 -0.2014
  694POPI   C2B10702  13.500   9.172   6.955  0.0450 -0.2350 -0.0829
  694POPI   C3B10703  13.433   8.860   7.161  0.0406 -0.0559 -0.0233
  694POPI   C4B10704  13.353   8.455   7.037  0.2235 -0.2224 -0.0449
  695POPI    C110705   9.587   8.844   5.861  0.4477  0.0709 -0.1122
  695POPI    C210706   9.657   8.530   5.624 -0.2074 -0.2378  0.0804
  695POPI    C310707   9.470   8.852   5.478 -0.2698 -0.2729  0.0821
  695POPI   PO410708   9.796   8.794   6.100 -0.0733  0.1251 -0.1143
  695POPI   GL110709   9.760   8.572   6.508  0.2392 -0.0816  0.2261
  695POPI   GL210710   9.722   8.748   6.610  0.3246 -0.3425 -0.0124
  695POPI   C1A10711  10.077   8.488   6.863  0.1774  0.1484  0.3296
  695POPI   D2A10712   9.918   8.249   7.028 -0.1371 -0.2934  0.1706
  695POPI   C3A10713  10.039   8.025   7.303  0.0624  0.1478  0.1066
  695POPI   C4A10714  10.078   7.814   7.614 -0.1181  0.0355 -0.5126
  695POPI   C1B10715   9.708   8.776   7.032  0.0093 -0.1945 -0.2143
  695POPI   C2B10716   9.986   8.713   7.279 -0.0096 -0.1346  0.0258
  695POPI   C3B10717  10.303   8.752   7.541 -0.0734  0.2161 -0.0603
  695POPI   C4B10718  10.322   8.588   7.850 -0.2366 -0.2514  0.0930
  696POPI    C110719  12.737  11.842   5.843  0.0376 -0.0504 -0.0803
  696POPI    C210720  12.393  11.979   5.690  0.0462  0.1302  0.0581
  696POPI    C310721  12.682  11.844   5.447 -0.0710  0.0992 -0.0651
  696POPI   PO410722  12.642  11.680   6.047 -0.1235 -0.1884 -0.4115
  696POPI   GL110723  12.655  11.905   6.435  0.3075  0.0246  0.3011
  696POPI   GL210724  12.327  11.830   6.458  0.1567  0.2395 -0.1836
  696POPI   C1A10725  12.831  11.651   6.817 -0.1505 -0.0299  0.3613
  696POPI   D2A10726  12.788  11.636   7.235 -0.1821  0.1393  0.2367
  696POPI   C3A10727  12.912  11.872   7.571 -0.0139 -0.2630 -0.2033
  696POPI   C4A10728  13.006  12.042   7.905 -0.3318 -0.1702  0.0049
  696POPI   C1B10729  12.499  12.060   6.896  0.0973 -0.1418  0.0331
  696POPI   C2B10730  12.514  12.113   7.357  0.1700  0.1296 -0.0947
  696POPI   C3B10731  12.420  12.040   7.844 -0.0557 -0.0070 -0.0735
  696POPI   C4B10732  12.359  11.692   8.092  0.0454 -0.3006  0.2849
  697POPI    C110733  13.806  14.081   6.165  0.2748 -0.0077 -0.0143
  697POPI    C210734  13.479  13.853   6.201  0.0750  0.2221 -0.3210
  697POPI    C310735  13.784  13.730   5.973  0.1855  0.0311 -0.0757
  697POPI   PO410736  13.902  14.110   6.408  0.2668  0.0374 -0.0585
  697POPI   GL110737  13.994  13.761   6.778  0.0192 -0.3518  0.1632
  697POPI   GL210738  13.687  13.990   6.817 -0.0414 -0.1510 -0.1679
  697POPI   C1A10739  14.071  13.637   7.197 -0.1643 -0.1417  0.0536
  697POPI   D2A10740  14.255  13.627   7.683 -0.1465 -0.2020  0.2587
  697POPI   C3A10741  14.266  13.283   7.972  0.1535 -0.0873  0.4696
  697POPI   C4A10742  13.969  12.948   8.028 -0.1919 -0.0788  0.0910
  697POPI   C1B10743  13.598  13.919   7.177  0.0824  0.2583  0.1241
  697POPI   C2B10744  13.709  14.134   7.603  0.0078  0.0833  0.1734
  697POPI   C3B10745  13.501  14.286   7.990 -0.1503 -0.0888  0.4161
  697POPI   C4B10746  13.748  14.224   8.423  0.0292 -0.4708  0.2055
  698POPI    C110747   5.652   7.631   6.075 -0.1629  0.0538  0.2355
  698POPI    C210748   5.498   7.425   5.769  0.1138  0.0899  0.0687
  698POPI    C310749   5.424   7.817   5.804 -0.0248  0.0595  0.1222
  698POPI   PO410750   5.923   7.485   6.091 -0.1396 -0.2283 -0.0113
  698POPI   GL110751   6.027   7.454   6.586  0.1271 -0.1834  0.1072
  698POPI   GL210752   6.013   7.090   6.587  0.2688 -0.0021  0.1940
  698POPI   C1A10753   6.184   7.421   6.979  0.3904  0.3317  0.0595
  698POPI   D2A10754   6.189   7.560   7.377  0.1498 -0.2545 -0.3194
  698POPI   C3A10755   6.392   7.865   7.664 -0.3301  0.2308 -0.0381
  698POPI   C4A10756   6.505   8.154   8.034  0.2277 -0.0273  0.4754
  698POPI   C1B10757   6.077   6.735   6.872  0.2744  0.0741 -0.1633
  698POPI   C2B10758   5.980   6.672   7.211 -0.1019 -0.1449  0.3532
  698POPI   C3B10759   5.982   6.390   7.466  0.1256  0.2559 -0.1692
  698POPI   C4B10760   5.791   6.129   7.700 -0.0339  0.1371  0.2590
  699POPI    C110761  17.876   3.596   5.163  0.1396  0.0929 -0.0940
  699POPI    C210762  17.702   3.948   5.086  0.1006  0.0726 -0.0987
  699POPI    C310763  17.624   3.631   4.854  0.3299  0.1226 -0.2475
  699POPI   PO410764  17.802   3.531   5.434  0.1851 -0.4115 -0.1943
  699POPI   GL110765  17.934   3.565   5.827 -0.1766 -0.0563  0.2303
  699POPI   GL210766  17.760   3.349   6.058  0.1791 -0.0865 -0.1204
  699POPI   C1A10767  18.094   3.657   6.324 -0.1285 -0.0582  0.2233
  699POPI   D2A10768  18.309   3.638   6.673  0.1797 -0.0475 -0.1353
  699POPI   C3A10769  18.291   3.223   6.949  0.1427 -0.2344 -0.1392
  699POPI   C4A10770  18.392   3.355   7.386 -0.2610  0.0143 -0.0040
  699POPI   C1B10771  17.818   3.230   6.482  0.0581  0.1657 -0.0263
  699POPI   C2B10772  17.723   3.094   6.947 -0.3278 -0.4139 -0.1780
  699POPI   C3B10773  17.564   2.720   7.221 -0.3352 -0.3648 -0.1494
  699POPI   C4B10774  17.782   2.256   7.218 -0.0771 -0.1162  0.4784
  700POPI    C110775   2.988  17.639   5.848 -0.0547 -0.1012 -0.1408
  700POPI    C210776   2.800  17.583   5.500 -0.2646  0.2271 -0.0845
  700POPI    C310777   2.989  17.928   5.572 -0.1536  0.1302  0.0967
  700POPI   PO410778   3.104  17.316   5.902  0.0338 -0.2742 -0.1103
  700POPI   GL110779   3.127  17.047   6.324  0.0016  0.0413  0.0201
  700POPI   GL210780   3.237  16.838   6.600 -0.3079 -0.0391 -0.0580
  700POPI   C1A10781   3.125  17.289   6.729  0.0637 -0.3089  0.0339
  700POPI   D2A10782   2.842  17.453   7.044  0.1123  0.1961 -0.3971
  700POPI   C3A10783   2.542  17.311   7.405  0.1435 -0.2473  0.2673
  700POPI   C4A10784   2.671  17.107   7.859  0.0761  0.1300  0.2669
  700POPI   C1B10785   3.155  16.943   7.068  0.1866  0.1972 -0.1958
  700POPI   C2B10786   3.023  17.107   7.487  0.4026  0.0946 -0.3194
  700POPI   C3B10787   3.163  17.034   7.813 -0.0700  0.0217 -0.2497
  700POPI   C4B10788   3.200  16.644   8.106 -0.0950  0.0505  0.0912
  701POPI    C110789  15.845   9.326   5.496 -0.0085 -0.1097  0.2499
  701POPI    C210790  15.576   9.060   5.625 -0.3475  0.1414  0.0767
  701POPI    C310791  15.760   9.004   5.274 -0.0252 -0.1278  0.2826
  701POPI   PO410792  15.976   9.336   5.777 -0.0092 -0.3185  0.1683
  701POPI   GL110793  15.805   9.528   6.227  0.2232  0.1048 -0.0703
  701POPI   GL210794  16.128   9.664   6.357 -0.1063  0.2307 -0.1609
  701POPI   C1A10795  15.672   9.346   6.554 -0.4128 -0.1301 -0.0336
  701POPI   D2A10796  15.443   9.133   6.889 -0.1118  0.1104 -0.0154
  701POPI   C3A10797  15.293   9.328   7.305 -0.3528 -0.2342  0.4098
  701POPI   C4A10798  15.217   9.587   7.618 -0.0966 -0.1588 -0.1589
  701POPI   C1B10799  15.948   9.680   6.780 -0.0204  0.0476  0.1395
  701POPI   C2B10800  15.754   9.527   7.000 -0.0360  0.1178  0.2155
  701POPI   C3B10801  15.712   9.467   7.469  0.0116 -0.1296 -0.3577
  701POPI   C4B10802  15.545   9.211   7.760  0.3807 -0.1608  0.1133
  702POPI    C110803  11.560   5.138   5.817  0.2362 -0.1147 -0.0934
  702POPI    C210804  11.376   5.078   5.467 -0.1753  0.2429  0.0526
  702POPI    C310805  11.649   5.368   5.502  0.1356 -0.0298 -0.0605
  702POPI   PO410806  11.361   5.174   6.020  0.2906 -0.0942  0.0621
  702POPI   GL110807  11.356   5.364   6.415  0.0020 -0.0859 -0.0595
  702POPI   GL210808  11.022   5.204   6.622 -0.2160  0.0051  0.0298
  702POPI   C1A10809  11.637   5.663   6.664  0.2203  0.3127  0.0586
  702POPI   D2A10810  11.878   5.618   7.011 -0.2362 -0.0308  0.0399
  702POPI   C3A10811  12.005   6.093   6.999  0.0900  0.1228 -0.0313
  702POPI   C4A10812  11.983   6.317   7.303 -0.0908  0.2777 -0.1550
  702POPI   C1B10813  11.018   5.250   7.092 -0.1427 -0.1706  0.3344
  702POPI   C2B10814  10.995   5.348   7.512 -0.1089  0.2206 -0.0799
  702POPI   C3B10815  10.641   5.394   7.705 -0.2466 -0.0165 -0.3313
  702POPI   C4B10816  10.251   5.466   7.971 -0.1551  0.3757 -0.0466
  703POPI    C110817   4.607   0.088   5.867  0.2894  0.1395  0.0118
  703POPI    C210818   4.254   0.040   5.686  0.3272 -0.0992 -0.0016
  703POPI    C310819   4.572   0.160   5.476  0.2704  0.0500 -0.0033
  703POPI   PO410820   4.576   0.216   6.076 -0.1140  0.1801  0.1343
  703POPI   GL110821   4.635   0.121   6.493 -0.1373  0.1529  0.1168
  703POPI   GL210822   4.330   0.072   6.728 -0.1009 -0.1727  0.0101
  703POPI   C1A10823   4.725   0.393   6.904 -0.1750  0.1339  0.2088
  703POPI   D2A10824   4.972   0.319   7.280  0.0231  0.2895 -0.1398
  703POPI   C3A10825   5.037   0.603   7.659  0.2172 -0.3027 -0.0734
  703POPI   C4A10826   4.799   0.802   7.926 -0.2839  0.1597  0.1285
  703POPI   C1B10827   3.980   0.174   6.995 -0.1090  0.0352 -0.0536
  703POPI   C2B10828   3.989   0.352   7.394  0.1247  0.0057  0.2101
  703POPI   C3B10829   4.141   0.627   7.740  0.0588 -0.0584  0.1674
  703POPI   C4B10830   3.967   1.134   7.964  0.2316  0.0970 -0.4511
  704POPI    C110831   4.964   4.078   5.471  0.3741  0.0675  0.0844
  704POPI    C210832   5.198   4.350   5.295  0.1876  0.0241 -0.2396
  704POPI    C310833   5.321   3.971   5.326  0.1385 -0.0112 -0.4617
  704POPI   PO410834   4.903   4.103   5.744  0.0010  0.1771 -0.1107
  704POPI   GL110835   4.781   4.031   6.185  0.0092  0.1049 -0.0135
  704POPI   GL210836   4.476   3.683   6.250  0.0096  0.1693  0.0336
  704POPI   C1A10837   5.000   4.086   6.517  0.0032  0.0897 -0.1495
  704POPI   D2A10838   5.348   3.937   6.639  0.0529  0.3698  0.4147
  704POPI   C3A10839   5.403   3.999   7.070  0.4429 -0.1399 -0.3398
  704POPI   C4A10840   5.391   4.132   7.508 -0.0922  0.3411  0.0173
  704POPI   C1B10841   4.070   3.774   6.467 -0.1344  0.1516  0.4563
  704POPI   C2B10842   3.714   3.949   6.720  0.0539 -0.0383  0.1954
  704POPI   C3B10843   3.355   4.062   6.872 -0.2458  0.0411 -0.0195
  704POPI   C4B10844   2.926   4.130   6.877 -0.0915  0.2213  0.2002
  705POPI    C110845  17.360  15.269   5.623 -0.0658  0.0983 -0.2474
  705POPI    C210846  17.650  15.531   5.706 -0.0975  0.0263  0.1058
  705POPI    C310847  17.741  15.175   5.549 -0.0072  0.0525  0.0982
  705POPI   PO410848  17.187  15.286   5.809 -0.2326  0.1102  0.3633
  705POPI   GL110849  16.885  15.012   6.066  0.1236  0.0614  0.1544
  705POPI   GL210850  16.845  15.255   6.188  0.2075  0.0168 -0.1853
  705POPI   C1A10851  16.853  14.699   6.392 -0.0208  0.2916 -0.0977
  705POPI   D2A10852  17.187  14.739   6.783  0.1176  0.0649 -0.0497
  705POPI   C3A10853  17.512  15.041   6.726 -0.1830  0.0134  0.2391
  705POPI   C4A10854  17.755  15.470   6.884 -0.1374  0.0021 -0.4572
  705POPI   C1B10855  16.950  15.138   6.627 -0.3597 -0.1720 -0.1770
  705POPI   C2B10856  16.900  15.022   7.107 -0.0556 -0.1864 -0.0259
  705POPI   C3B10857  16.885  15.229   7.517 -0.2604  0.1717 -0.1562
  705POPI   C4B10858  16.665  15.317   7.862  0.0936  0.1811  0.1522
  706POPI    C110859   8.846   9.889   5.757  0.2001  0.0584  0.1748
  706POPI    C210860   8.448   9.930   5.751  0.1672 -0.2529 -0.0863
  706POPI    C310861   8.680  10.204   5.574  0.0666 -0.1107 -0.0004
  706POPI   PO410862   8.869   9.883   5.992 -0.2030 -0.0995  0.3530
  706POPI   GL110863   8.863  10.038   6.407  0.1608 -0.3101 -0.1660
  706POPI   GL210864   9.133  10.169   6.648 -0.0768 -0.2534 -0.0743
  706POPI   C1A10865   8.918   9.905   6.960  0.2257 -0.1539  0.2494
  706POPI   D2A10866   9.238   9.976   7.284  0.0344 -0.0663 -0.1455
  706POPI   C3A10867   9.354   9.946   7.707  0.0529 -0.0086  0.0152
  706POPI   C4A10868   9.259   9.870   8.107 -0.0253  0.1681  0.1791
  706POPI   C1B10869   9.228  10.431   6.985  0.1113  0.0952  0.2411
  706POPI   C2B10870   9.442  10.430   7.408 -0.0577  0.1729 -0.0478
  706POPI   C3B10871   9.451  10.416   7.846 -0.0106  0.1828  0.0026
  706POPI   C4B10872   9.209  10.496   8.112 -0.1291 -0.2471  0.0026
  707POPI    C110873   1.718  10.767   5.860  0.1537 -0.0519 -0.2334
  707POPI    C210874   1.465  10.921   5.592 -0.1262 -0.1368 -0.0221
  707POPI    C310875   1.660  10.581   5.511 -0.0955 -0.0832 -0.1767
  707POPI   PO410876   1.601  10.826   6.094  0.0260 -0.1595 -0.0568
  707POPI   GL110877   1.749  10.937   6.434  0.0027  0.1805 -0.0792
  707POPI   GL210878   1.476  10.798   6.738 -0.0151  0.0566  0.1431
  707POPI   C1A10879   1.987  10.937   6.850  0.3237  0.0263  0.2412
  707POPI   D2A10880   2.238  10.666   7.098 -0.2302  0.0005 -0.0836
  707POPI   C3A10881   1.972  10.645   7.453  0.2309 -0.0444 -0.1377
  707POPI   C4A10882   1.670  10.810   7.824  0.2000  0.0031 -0.1462
  707POPI   C1B10883   1.150  10.569   6.939  0.0904 -0.1227 -0.0345
  707POPI   C2B10884   0.993  10.527   7.377  0.0058  0.2193  0.0666
  707POPI   C3B10885   0.774  10.534   7.815 -0.2975  0.1461 -0.1356
  707POPI   C4B10886   0.475  10.523   8.224 -0.2204  0.2398  0.0140
  708POPI    C110887  16.517   1.726   5.406  0.2444 -0.0696 -0.0061
  708POPI    C210888  16.501   1.712   5.806  0.2060  0.0074 -0.0047
  708POPI    C310889  16.195   1.573   5.588  0.4455 -0.5250 -0.0190
  708POPI   PO410890  16.762   1.558   5.363  0.1123  0.0866  0.0182
  708POPI   GL110891  16.923   1.375   5.613 -0.1609 -0.2089  0.2537
  708POPI   GL210892  17.096   1.045   5.682  0.1670  0.2420 -0.0410
  708POPI   C1A10893  16.821   1.390   6.051 -0.0981 -0.2221 -0.0308
  708POPI   D2A10894  16.672   1.423   6.450  0.0325  0.2225  0.0657
  708POPI   C3A10895  16.904   1.737   6.807 -0.2571 -0.0698  0.1104
  708POPI   C4A10896  17.149   1.735   7.165 -0.0626  0.1753 -0.2631
  708POPI   C1B10897  17.360   1.202   6.055  0.3338  0.0055  0.2679
  708POPI   C2B10898  17.345   1.274   6.434  0.1713 -0.1338  0.0842
  708POPI   C3B10899  17.467   1.333   6.849 -0.3446 -0.0554  0.0293
  708POPI   C4B10900  17.487   1.313   7.271  0.1349 -0.0089  0.3178
  709POPI    C110901   4.189  12.215   6.131 -0.1320  0.2097 -0.1884
  709POPI    C210902   3.840  12.403   6.073 -0.3142 -0.1080 -0.1462
  709POPI    C310903   3.930  12.077   5.859 -0.0757 -0.0732 -0.1019
  709POPI   PO410904   4.221  12.341   6.392 -0.2089  0.2243 -0.1255
  709POPI   GL110905   4.206  12.409   6.881  0.1829 -0.0793  0.2819
  709POPI   GL210906   4.012  12.674   6.969  0.0405 -0.2980  0.0532
  709POPI   C1A10907   3.978  12.142   7.177  0.1926 -0.0293  0.1895
  709POPI   D2A10908   4.079  12.103   7.551 -0.2589  0.2125 -0.1155
  709POPI   C3A10909   4.108  12.376   7.858 -0.1692  0.1756  0.0337
  709POPI   C4A10910   4.293  12.475   8.261 -0.1462 -0.1185 -0.0653
  709POPI   C1B10911   3.800  12.554   7.430  0.0593 -0.2004 -0.1956
  709POPI   C2B10912   3.554  12.460   7.770  0.0951  0.0244  0.0581
  709POPI   C3B10913   3.294  12.245   8.036  0.4193  0.1621 -0.2134
  709POPI   C4B10914   2.866  12.375   8.299 -0.0566 -0.2761  0.0161
  710POPI    C110915  15.070   4.010   5.205 -0.0092  0.1293  0.0298
  710POPI    C210916  15.193   3.631   5.240  0.1148  0.1775  0.1191
  710POPI    C310917  15.124   3.785   4.878 -0.0508  0.0337  0.0881
  710POPI   PO410918  15.188   4.128   5.439 -0.2953 -0.1521 -0.2082
  710POPI   GL110919  15.318   4.103   5.879  0.1783 -0.1493  0.1550
  710POPI   GL210920  15.602   3.950   5.876  0.2860 -0.0229  0.0011
  710POPI   C1A10921  15.167   3.872   6.095  0.1101 -0.2313 -0.2724
  710POPI   D2A10922  14.951   3.835   6.533 -0.0426  0.1510  0.1321
  710POPI   C3A10923  14.803   4.180   6.673  0.1640  0.1380  0.2607
  710POPI   C4A10924  14.572   4.471   6.865 -0.0069  0.4434 -0.0499
  710POPI   C1B10925  15.733   4.242   6.129 -0.2867  0.2850 -0.2457
  710POPI   C2B10926  15.800   4.470   6.445  0.2683  0.1355 -0.0149
  710POPI   C3B10927  15.577   4.601   6.626 -0.2122  0.2273 -0.0942
  710POPI   C4B10928  15.668   4.807   7.062  0.3975  0.1165 -0.1175
  711POPI    C110929   3.928  16.215   6.058  0.1869  0.0926  0.2184
  711POPI    C210930   4.195  16.022   6.284  0.1008 -0.3961 -0.0807
  711POPI    C310931   4.296  16.145   5.917  0.0688 -0.1139  0.0031
  711POPI   PO410932   3.823  16.386   6.213  0.2341  0.0014 -0.3449
  711POPI   GL110933   3.678  16.583   6.647  0.0684  0.2083  0.1678
  711POPI   GL210934   3.802  16.200   6.651  0.1447 -0.1833  0.2139
  711POPI   C1A10935   3.563  16.645   7.091 -0.0480 -0.2335 -0.0829
  711POPI   D2A10936   3.557  16.938   7.487 -0.0304 -0.1716 -0.2310
  711POPI   C3A10937   3.729  16.859   7.970  0.2001  0.0869 -0.2198
  711POPI   C4A10938   3.659  16.573   8.334  0.0031 -0.2167  0.3664
  711POPI   C1B10939   4.092  16.350   6.920 -0.1620 -0.0646 -0.0251
  711POPI   C2B10940   4.394  16.600   7.114 -0.0622  0.0807 -0.1701
  711POPI   C3B10941   4.596  16.952   7.015  0.0500  0.2417  0.0514
  711POPI   C4B10942   4.784  17.306   6.778  0.0940 -0.1632 -0.1426
  712POPI    C110943   1.940   7.549   5.530 -0.1509  0.2804 -0.0451
  712POPI    C210944   2.165   7.790   5.757 -0.3013  0.3026  0.0823
  712POPI    C310945   2.220   7.779   5.361  0.1394  0.0730  0.1441
  712POPI   PO410946   1.722   7.433   5.849 -0.0473  0.0846  0.0848
  712POPI   GL110947   1.855   7.711   6.143 -0.0036 -0.1648 -0.1173
  712POPI   GL210948   2.240   7.902   6.208  0.1906  0.1760 -0.0755
  712POPI   C1A10949   1.849   7.571   6.586 -0.0547  0.0897 -0.0008
  712POPI   D2A10950   1.664   7.489   6.892 -0.1176  0.3149  0.0408
  712POPI   C3A10951   1.826   7.482   7.338 -0.0615 -0.0261 -0.2897
  712POPI   C4A10952   1.707   7.314   7.836 -0.0963  0.2181  0.0558
  712POPI   C1B10953   2.226   8.085   6.635  0.2442  0.4126 -0.1655
  712POPI   C2B10954   2.358   8.038   7.089  0.0197 -0.0004  0.1561
  712POPI   C3B10955   2.630   7.913   7.388  0.0001 -0.1610 -0.2282
  712POPI   C4B10956   2.727   7.882   7.957  0.5146  0.0949  0.6299
  713POPI    C110957  17.751  15.373   6.228  0.0831 -0.2311  0.2260
  713POPI    C210958  17.407  15.169   6.243  0.0253 -0.1409  0.1422
  713POPI    C310959  17.711  15.032   6.023 -0.2150  0.1595 -0.3967
  713POPI   PO410960  17.636  15.678   6.223  0.0121 -0.2074  0.0743
  713POPI   GL110961  17.594  15.984   6.541  0.0083  0.0688 -0.1859
  713POPI   GL210962  17.343  16.011   6.416  0.0657 -0.1076 -0.1881
  713POPI   C1A10963  17.511  15.940   7.004 -0.1499  0.1937 -0.2358
  713POPI   D2A10964  17.486  15.938   7.437 -0.4579  0.2532 -0.1777
  713POPI   C3A10965  17.870  16.040   7.758 -0.1356 -0.2179 -0.1105
  713POPI   C4A10966  18.220  15.982   8.094  0.1255  0.2506 -0.0455
  713POPI   C1B10967  17.542  16.407   6.790 -0.1802 -0.3548  0.0425
  713POPI   C2B10968  17.442  16.369   7.212  0.0079  0.2842 -0.0581
  713POPI   C3B10969  17.474  16.379   7.668 -0.1344 -0.0326 -0.1677
  713POPI   C4B10970  17.605  16.391   8.105 -0.2491  0.4203  0.2974
  714POPI    C110971   2.354  13.891   6.152 -0.1216  0.1520 -0.0951
  714POPI    C210972   2.664  13.781   5.924  0.0736 -0.0365  0.2535
  714POPI    C310973   2.670  14.134   6.113 -0.0893  0.1208 -0.0297
  714POPI   PO410974   2.254  13.756   6.321  0.3018  0.1489  0.2715
  714POPI   GL110975   2.026  13.877   6.648  0.0005 -0.0347  0.3067
  714POPI   GL210976   1.904  14.092   6.774 -0.0989 -0.0794 -0.3106
  714POPI   C1A10977   2.220  13.945   7.096  0.4686 -0.0526 -0.0230
  714POPI   D2A10978   2.205  14.073   7.498 -0.3967  0.1073  0.1082
  714POPI   C3A10979   2.617  14.041   7.794  0.3059 -0.0077 -0.0652
  714POPI   C4A10980   2.850  14.401   8.045  0.3217 -0.2631 -0.2504
  714POPI   C1B10981   2.149  14.463   6.873  0.0777  0.2540 -0.0505
  714POPI   C2B10982   2.149  14.621   7.279  0.0608 -0.0665 -0.0018
  714POPI   C3B10983   2.105  14.493   7.693  0.1489 -0.0868 -0.0604
  714POPI   C4B10984   2.051  14.778   8.065  0.1644 -0.0872 -0.1732
  715POPI    C110985   9.021   2.419   6.096 -0.0159  0.2563  0.0388
  715POPI    C210986   9.302   2.364   6.375 -0.0469 -0.3079 -0.0310
  715POPI    C310987   9.046   2.669   6.407  0.4683  0.1238  0.1153
  715POPI   PO410988   8.894   2.174   6.046  0.0361  0.0483 -0.1122
  715POPI   GL110989   8.650   2.085   6.313  0.0580 -0.0264 -0.0842
  715POPI   GL210990   8.622   2.376   6.400  0.2177 -0.1372 -0.0002
  715POPI   C1A10991   8.632   1.893   6.761 -0.0352  0.1274 -0.1469
  715POPI   D2A10992   8.550   1.931   7.176 -0.1003  0.1567 -0.1107
  715POPI   C3A10993   8.680   2.330   7.300 -0.1652 -0.0854  0.0063
  715POPI   C4A10994   8.737   2.739   7.368 -0.1807  0.0674  0.0010
  715POPI   C1B10995   8.437   2.431   6.851 -0.1255  0.0645 -0.2630
  715POPI   C2B10996   8.283   2.687   7.188  0.3036  0.2279  0.0436
  715POPI   C3B10997   8.331   2.889   7.587 -0.0880 -0.2745  0.1191
  715POPI   C4B10998   8.735   2.861   7.998 -0.0341  0.2104  0.1689
  716POPI    C110999   6.573   9.834   6.207 -0.0286  0.0797  0.0736
  716POPI    C211000   6.275  10.046   6.045 -0.0935  0.0086  0.0992
  716POPI    C311001   6.336   9.667   5.931  0.1321  0.0950 -0.0755
  716POPI   PO411002   6.540   9.762   6.517  0.1132 -0.2031 -0.2698
  716POPI   GL111003   6.534   9.872   6.961 -0.3757 -0.2386  0.1082
  716POPI   GL211004   6.456  10.250   7.013 -0.2354  0.1736  0.2451
  716POPI   C1A11005   6.585   9.481   7.204  0.0681  0.0226  0.2067
  716POPI   D2A11006   6.514   9.144   7.578 -0.1671 -0.1152  0.1674
  716POPI   C3A11007   6.295   8.722   7.642 -0.2909  0.0245  0.2215
  716POPI   C4A11008   6.139   8.322   7.605  0.1575 -0.0605 -0.1449
  716POPI   C1B11009   6.153   9.887   7.234 -0.0557  0.2752 -0.2422
  716POPI   C2B11010   6.215   9.533   7.517  0.3372  0.0826 -0.0196
  716POPI   C3B11011   6.142   9.392   7.959  0.0305 -0.2402  0.2847
  716POPI   C4B11012   5.859   9.646   8.233 -0.1360  0.1982 -0.0341
  717POPI    C111013  16.456  14.953   5.645  0.2829 -0.1259  0.0796
  717POPI    C211014  16.667  15.291   5.679  0.1010  0.0182 -0.1811
  717POPI    C311015  16.409  15.247   5.377 -0.1966 -0.1799  0.0958
  717POPI   PO411016  16.451  14.861   5.825 -0.1016 -0.2216  0.6960
  717POPI   GL111017  16.376  14.851   6.233 -0.0490  0.2456 -0.4417
  717POPI   GL211018  16.033  15.016   6.353  0.1604  0.1314  0.2624
  717POPI   C1A11019  16.484  14.790   6.717  0.1846 -0.0273  0.0237
  717POPI   D2A11020  16.323  14.840   7.157 -0.0090  0.0591  0.2306
  717POPI   C3A11021  16.482  14.810   7.501 -0.0568  0.0933  0.1592
  717POPI   C4A11022  16.212  14.956   7.852 -0.2898  0.2131  0.1028
  717POPI   C1B11023  15.996  15.058   6.789 -0.0834 -0.0800 -0.1404
  717POPI   C2B11024  15.899  15.185   7.251  0.0580  0.0351  0.0946
  717POPI   C3B11025  15.784  15.021   7.566 -0.0512 -0.2133 -0.2375
  717POPI   C4B11026  15.763  14.803   7.974  0.0279  0.1954 -0.4792
  718POPI    C111027  15.127  13.676   6.202  0.0332 -0.2146  0.0856
  718POPI    C211028  15.007  13.645   5.822  0.0319  0.0314  0.0645
  718POPI    C311029  15.226  13.959   5.938 -0.0238 -0.0085  0.2821
  718POPI   PO411030  14.928  13.640   6.312  0.0085 -0.1100  0.0612
  718POPI   GL111031  14.868  13.517   6.733 -0.2040  0.1838 -0.0052
  718POPI   GL211032  14.538  13.397   6.829  0.1712  0.1218  0.2626
  718POPI   C1A11033  15.075  13.760   7.034 -0.2188  0.0051 -0.1628
  718POPI   D2A11034  15.057  13.553   7.307 -0.0534 -0.0414 -0.1554
  718POPI   C3A11035  14.767  13.718   7.668 -0.0520  0.0761  0.2574
  718POPI   C4A11036  14.506  13.953   8.006  0.0858  0.3405 -0.0193
  718POPI   C1B11037  14.554  13.587   7.143  0.0024 -0.4653 -0.1474
  718POPI   C2B11038  14.430  14.003   7.428  0.0182 -0.1899  0.3022
  718POPI   C3B11039  14.213  14.226   7.654 -0.0852  0.1070  0.1867
  718POPI   C4B11040  13.939  13.980   7.998 -0.2748  0.1870  0.1359
  719POPI    C111041   3.868   1.721   5.817  0.0246 -0.1241  0.0587
  719POPI    C211042   3.862   1.505   5.481  0.0705  0.1133 -0.0975
  719POPI    C311043   3.797   1.899   5.466  0.0624  0.1240  0.1745
  719POPI   PO411044   4.023   1.445   5.984 -0.0700  0.2130  0.2106
  719POPI   GL111045   3.831   1.111   6.228  0.1564 -0.3217 -0.0922
  719POPI   GL211046   3.893   0.748   6.297 -0.1905 -0.0664  0.0037
  719POPI   C1A11047   3.751   1.147   6.647 -0.0757  0.3187 -0.2630
  719POPI   D2A11048   3.777   0.899   7.088  0.0657  0.1528 -0.1739
  719POPI   C3A11049   3.374   1.151   7.267  0.2682  0.0236  0.1386
  719POPI   C4A11050   2.982   1.167   7.051  0.0994 -0.2303 -0.0669
  719POPI   C1B11051   3.734   0.620   6.631  0.0250  0.4242 -0.1067
  719POPI   C2B11052   3.561   0.500   7.060 -0.0283  0.0865  0.0686
  719POPI   C3B11053   3.543   0.645   7.455  0.4156 -0.0533  0.1308
  719POPI   C4B11054   3.524   0.949   7.777 -0.0026 -0.2032 -0.0633
  720POPI    C111055   7.302  12.318   6.115  0.1292 -0.1882 -0.3440
  720POPI    C211056   7.023  12.032   6.114 -0.1364  0.0519  0.2805
  720POPI    C311057   6.960  12.373   5.915  0.0254 -0.1695 -0.1633
  720POPI   PO411058   7.414  12.342   6.293 -0.0886 -0.0288 -0.0059
  720POPI   GL111059   7.533  12.496   6.595  0.0304 -0.1050 -0.1015
  720POPI   GL211060   7.322  12.781   6.598 -0.0778 -0.0453  0.4155
  720POPI   C1A11061   7.269  12.554   7.028 -0.0342 -0.1142  0.3931
  720POPI   D2A11062   6.890  12.600   7.341 -0.2417 -0.1098 -0.1943
  720POPI   C3A11063   6.965  12.494   7.872  0.2006  0.2832  0.3013
  720POPI   C4A11064   6.996  12.295   8.314 -0.0784  0.3763  0.2013
  720POPI   C1B11065   7.577  12.907   6.992  0.0695  0.0654 -0.1805
  720POPI   C2B11066   7.422  12.892   7.407  0.0568 -0.0847 -0.0125
  720POPI   C3B11067   7.240  12.908   7.781  0.1087 -0.2745 -0.0181
  720POPI   C4B11068   7.197  12.839   8.256 -0.3103  0.2331 -0.1275
  721POPS   CNO11069  16.962   6.665   5.288 -0.0409  0.1028 -0.1779
  721POPS   PO411070  17.038   6.213   5.401  0.1766 -0.1177 -0.1754
  721POPS   GL111071  16.736   6.073   5.764  0.0010 -0.1323 -0.1276
  721POPS   GL211072  16.370   6.295   5.789 -0.1572  0.0224 -0.2616
  721POPS   C1A11073  16.858   6.104   6.164  0.1092  0.1682 -0.0599
  721POPS   D2A11074  17.098   5.813   6.417 -0.3693  0.1422  0.0144
  721POPS   C3A11075  17.187   5.797   6.783 -0.1700 -0.0059 -0.1596
  721POPS   C4A11076  17.481   5.733   7.045 -0.3693  0.1264 -0.0465
  721POPS   C1B11077  16.177   6.251   6.122 -0.0716 -0.4017  0.0052
  721POPS   C2B11078  16.431   6.300   6.428 -0.0510 -0.1902  0.0362
  721POPS   C3B11079  16.794   6.108   6.733 -0.2457 -0.1543 -0.0381
  721POPS   C4B11080  16.991   6.174   7.168  0.2667  0.3078 -0.1843
  722POPS   CNO11081   0.037  11.339   6.392 -0.1494 -0.0126 -0.2208
  722POPS   PO411082  -0.245  11.112   6.140 -0.0428 -0.1522  0.3294
  722POPS   GL111083  -0.308  10.954   6.602 -0.2378  0.0752  0.0141
  722POPS   GL211084  -0.430  11.230   6.609  0.0317 -0.1180  0.1698
  722POPS   C1A11085  -0.230  10.820   7.073  0.0467 -0.1491 -0.0291
  722POPS   D2A11086   0.106  10.904   7.496  0.0791  0.0592 -0.0915
  722POPS   C3A11087   0.030  10.825   7.942 -0.3012 -0.0880 -0.0979
  722POPS   C4A11088  -0.054  10.542   8.320  0.2255  0.0789  0.0240
  722POPS   C1B11089  -0.540  11.330   7.055  0.0414 -0.2289 -0.1631
  722POPS   C2B11090  -0.255  11.187   7.475 -0.0707 -0.2796 -0.0385
  722POPS   C3B11091  -0.020  11.315   7.885 -0.1069  0.4184  0.2265
  722POPS   C4B11092   0.282  11.197   8.119  0.0451 -0.0497  0.2340
  723POPS   CNO11093  12.800   8.054   5.435  0.2320 -0.0820 -0.1421
  723POPS   PO411094  12.481   7.990   5.780 -0.2178  0.0241  0.1175
  723POPS   GL111095  12.534   7.887   6.244  0.3097  0.4772 -0.1612
  723POPS   GL211096  12.553   8.255   6.294 -0.1247 -0.0715  0.4697
  723POPS   C1A11097  12.736   7.755   6.631  0.2688  0.0590  0.2921
  723POPS   D2A11098  12.860   7.770   7.044 -0.3493  0.1104 -0.3660
  723POPS   C3A11099  12.866   7.940   7.409  0.1518 -0.2708  0.2419
  723POPS   C4A11100  12.858   7.547   7.640 -0.1294 -0.3668 -0.2253
  723POPS   C1B11101  12.294   8.091   6.621 -0.0118  0.1656 -0.1348
  723POPS   C2B11102  12.199   8.183   6.967  0.0324  0.3475 -0.2984
  723POPS   C3B11103  12.210   8.325   7.381 -0.4279 -0.0773  0.0911
  723POPS   C4B11104  12.357   8.394   7.734 -0.0598 -0.3983 -0.0448
  724POPS   CNO11105   7.990   4.177   6.377 -0.0600  0.0603 -0.0854
  724POPS   PO411106   7.952   4.608   6.345 -0.0942  0.0886 -0.2080
  724POPS   GL111107   8.202   4.580   6.701 -0.1471  0.3378  0.0361
  724POPS   GL211108   8.407   4.222   6.776  0.0043 -0.3047 -0.3800
  724POPS   C1A11109   8.467   4.522   7.101 -0.2992  0.1953 -0.2307
  724POPS   D2A11110   8.682   4.619   7.456  0.0425 -0.1713  0.1634
  724POPS   C3A11111   8.682   4.741   7.856 -0.0008 -0.1072 -0.1129
  724POPS   C4A11112   8.827   4.670   8.320  0.0096 -0.0813 -0.2830
  724POPS   C1B11113   8.176   4.137   7.195 -0.0404 -0.0495 -0.0848
  724POPS   C2B11114   8.278   4.323   7.546  0.3641 -0.0651 -0.0390
  724POPS   C3B11115   8.198   4.447   7.936  0.1295 -0.2872 -0.3089
  724POPS   C4B11116   8.329   4.689   8.313  0.0273 -0.0928 -0.3015
  725POPS   CNO11117  14.722   5.548   5.273 -0.0452 -0.2134  0.1312
  725POPS   PO411118  14.943   5.231   5.109 -0.1130 -0.1275 -0.3869
  725POPS   GL111119  14.977   5.205   5.652 -0.1437 -0.0128 -0.3765
  725POPS   GL211120  14.859   4.933   5.609  0.3524  0.3932 -0.1583
  725POPS   C1A11121  14.977   5.347   6.051  0.0787 -0.2970 -0.4897
  725POPS   D2A11122  14.935   5.230   6.472 -0.1118 -0.0439 -0.0603
  725POPS   C3A11123  15.303   5.239   6.833 -0.1843 -0.0632 -0.0595
  725POPS   C4A11124  15.345   5.107   7.336  0.2639  0.1434 -0.0221
  725POPS   C1B11125  14.922   4.787   6.007  0.1942 -0.1238 -0.1501
  725POPS   C2B11126  15.144   4.746   6.486  0.1588 -0.1078 -0.1034
  725POPS   C3B11127  15.151   4.709   6.941 -0.0797 -0.1831 -0.0264
  725POPS   C4B11128  15.201   4.597   7.267  0.1007  0.1567 -0.2304
  726POPS   CNO11129  13.289   8.316   5.973 -0.0322 -0.3253 -0.1687
  726POPS   PO411130  13.008   8.039   5.924 -0.0665 -0.0704  0.0631
  726POPS   GL111131  13.059   7.976   6.315  0.0088 -0.1405 -0.1219
  726POPS   GL211132  13.329   7.751   6.363  0.2536 -0.0486 -0.0180
  726POPS   C1A11133  13.006   8.176   6.694 -0.1745  0.0743 -0.1534
  726POPS   D2A11134  12.699   8.242   7.037 -0.0020 -0.0333  0.2024
  726POPS   C3A11135  12.462   8.670   7.168  0.2423  0.4366 -0.2951
  726POPS   C4A11136  12.212   8.875   7.490 -0.5789  0.0797  0.0458
  726POPS   C1B11137  13.224   7.614   6.805 -0.0208 -0.0329  0.0393
  726POPS   C2B11138  13.351   7.873   7.211  0.5259  0.0855 -0.1279
  726POPS   C3B11139  13.300   8.033   7.648  0.1982 -0.0984  0.0057
  726POPS   C4B11140  13.219   7.992   7.977 -0.0660  0.1642 -0.0250
  727POPS   CNO11141  10.738  14.350   6.298  0.3645 -0.2001  0.2428
  727POPS   PO411142  10.933  14.705   6.521  0.0055 -0.0452  0.4625
  727POPS   GL111143  10.833  14.482   6.749 -0.3841  0.2692 -0.0355
  727POPS   GL211144  10.989  14.290   6.789 -0.1974  0.1344 -0.3641
  727POPS   C1A11145  10.500  14.334   7.117 -0.1106 -0.2250 -0.3148
  727POPS   D2A11146  10.446  14.240   7.443  0.1032 -0.0727 -0.2604
  727POPS   C3A11147  10.799  14.079   7.725 -0.3274 -0.1301  0.0396
  727POPS   C4A11148  11.142  14.016   8.051  0.1017 -0.0233  0.1718
  727POPS   C1B11149  10.986  14.285   7.236  0.1884 -0.0943 -0.4042
  727POPS   C2B11150  11.029  14.521   7.647 -0.1907  0.2290 -0.2643
  727POPS   C3B11151  10.905  14.752   7.995 -0.0190  0.1742 -0.3441
  727POPS   C4B11152  10.775  14.785   8.488 -0.0230  0.4752 -0.3728
  728POPS   CNO11153   9.115   1.234   6.254 -0.1219  0.3072  0.0843
  728POPS   PO411154   8.770   1.121   6.171 -0.2422 -0.1650  0.4218
  728POPS   GL111155   8.437   1.034   6.401  0.0021  0.4327  0.2806
  728POPS   GL211156   8.191   1.224   6.409  0.0380  0.0353 -0.4278
  728POPS   C1A11157   8.311   0.888   6.798 -0.0702 -0.0821  0.0332
  728POPS   D2A11158   8.159   0.916   7.267 -0.0692 -0.0813  0.0073
  728POPS   C3A11159   7.979   1.192   7.534 -0.2049 -0.1253  0.0151
  728POPS   C4A11160   8.024   1.437   7.927 -0.0153  0.0991 -0.1040
  728POPS   C1B11161   7.892   1.234   6.821 -0.0780  0.0260  0.0858
  728POPS   C2B11162   7.662   1.338   7.158  0.2078  0.3146 -0.0674
  728POPS   C3B11163   7.706   1.650   7.564 -0.1171  0.1651  0.2436
  728POPS   C4B11164   7.565   1.708   7.997 -0.0868  0.0118 -0.0278
  729POPS   CNO11165   9.696   1.141   6.044 -0.0814  0.3444  0.1253
  729POPS   PO411166   9.496   1.571   6.103 -0.1330  0.0450  0.3637
  729POPS   GL111167   9.308   1.713   6.496  0.1298  0.0472  0.1063
  729POPS   GL211168   9.100   1.908   6.377 -0.1684  0.0183  0.0573
  729POPS   C1A11169   9.075   1.639   6.937 -0.2981 -0.1615 -0.2975
  729POPS   D2A11170   8.942   1.480   7.361  0.0809  0.2009  0.0123
  729POPS   C3A11171   8.898   1.673   7.634  0.4789  0.2432  0.1333
  729POPS   C4A11172   9.014   1.917   7.921 -0.0843 -0.2015  0.3800
  729POPS   C1B11173   9.050   2.178   6.734  0.1433  0.3834 -0.0974
  729POPS   C2B11174   9.046   2.076   7.111  0.3059  0.1327 -0.2285
  729POPS   C3B11175   9.243   2.192   7.547  0.0310 -0.0420  0.0422
  729POPS   C4B11176   9.282   2.336   8.051 -0.0648  0.2578 -0.2280
  730POPS   CNO11177  14.944   0.185   6.034 -0.3073 -0.1753  0.1282
  730POPS   PO411178  14.642  -0.171   6.166  0.0639 -0.0563  0.1425
  730POPS   GL111179  14.941  -0.160   6.416  0.0692 -0.1112  0.3675
  730POPS   GL211180  15.241   0.105   6.408  0.1057  0.1085 -0.2156
  730POPS   C1A11181  15.349  -0.331   6.740 -0.0839  0.1090  0.1097
  730POPS   D2A11182  15.556  -0.385   7.113  0.0660 -0.2125  0.2872
  730POPS   C3A11183  15.359  -0.535   7.378  0.1692 -0.1797  0.0042
  730POPS   C4A11184  15.286  -0.959   7.620 -0.2326 -0.0363  0.1134
  730POPS   C1B11185  15.243   0.202   6.759  0.2640  0.2480  0.0866
  730POPS   C2B11186  15.231   0.128   7.219  0.0209  0.1721  0.0247
  730POPS   C3B11187  15.399   0.247   7.687  0.0462 -0.2559  0.0659
  730POPS   C4B11188  15.796   0.094   7.889  0.2000  0.3062  0.0484
  731POPS   CNO11189   7.368   7.880   5.804  0.0222  0.0554  0.0681
  731POPS   PO411190   7.690   7.638   6.009  0.0327  0.2598  0.0744
  731POPS   GL111191   7.779   7.464   6.376 -0.0055  0.0934 -0.1523
  731POPS   GL211192   8.074   7.451   6.488 -0.1196 -0.1266 -0.0569
  731POPS   C1A11193   7.685   7.751   6.728 -0.2604 -0.0612  0.0047
  731POPS   D2A11194   7.790   7.768   7.187 -0.0184  0.2460 -0.2062
  731POPS   C3A11195   7.579   8.099   7.450  0.1327 -0.0720 -0.2340
  731POPS   C4A11196   7.465   8.360   7.822  0.0367 -0.1674 -0.0244
  731POPS   C1B11197   7.825   7.336   6.971 -0.0164 -0.1242  0.0903
  731POPS   C2B11198   7.769   7.245   7.483 -0.1255 -0.1170  0.1419
  731POPS   C3B11199   7.402   7.461   7.620 -0.1405 -0.2189  0.0257
  731POPS   C4B11200   7.184   7.906   7.648  0.0285  0.2206 -0.0423
  732POPS   CNO11201  11.862   0.658   6.198  0.3180  0.0409 -0.3113
  732POPS   PO411202  11.990   0.252   5.901  0.1351 -0.0600 -0.3076
  732POPS   GL111203  12.132   0.209   6.301 -0.2369  0.2611  0.1105
  732POPS   GL211204  11.784   0.222   6.451 -0.1697 -0.3780 -0.0523
  732POPS   C1A11205  12.295   0.052   6.696  0.0120 -0.0787  0.0067
  732POPS   D2A11206  12.534  -0.379   6.947 -0.0667  0.0346 -0.1137
  732POPS   C3A11207  12.520  -0.450   7.311  0.0749 -0.1226  0.0694
  732POPS   C4A11208  12.416  -0.646   7.694  0.1578  0.1141  0.0254
  732POPS   C1B11209  11.890   0.202   6.916 -0.3162  0.3186  0.1591
  732POPS   C2B11210  11.560   0.184   7.170  0.2953  0.1521 -0.0647
  732POPS   C3B11211  11.309   0.110   7.515  0.2844 -0.2536 -0.0091
  732POPS   C4B11212  10.999   0.168   7.770  0.0023  0.1933  0.0440
  733POPS   CNO11213   4.311   7.598   5.639  0.2381 -0.0756 -0.1330
  733POPS   PO411214   4.552   7.533   5.995 -0.1025  0.3129 -0.1352
  733POPS   GL111215   4.521   7.896   6.367 -0.0160  0.0897 -0.3767
  733POPS   GL211216   4.764   8.255   6.358  0.0421  0.2105 -0.1264
  733POPS   C1A11217   4.452   8.006   6.769  0.2562  0.1191 -0.2096
  733POPS   D2A11218   4.555   8.052   7.272 -0.3114  0.0354 -0.1575
  733POPS   C3A11219   4.415   7.988   7.671  0.1164 -0.0424  0.0534
  733POPS   C4A11220   4.615   7.777   8.075  0.2335  0.2138  0.2064
  733POPS   C1B11221   4.868   8.286   6.820 -0.1715 -0.0421 -0.0492
  733POPS   C2B11222   5.028   8.291   7.344  0.0773 -0.4191 -0.2034
  733POPS   C3B11223   5.095   8.175   7.793 -0.1206 -0.0241  0.2074
  733POPS   C4B11224   5.406   7.951   8.015  0.3335 -0.1382  0.0664
  734POPS   CNO11225   0.703   8.140   5.499  0.1465  0.2019 -0.1806
  734POPS   PO411226   0.592   8.552   5.734 -0.1968 -0.1106  0.0227
  734POPS   GL111227   0.748   8.347   6.034 -0.2008 -0.2615 -0.1397
  734POPS   GL211228   0.696   8.056   6.054  0.3886 -0.1175 -0.1348
  734POPS   C1A11229   1.061   8.193   6.333 -0.0600  0.0564 -0.3159
  734POPS   D2A11230   1.213   7.878   6.647 -0.0864  0.0971  0.0184
  734POPS   C3A11231   1.398   7.907   7.061  0.1105  0.1302  0.0679
  734POPS   C4A11232   1.406   7.987   7.408  0.1546 -0.0044  0.0768
  734POPS   C1B11233   0.598   8.103   6.468  0.0757  0.3157  0.3145
  734POPS   C2B11234   0.626   8.154   6.977  0.2123 -0.1843  0.3323
  734POPS   C3B11235   0.933   8.081   7.231  0.3991 -0.1334 -0.0867
  734POPS   C4B11236   1.066   8.234   7.665  0.0680 -0.3701  0.1342
  735POPS   CNO11237   9.856   4.756   5.886  0.2394 -0.0550 -0.1029
  735POPS   PO411238  10.159   4.619   6.081  0.1742  0.2592  0.1199
  735POPS   GL111239   9.999   4.560   6.496  0.2506  0.0363  0.1314
  735POPS   GL211240   9.935   4.202   6.571  0.0526  0.0957  0.1730
  735POPS   C1A11241  10.180   4.704   6.796 -0.1334  0.0117 -0.0803
  735POPS   D2A11242  10.103   4.932   7.135  0.2825  0.1281 -0.1302
  735POPS   C3A11243   9.841   5.313   7.006  0.0128  0.4292  0.0503
  735POPS   C4A11244   9.943   5.654   7.240  0.1273  0.2332 -0.0272
  735POPS   C1B11245   9.901   4.320   7.041 -0.0251  0.0112  0.0445
  735POPS   C2B11246  10.093   4.457   7.328  0.5313 -0.0717 -0.0731
  735POPS   C3B11247   9.977   4.369   7.807 -0.0142  0.1770  0.1797
  735POPS   C4B11248   9.690   4.460   8.000 -0.3076 -0.1469  0.0466
  736POPS   CNO11249   6.053  14.906   6.492  0.2503  0.0210  0.0382
  736POPS   PO411250   6.224  14.640   6.128  0.0041  0.3844  0.1025
  736POPS   GL111251   6.553  14.690   6.416  0.0878 -0.1256 -0.0622
  736POPS   GL211252   6.823  14.604   6.440  0.0625  0.0255 -0.1670
  736POPS   C1A11253   6.582  14.793   6.825  0.1569 -0.1707 -0.0021
  736POPS   D2A11254   6.543  14.893   7.302  0.3856 -0.0549  0.0404
  736POPS   C3A11255   6.209  14.903   7.515 -0.0712  0.0485  0.2614
  736POPS   C4A11256   6.102  15.154   7.849  0.0520 -0.1905 -0.1750
  736POPS   C1B11257   6.586  14.162   6.682 -0.0626 -0.0458  0.0697
  736POPS   C2B11258   6.441  14.068   7.124  0.2888  0.3650  0.1050
  736POPS   C3B11259   6.183  14.075   7.453 -0.0725  0.2424 -0.1518
  736POPS   C4B11260   5.874  13.838   7.768 -0.1415 -0.2433 -0.3716
  737POPS   CNO11261   9.200   6.216   5.398 -0.1074 -0.0331 -0.0409
  737POPS   PO411262   9.093   6.036   5.883 -0.2663  0.0947 -0.0910
  737POPS   GL111263   9.153   6.082   6.385 -0.2298  0.0603  0.1788
  737POPS   GL211264   8.890   6.211   6.511  0.0132 -0.2314  0.0515
  737POPS   C1A11265   9.301   6.178   6.723  0.2239  0.3647 -0.3553
  737POPS   D2A11266   9.404   6.100   7.133 -0.2470 -0.1401  0.0154
  737POPS   C3A11267   9.262   6.384   7.435  0.0944 -0.1982  0.0689
  737POPS   C4A11268   9.265   6.567   7.823  0.0821  0.3437 -0.3244
  737POPS   C1B11269   8.604   6.295   6.869  0.2459 -0.3065  0.0575
  737POPS   C2B11270   8.432   6.308   7.351  0.2379  0.2663  0.2600
  737POPS   C3B11271   8.235   6.235   7.662  0.3109 -0.0080  0.2805
  737POPS   C4B11272   7.928   6.246   7.961 -0.1606 -0.0682 -0.0204
  738POPS   CNO11273  11.083  16.115   6.409  0.1989 -0.1428 -0.1159
  738POPS   PO411274  10.870  15.726   6.428  0.1207  0.0991 -0.0380
  738POPS   GL111275  11.120  15.857   6.832 -0.4087 -0.0330  0.3561
  738POPS   GL211276  10.815  16.015   6.861  0.4467  0.0083  0.0635
  738POPS   C1A11277  11.329  15.897   7.185  0.0587  0.1358 -0.1122
  738POPS   D2A11278  11.438  16.047   7.713  0.1503  0.1939  0.1029
  738POPS   C3A11279  11.450  16.198   8.047 -0.5156 -0.2683 -0.1744
  738POPS   C4A11280  11.709  16.203   8.396  0.1695 -0.3079 -0.3041
  738POPS   C1B11281  10.587  15.928   7.184  0.1216 -0.2787 -0.2702
  738POPS   C2B11282  10.463  15.963   7.564 -0.1509 -0.0991  0.2143
  738POPS   C3B11283  10.391  16.227   7.930 -0.0801 -0.2151 -0.0502
  738POPS   C4B11284  10.534  16.611   8.228  0.1275  0.0737  0.0152
  739POPS   CNO11285  10.027  17.058   5.549 -0.2664  0.0850  0.0303
  739POPS   PO411286   9.757  17.064   5.898 -0.1026 -0.1512 -0.1804
  739POPS   GL111287   9.667  17.006   6.249 -0.0838 -0.2671  0.1354
  739POPS   GL211288   9.543  17.266   6.363 -0.0427 -0.1984  0.3486
  739POPS   C1A11289   9.678  16.834   6.765  0.2195 -0.3071  0.0778
  739POPS   D2A11290   9.303  16.658   7.055 -0.0368 -0.0050  0.2328
  739POPS   C3A11291   9.086  16.956   7.417 -0.0723  0.1903 -0.0224
  739POPS   C4A11292   8.877  17.346   7.468 -0.0006 -0.2693  0.3144
  739POPS   C1B11293   9.724  17.356   6.805  0.4479  0.0766 -0.2897
  739POPS   C2B11294   9.606  17.585   7.093  0.2023  0.0292 -0.0949
  739POPS   C3B11295   9.503  17.421   7.497 -0.2227  0.2673 -0.2145
  739POPS   C4B11296   9.404  17.090   7.834 -0.0905 -0.0614  0.0250
  740POPS   CNO11297  13.674  13.288   5.683 -0.2234  0.3599 -0.0522
  740POPS   PO411298  13.261  13.560   5.724 -0.0782  0.4367 -0.0059
  740POPS   GL111299  13.404  13.374   6.105  0.1029 -0.2223  0.3593
  740POPS   GL211300  13.137  13.327   6.244  0.0325 -0.1465  0.2432
  740POPS   C1A11301  13.458  13.116   6.520 -0.1193 -0.1040 -0.3997
  740POPS   D2A11302  13.287  13.086   6.951 -0.3466  0.1831 -0.1171
  740POPS   C3A11303  13.058  13.452   7.099  0.1874  0.0078  0.3551
  740POPS   C4A11304  12.861  13.765   7.393  0.0511 -0.3320 -0.2633
  740POPS   C1B11305  13.037  13.596   6.592 -0.1136  0.0308  0.0060
  740POPS   C2B11306  13.104  13.967   6.922  0.2741 -0.0908 -0.2354
  740POPS   C3B11307  13.240  14.206   7.299  0.0428 -0.3810  0.0251
  740POPS   C4B11308  13.083  14.315   7.717 -0.2341  0.0452  0.0481
  741POPS   CNO11309   8.332   5.677   5.520  0.3178 -0.3119 -0.1389
  741POPS   PO411310   8.397   5.767   5.983  0.2561 -0.0098 -0.2387
  741POPS   GL111311   8.225   6.005   6.284  0.1743 -0.1119  0.0097
  741POPS   GL211312   8.418   5.956   6.517  0.2863  0.2561  0.1500
  741POPS   C1A11313   8.319   6.487   6.423  0.1030 -0.1045  0.0533
  741POPS   D2A11314   8.664   6.753   6.622  0.1294  0.0867  0.0579
  741POPS   C3A11315   8.584   6.810   7.111 -0.0670  0.1112 -0.2080
  741POPS   C4A11316   8.258   6.770   7.327 -0.0661  0.2252 -0.1564
  741POPS   C1B11317   8.297   5.674   6.833 -0.1279 -0.4057  0.0913
  741POPS   C2B11318   8.266   5.843   7.226  0.0466 -0.0176  0.0435
  741POPS   C3B11319   8.503   5.809   7.628  0.1343 -0.1998 -0.0918
  741POPS   C4B11320   8.796   5.661   7.950 -0.2883 -0.1015 -0.4555
  742POPS   CNO11321   0.372  11.066   6.679 -0.1738 -0.0345  0.3113
  742POPS   PO411322   0.165  10.826   6.409  0.0002  0.1881  0.0525
  742POPS   GL111323   0.111  10.620   6.677 -0.0446  0.0686  0.0442
  742POPS   GL211324  -0.055  10.370   6.673 -0.0222 -0.0004  0.1441
  742POPS   C1A11325   0.279  10.645   7.063  0.0446 -0.1137 -0.1047
  742POPS   D2A11326   0.473  10.514   7.452  0.1541 -0.1570  0.1997
  742POPS   C3A11327   0.276  10.016   7.491  0.2376  0.1088  0.2332
  742POPS   C4A11328   0.007   9.912   7.791  0.1958  0.1440  0.3140
  742POPS   C1B11329   0.237  10.166   6.893 -0.2554 -0.2309  0.1746
  742POPS   C2B11330   0.284   9.755   7.018  0.0176 -0.1669  0.1363
  742POPS   C3B11331   0.276   9.322   7.247 -0.0513 -0.0975 -0.1668
  742POPS   C4B11332   0.138   9.432   7.602  0.1602 -0.1169  0.0691
  743POPS   CNO11333  16.636   9.112   5.756 -0.0511 -0.0999 -0.2269
  743POPS   PO411334  16.944   8.886   5.848 -0.0442 -0.3246  0.1856
  743POPS   GL111335  16.840   8.855   6.279 -0.1609 -0.0878  0.1309
  743POPS   GL211336  16.649   9.024   6.338  0.0903  0.2434 -0.0125
  743POPS   C1A11337  17.088   8.683   6.648  0.2141 -0.2453  0.0808
  743POPS   D2A11338  17.190   8.500   7.011  0.1963 -0.3309  0.1837
  743POPS   C3A11339  17.210   8.208   7.207 -0.0669 -0.0629  0.0696
  743POPS   C4A11340  17.551   7.917   7.377 -0.2219  0.2302 -0.0478
  743POPS   C1B11341  16.204   9.189   6.380  0.0782 -0.0923 -0.2118
  743POPS   C2B11342  16.035   9.050   6.771  0.1593  0.1914  0.0295
  743POPS   C3B11343  15.877   8.955   7.108  0.0031 -0.1446 -0.1012
  743POPS   C4B11344  15.949   8.989   7.407 -0.0711 -0.1029  0.1960
  744POPS   CNO11345  15.974  11.680   6.103 -0.1045 -0.3058  0.1813
  744POPS   PO411346  16.316  11.890   6.258  0.0310 -0.1010 -0.0163
  744POPS   GL111347  16.194  11.777   6.606 -0.2188  0.3986 -0.2719
  744POPS   GL211348  16.149  11.558   6.833 -0.0079  0.1387  0.1325
  744POPS   C1A11349  16.015  12.051   7.023 -0.5253 -0.1584  0.1761
  744POPS   D2A11350  15.629  12.304   7.115  0.0071  0.1635 -0.2796
  744POPS   C3A11351  15.353  12.297   7.570  0.0445  0.1901  0.1380
  744POPS   C4A11352  15.188  12.308   7.898  0.0249  0.3526 -0.2571
  744POPS   C1B11353  16.248  11.598   7.189 -0.1069  0.2225  0.1131
  744POPS   C2B11354  16.205  11.392   7.565 -0.1437  0.1718  0.0849
  744POPS   C3B11355  16.073  11.290   8.017  0.0250 -0.0353  0.0275
  744POPS   C4B11356  16.213  11.401   8.433  0.0743  0.1476  0.0051
  745POPS   CNO11357  12.708   6.174   5.855  0.1516  0.0315  0.1854
  745POPS   PO411358  13.119   6.082   5.868  0.2539  0.2946 -0.0312
  745POPS   GL111359  13.061   5.935   6.184 -0.1581 -0.1611 -0.0869
  745POPS   GL211360  12.750   5.946   6.327  0.0620 -0.2129 -0.4148
  745POPS   C1A11361  13.021   5.681   6.622 -0.0440  0.0326 -0.1296
  745POPS   D2A11362  13.040   5.708   7.050 -0.2217  0.0477 -0.0409
  745POPS   C3A11363  13.285   5.788   7.343  0.4075 -0.0277  0.0327
  745POPS   C4A11364  13.496   5.952   7.743 -0.1015  0.0520  0.2020
  745POPS   C1B11365  12.719   6.066   6.723 -0.0858  0.0723  0.1688
  745POPS   C2B11366  12.669   6.106   7.109 -0.0952  0.2040  0.2052
  745POPS   C3B11367  12.477   6.213   7.514 -0.0410 -0.0498  0.3888
  745POPS   C4B11368  12.692   6.236   7.889 -0.1788 -0.0371  0.2078
  746POPS   CNO11369   7.892  18.152   6.112 -0.0449 -0.0505 -0.3748
  746POPS   PO411370   7.737  17.849   6.051  0.2193 -0.0696 -0.0137
  746POPS   GL111371   7.749  17.700   6.553  0.3323 -0.2147 -0.1202
  746POPS   GL211372   7.471  17.952   6.636  0.0959 -0.2033 -0.0817
  746POPS   C1A11373   7.688  17.688   7.008  0.2386 -0.1348 -0.2212
  746POPS   D2A11374   7.721  17.831   7.354 -0.1733  0.1078  0.0143
  746POPS   C3A11375   7.522  17.689   7.742  0.0291  0.1283  0.0678
  746POPS   C4A11376   7.514  17.794   8.084  0.0675 -0.1452  0.1041
  746POPS   C1B11377   7.473  18.138   6.960  0.1352  0.2088  0.3047
  746POPS   C2B11378   7.613  18.392   7.268  0.1372  0.0205  0.3747
  746POPS   C3B11379   7.990  18.635   7.525 -0.1210  0.2478  0.0621
  746POPS   C4B11380   8.424  18.566   7.521  0.0653 -0.0400 -0.2297
  747POPS   CNO11381   0.236   1.786   5.234  0.0226 -0.2207 -0.0079
  747POPS   PO411382   0.479   1.394   5.459 -0.1623 -0.1503 -0.1917
  747POPS   GL111383   0.381   1.487   5.864  0.3912 -0.1979 -0.1195
  747POPS   GL211384   0.651   1.355   5.990  0.3216  0.1702 -0.0401
  747POPS   C1A11385   0.158   1.624   6.107 -0.0165 -0.1321 -0.0036
  747POPS   D2A11386   0.068   1.835   6.491  0.0410 -0.0633 -0.1872
  747POPS   C3A11387  -0.052   1.692   6.856 -0.1321  0.1823 -0.3672
  747POPS   C4A11388  -0.209   1.443   7.285  0.2009  0.1364  0.1634
  747POPS   C1B11389   0.739   1.372   6.404 -0.2228  0.3866  0.1384
  747POPS   C2B11390   0.851   1.520   6.865  0.0800  0.0065 -0.4401
  747POPS   C3B11391   1.063   1.622   7.328 -0.1068  0.1985  0.0011
  747POPS   C4B11392   0.855   1.870   7.673  0.0691 -0.0898 -0.0863
  748POPS   CNO11393  14.042   8.087   5.869  0.1265 -0.0131  0.0714
  748POPS   PO411394  14.130   7.613   5.802  0.4372  0.1560  0.3198
  748POPS   GL111395  14.043   7.415   6.133 -0.1586  0.0639 -0.0691
  748POPS   GL211396  13.690   7.366   6.215  0.1021  0.1798  0.3715
  748POPS   C1A11397  14.233   7.423   6.455  0.4979  0.3539 -0.1008
  748POPS   D2A11398  14.369   7.543   6.862 -0.0082  0.1536 -0.1706
  748POPS   C3A11399  14.270   7.807   7.170 -0.0071 -0.0439  0.1453
  748POPS   C4A11400  14.095   8.110   7.606 -0.0783 -0.0130 -0.0011
  748POPS   C1B11401  13.657   7.496   6.617 -0.0311  0.3124  0.0791
  748POPS   C2B11402  13.863   7.521   7.027 -0.1149 -0.0265 -0.0133
  748POPS   C3B11403  13.761   7.743   7.529  0.1670  0.3629 -0.1452
  748POPS   C4B11404  13.889   7.920   8.026 -0.4381  0.0491  0.0774
  749POPS   CNO11405  16.306   8.371   5.669 -0.0528  0.2171 -0.2472
  749POPS   PO411406  16.580   8.567   5.809 -0.2508 -0.2881 -0.0897
  749POPS   GL111407  16.635   8.395   6.207  0.1860 -0.1046  0.3133
  749POPS   GL211408  16.952   8.268   6.146  0.0346 -0.0951  0.1651
  749POPS   C1A11409  16.348   8.219   6.474 -0.1486  0.2463 -0.0215
  749POPS   D2A11410  16.290   7.872   6.785 -0.0615 -0.2809 -0.1819
  749POPS   C3A11411  15.806   7.972   7.056 -0.3748  0.1011 -0.0795
  749POPS   C4A11412  15.587   7.682   7.281 -0.1797 -0.3038  0.0908
  749POPS   C1B11413  16.776   8.228   6.673  0.0666 -0.4673  0.2331
  749POPS   C2B11414  16.672   8.357   7.070 -0.3642 -0.0820  0.0385
  749POPS   C3B11415  16.372   8.330   7.372 -0.1792 -0.2240 -0.0298
  749POPS   C4B11416  15.966   8.267   7.459  0.1437  0.1420  0.1341
  750POPS   CNO11417   6.671   9.096   5.821  0.1049  0.1064 -0.1147
  750POPS   PO411418   6.414   8.795   6.028 -0.2395  0.1245  0.0643
  750POPS   GL111419   6.394   8.743   6.437 -0.2205  0.1968  0.2090
  750POPS   GL211420   6.161   8.891   6.626  0.0135  0.0898  0.1307
  750POPS   C1A11421   6.623   8.477   6.775 -0.0468 -0.1107  0.0506
  750POPS   D2A11422   6.732   8.162   6.841 -0.0034  0.1485 -0.0217
  750POPS   C3A11423   7.048   8.006   7.147 -0.4400 -0.1658 -0.0616
  750POPS   C4A11424   7.303   7.601   7.121 -0.1940  0.0075  0.0125
  750POPS   C1B11425   6.189   8.698   7.047  0.0722  0.0688  0.0293
  750POPS   C2B11426   6.464   8.318   7.229 -0.1037  0.0203 -0.1985
  750POPS   C3B11427   6.678   8.283   7.509 -0.0492 -0.3496  0.1708
  750POPS   C4B11428   7.063   8.379   7.479  0.0301 -0.3231  0.0805
  751POPS   CNO11429   8.710   4.839   6.142 -0.2826 -0.0858 -0.0123
  751POPS   PO411430   8.422   4.862   6.354 -0.1077 -0.1250 -0.1341
  751POPS   GL111431   8.431   4.953   6.814  0.0257 -0.0711  0.2335
  751POPS   GL211432   8.618   5.231   6.756 -0.0230  0.1848  0.1843
  751POPS   C1A11433   8.377   4.970   7.273 -0.1643 -0.0135 -0.1573
  751POPS   D2A11434   8.198   4.900   7.611  0.1600 -0.0880 -0.3301
  751POPS   C3A11435   7.749   5.027   7.632  0.2072  0.0359 -0.1899
  751POPS   C4A11436   7.616   5.421   7.395 -0.0229 -0.1032 -0.2312
  751POPS   C1B11437   8.570   5.460   7.233 -0.0036  0.1485 -0.3019
  751POPS   C2B11438   8.943   5.578   7.513 -0.1585 -0.0165 -0.1774
  751POPS   C3B11439   9.161   5.335   7.844  0.1178  0.2575 -0.1125
  751POPS   C4B11440   9.287   4.950   8.104  0.4620 -0.1509 -0.3963
  752POPS   CNO11441   3.082   5.892   5.462 -0.2152  0.2260  0.0251
  752POPS   PO411442   3.381   5.486   5.685  0.3830 -0.1936  0.1713
  752POPS   GL111443   3.567   5.552   6.073  0.1213  0.0313  0.1471
  752POPS   GL211444   3.750   5.888   6.133 -0.1765  0.1600  0.0436
  752POPS   C1A11445   3.453   5.546   6.497 -0.2645  0.3111  0.3528
  752POPS   D2A11446   3.348   5.552   6.880 -0.0576  0.0314  0.1493
  752POPS   C3A11447   3.402   5.710   7.350  0.5863 -0.0274 -0.0609
  752POPS   C4A11448   3.622   5.807   7.742 -0.1969  0.0060 -0.2459
  752POPS   C1B11449   3.500   6.140   6.479 -0.0638  0.1877  0.2708
  752POPS   C2B11450   3.667   6.408   6.724  0.1013 -0.1514 -0.1637
  752POPS   C3B11451   3.679   6.820   6.796 -0.1826  0.0464  0.2984
  752POPS   C4B11452   3.568   7.075   7.108 -0.0255 -0.0373  0.0152
  753POPS   CNO11453   1.254   8.122   5.361  0.2399  0.2145 -0.1213
  753POPS   PO411454   1.041   7.812   5.634  0.2972 -0.0861  0.3118
  753POPS   GL111455   1.092   7.775   6.063  0.0917 -0.1533  0.1508
  753POPS   GL211456   1.380   7.599   6.184 -0.0928  0.0135 -0.0595
  753POPS   C1A11457   0.799   7.658   6.408 -0.2517 -0.1130  0.0746
  753POPS   D2A11458   0.729   7.630   6.876 -0.0390  0.0622  0.5000
  753POPS   C3A11459   0.762   7.479   7.241  0.0307  0.2651  0.1602
  753POPS   C4A11460   0.797   7.730   7.586 -0.1665 -0.1638 -0.1178
  753POPS   C1B11461   1.367   7.369   6.502 -0.1624 -0.0929  0.0177
  753POPS   C2B11462   1.187   7.417   6.934 -0.0847 -0.0546 -0.0701
  753POPS   C3B11463   1.292   7.435   7.370 -0.0715 -0.0363  0.0526
  753POPS   C4B11464   1.249   7.138   7.670 -0.3679  0.0652 -0.1174
  754POPS   CNO11465  13.555   3.895   6.262  0.0526 -0.0471  0.0436
  754POPS   PO411466  13.574   3.572   5.961  0.0604 -0.4120 -0.1628
  754POPS   GL111467  13.716   3.417   6.366 -0.0776  0.1890  0.0443
  754POPS   GL211468  13.917   3.687   6.516  0.2203 -0.1885  0.2769
  754POPS   C1A11469  13.781   3.225   6.805 -0.4034 -0.2049 -0.0390
  754POPS   D2A11470  13.465   3.239   7.123  0.0527 -0.2074  0.1954
  754POPS   C3A11471  13.514   3.310   7.539  0.0788  0.1717 -0.4897
  754POPS   C4A11472  13.855   3.447   7.795 -0.4776  0.0780 -0.3762
  754POPS   C1B11473  14.010   3.647   7.010 -0.3270 -0.1750  0.3683
  754POPS   C2B11474  13.967   3.291   7.279 -0.0416  0.1631  0.1514
  754POPS   C3B11475  13.809   2.934   7.276  0.1790  0.0166 -0.0543
  754POPS   C4B11476  13.336   2.776   7.392  0.0130  0.1568 -0.0792
  755POPS   CNO11477   4.498  12.693   6.099  0.3023  0.0159 -0.1624
  755POPS   PO411478   4.392  13.099   6.103  0.3723  0.0750  0.2202
  755POPS   GL111479   4.157  13.413   6.471 -0.2638  0.3438 -0.0739
  755POPS   GL211480   4.173  13.163   6.693 -0.1908  0.1924 -0.0595
  755POPS   C1A11481   3.908  13.559   6.890 -0.1597  0.1299 -0.2767
  755POPS   D2A11482   3.575  13.730   6.983  0.2646  0.0280  0.1294
  755POPS   C3A11483   3.423  13.676   7.392  0.0049  0.2405  0.0759
  755POPS   C4A11484   3.010  13.842   7.530 -0.2113 -0.3621  0.2181
  755POPS   C1B11485   4.100  13.110   7.173  0.1660 -0.2518  0.1565
  755POPS   C2B11486   4.034  12.981   7.630  0.1312 -0.0019  0.2920
  755POPS   C3B11487   4.018  13.104   7.961  0.1201 -0.1624  0.0514
  755POPS   C4B11488   4.007  13.417   8.288 -0.0785 -0.3370  0.0289
  756POPS   CNO11489   9.144  14.787   5.844 -0.2330  0.4209 -0.3091
  756POPS   PO411490   9.563  14.801   5.960  0.2042 -0.0708 -0.1206
  756POPS   GL111491   9.349  14.896   6.334  0.1107  0.0735  0.0545
  756POPS   GL211492   9.544  14.802   6.512  0.1618  0.0799  0.2801
  756POPS   C1A11493   9.059  14.970   6.647  0.0123 -0.0509 -0.1545
  756POPS   D2A11494   8.810  14.965   7.119  0.0949  0.0321  0.0520
  756POPS   C3A11495   8.820  15.235   7.392  0.2147  0.0080 -0.2290
  756POPS   C4A11496   9.014  15.374   7.754 -0.0229 -0.2422  0.0919
  756POPS   C1B11497   9.737  14.678   6.805 -0.2018 -0.0159 -0.2362
  756POPS   C2B11498   9.686  14.531   7.252 -0.0576  0.2740 -0.1242
  756POPS   C3B11499   9.584  14.543   7.684 -0.0575  0.1032 -0.0558
  756POPS   C4B11500   9.590  14.786   7.941  0.1339  0.2813  0.0871
  757POPS   CNO11501   4.349  14.237   6.179 -0.0682 -0.0655  0.3859
  757POPS   PO411502   4.009  13.828   6.133  0.0215 -0.0948  0.0472
  757POPS   GL111503   4.076  13.939   6.540  0.1262 -0.0807  0.1958
  757POPS   GL211504   4.341  13.817   6.631  0.1041  0.0462 -0.3617
  757POPS   C1A11505   3.983  14.031   6.979  0.0522  0.1088  0.0800
  757POPS   D2A11506   3.875  13.860   7.352 -0.2340 -0.0783 -0.0771
  757POPS   C3A11507   3.984  14.010   7.804  0.0479 -0.1135 -0.3784
  757POPS   C4A11508   4.082  13.980   8.172 -0.1344 -0.0221  0.1307
  757POPS   C1B11509   4.409  13.779   7.027  0.1015 -0.2563 -0.0164
  757POPS   C2B11510   4.335  13.587   7.407  0.2925  0.3120  0.0646
  757POPS   C3B11511   4.310  13.518   7.766 -0.0854  0.0088 -0.1972
  757POPS   C4B11512   4.498  13.615   8.124  0.1017 -0.1754  0.4362
  758POPS   CNO11513  14.446   1.135   5.782  0.0416  0.3254 -0.4244
  758POPS   PO411514  14.832   0.974   5.718 -0.1055  0.0284 -0.2494
  758POPS   GL111515  14.889   1.015   6.132  0.1012 -0.1536 -0.0177
  758POPS   GL211516  14.943   0.680   6.229 -0.1875 -0.1302  0.0506
  758POPS   C1A11517  15.206   1.027   6.363  0.0180 -0.0647  0.0183
  758POPS   D2A11518  15.543   0.748   6.484  0.2315  0.1868 -0.0136
  758POPS   C3A11519  15.469   0.618   6.968  0.3701  0.1209  0.2236
  758POPS   C4A11520  15.430   0.746   7.362 -0.0354  0.1815 -0.2960
  758POPS   C1B11521  14.936   0.614   6.679 -0.2483  0.2799  0.0196
  758POPS   C2B11522  14.931   0.544   7.162  0.0473  0.0998  0.2427
  758POPS   C3B11523  14.986   0.463   7.585  0.2476  0.0396 -0.0440
  758POPS   C4B11524  15.105   0.759   7.794  0.0126  0.2075  0.0628
  759POPS   CNO11525  12.716  15.593   6.524  0.2255  0.2554 -0.2667
  759POPS   PO411526  13.011  15.446   6.236 -0.1658 -0.1265  0.0650
  759POPS   GL111527  13.194  15.455   6.566  0.0652  0.2055 -0.3658
  759POPS   GL211528  13.498  15.453   6.443  0.0970 -0.1833 -0.0163
  759POPS   C1A11529  13.365  15.698   6.975  0.1372 -0.1525 -0.1535
  759POPS   D2A11530  13.374  15.840   7.509  0.0063  0.0892  0.2978
  759POPS   C3A11531  13.111  16.099   7.788 -0.1805 -0.1519 -0.1718
  759POPS   C4A11532  13.211  16.070   8.193 -0.1003 -0.2071 -0.1519
  759POPS   C1B11533  13.779  15.369   6.689  0.1180  0.2409  0.0210
  759POPS   C2B11534  13.777  15.501   7.151 -0.1155  0.1500 -0.0707
  759POPS   C3B11535  13.728  15.438   7.575 -0.1813  0.1735 -0.1705
  759POPS   C4B11536  13.643  15.183   7.925 -0.1449 -0.2104 -0.0919
  760POPS   CNO11537  13.469   5.735   5.903 -0.0474 -0.0328  0.0670
  760POPS   PO411538  13.509   5.326   5.994  0.0020  0.0279 -0.0122
  760POPS   GL111539  13.451   5.345   6.437  0.0687 -0.1771 -0.3261
  760POPS   GL211540  13.523   4.999   6.505  0.0251  0.3803  0.1301
  760POPS   C1A11541  13.181   5.286   6.885 -0.0657  0.0944 -0.1114
  760POPS   D2A11542  13.287   5.274   7.320 -0.1655 -0.3249 -0.2821
  760POPS   C3A11543  13.688   5.206   7.442 -0.0429  0.3654 -0.1401
  760POPS   C4A11544  14.171   5.194   7.500  0.1508  0.0431  0.2118
  760POPS   C1B11545  14.012   5.105   6.439  0.1237 -0.1436 -0.1720
  760POPS   C2B11546  14.373   5.238   6.789  0.1310  0.0667 -0.1078
  760POPS   C3B11547  14.379   5.581   7.180  0.0236 -0.2704 -0.0178
  760POPS   C4B11548  13.967   5.624   7.371 -0.3524  0.4493  0.1436
  761POPS   CNO11549   2.057  12.039   6.454 -0.1355 -0.1353  0.1222
  761POPS   PO411550   2.098  12.453   6.185 -0.1300 -0.1400  0.1420
  761POPS   GL111551   2.331  12.524   6.581  0.2519  0.2247 -0.3796
  761POPS   GL211552   2.544  12.778   6.644 -0.1034  0.0068  0.4551
  761POPS   C1A11553   2.423  12.552   7.085  0.2055 -0.0752 -0.0959
  761POPS   D2A11554   2.172  12.284   7.274  0.0278 -0.1207 -0.1905
  761POPS   C3A11555   1.882  12.293   7.526  0.0734  0.1118  0.1664
  761POPS   C4A11556   1.814  11.967   7.805 -0.0106  0.0537  0.0787
  761POPS   C1B11557   2.470  12.997   6.977 -0.0601 -0.1266  0.3086
  761POPS   C2B11558   2.475  13.015   7.338 -0.1276  0.2388 -0.1216
  761POPS   C3B11559   2.555  12.968   7.749 -0.4108 -0.0622  0.1775
  761POPS   C4B11560   2.600  12.818   8.159  0.0161 -0.1036 -0.0439
  762POPS   CNO11561  14.558  16.171   6.044 -0.2288 -0.5074  0.2483
  762POPS   PO411562  14.192  16.257   6.361 -0.1302 -0.1864  0.0595
  762POPS   GL111563  14.409  16.527   6.545 -0.0047  0.1243 -0.1040
  762POPS   GL211564  14.793  16.384   6.421 -0.0917  0.1598  0.0223
  762POPS   C1A11565  14.156  16.842   6.878  0.3225 -0.3938 -0.2245
  762POPS   D2A11566  14.089  17.112   7.208 -0.2390  0.3211 -0.1051
  762POPS   C3A11567  14.019  16.972   7.604 -0.2435  0.0241  0.1051
  762POPS   C4A11568  13.878  17.189   7.843  0.0094 -0.2689  0.1635
  762POPS   C1B11569  14.745  16.156   6.754 -0.0436  0.0050  0.2441
  762POPS   C2B11570  14.610  16.259   7.161 -0.2179 -0.4250 -0.0021
  762POPS   C3B11571  14.473  16.000   7.459  0.3256  0.2094 -0.2859
  762POPS   C4B11572  14.366  15.528   7.530  0.2988 -0.0605 -0.1541
  763POPS   CNO11573   5.814   0.632   6.326  0.0228 -0.1120  0.1874
  763POPS   PO411574   5.530   0.946   6.032  0.0352  0.0878  0.1620
  763POPS   GL111575   5.305   0.976   6.492  0.2165 -0.0152  0.0896
  763POPS   GL211576   5.046   0.772   6.714 -0.4389 -0.1464 -0.1635
  763POPS   C1A11577   5.365   1.312   6.927 -0.0106 -0.1743 -0.2178
  763POPS   D2A11578   5.559   1.382   7.294 -0.1990  0.2203 -0.2852
  763POPS   C3A11579   5.585   1.220   7.763 -0.1403 -0.0503  0.0689
  763POPS   C4A11580   5.620   1.259   8.175 -0.3947 -0.6732  0.2171
  763POPS   C1B11581   5.267   0.698   7.012 -0.1711  0.1306  0.0725
  763POPS   C2B11582   5.472   0.527   7.308  0.0807  0.0365  0.0757
  763POPS   C3B11583   5.409   0.203   7.569 -0.4570  0.0334 -0.2233
  763POPS   C4B11584   5.580   0.192   7.911  0.1089 -0.1087  0.2998
  764POPS   CNO11585  15.820   7.673   5.613 -0.1630 -0.1009  0.0628
  764POPS   PO411586  15.688   7.342   5.610  0.0090 -0.0658 -0.1689
  764POPS   GL111587  15.821   6.961   5.964 -0.0495 -0.1222  0.5273
  764POPS   GL211588  15.540   6.759   6.084 -0.1485 -0.1598  0.0385
  764POPS   C1A11589  16.105   6.774   6.246 -0.0361 -0.1526  0.3203
  764POPS   D2A11590  15.974   6.433   6.570 -0.3525  0.1398 -0.3508
  764POPS   C3A11591  16.053   6.404   6.975 -0.1479 -0.0051 -0.1604
  764POPS   C4A11592  16.026   6.397   7.475  0.2454 -0.3034 -0.4066
  764POPS   C1B11593  15.479   6.563   6.456  0.3526  0.2666  0.0788
  764POPS   C2B11594  15.556   6.438   6.859 -0.3660 -0.0497 -0.0919
  764POPS   C3B11595  15.513   6.580   7.177  0.1464 -0.2007  0.0133
  764POPS   C4B11596  15.435   6.454   7.574 -0.1915  0.0566  0.1928
  765POPS   CNO11597  11.616   6.726   5.933  0.2863 -0.0196  0.3359
  765POPS   PO411598  11.890   6.418   6.130  0.2781  0.1035  0.3357
  765POPS   GL111599  11.874   6.728   6.376  0.1185 -0.0711 -0.0092
  765POPS   GL211600  12.053   7.017   6.589 -0.3304  0.1103  0.1462
  765POPS   C1A11601  11.503   6.913   6.583 -0.0243  0.1775 -0.1087
  765POPS   D2A11602  11.072   7.070   6.492 -0.1305 -0.1906  0.0155
  765POPS   C3A11603  10.839   7.167   6.859  0.0809  0.1671  0.0513
  765POPS   C4A11604  10.894   7.116   7.286 -0.1002  0.2797 -0.2886
  765POPS   C1B11605  11.839   7.117   6.931 -0.1503 -0.0298 -0.1816
  765POPS   C2B11606  11.787   7.310   7.320 -0.0939  0.0323 -0.2046
  765POPS   C3B11607  11.700   7.236   7.741 -0.0011 -0.1235 -0.3182
  765POPS   C4B11608  11.455   6.984   8.048 -0.1082  0.0986  0.1207
  766POPS   CNO11609   3.203   9.273   6.151 -0.2055  0.2162  0.3858
  766POPS   PO411610   3.638   9.112   6.192  0.0736 -0.1707 -0.0395
  766POPS   GL111611   3.580   9.109   6.597  0.0067  0.2420  0.0971
  766POPS   GL211612   3.687   9.303   6.662  0.0306  0.0508 -0.2161
  766POPS   C1A11613   3.409   8.881   6.985  0.4524 -0.3285  0.2869
  766POPS   D2A11614   3.376   8.613   7.330 -0.2269 -0.2144  0.0992
  766POPS   C3A11615   3.764   8.497   7.537 -0.4302 -0.0088 -0.2393
  766POPS   C4A11616   4.036   8.228   7.480 -0.0704 -0.1156  0.0437
  766POPS   C1B11617   3.667   9.328   7.145  0.0625  0.1334 -0.1751
  766POPS   C2B11618   3.516   9.648   7.521  0.1330  0.2318  0.0612
  766POPS   C3B11619   3.236  10.116   7.565 -0.0169 -0.1316  0.2270
  766POPS   C4B11620   2.843  10.343   7.689 -0.0043 -0.0676  0.0669
  767POPS   CNO11621   1.172  12.646   5.987  0.0367 -0.0654  0.4193
  767POPS   PO411622   1.182  12.270   6.044  0.1433  0.0295  0.1110
  767POPS   GL111623   1.274  12.320   6.455  0.0281 -0.0546  0.0887
  767POPS   GL211624   1.037  12.062   6.625 -0.2031 -0.1894  0.1027
  767POPS   C1A11625   1.460  12.325   6.891  0.0415 -0.0166 -0.0712
  767POPS   D2A11626   1.165  12.243   7.199 -0.2877  0.0023 -0.1905
  767POPS   C3A11627   1.367  12.038   7.603 -0.2865  0.2703  0.0221
  767POPS   C4A11628   1.345  11.616   7.878  0.1766 -0.0566 -0.0428
  767POPS   C1B11629   1.256  11.790   6.926 -0.6933 -0.1709 -0.0589
  767POPS   C2B11630   1.391  11.539   7.289  0.1364 -0.1833  0.1706
  767POPS   C3B11631   1.365  11.221   7.619 -0.0753 -0.1501  0.0567
  767POPS   C4B11632   1.113  10.877   7.686 -0.0018 -0.0320 -0.3211
  768POPS   CNO11633  15.511   9.662   5.189 -0.0128  0.1370 -0.4888
  768POPS   PO411634  15.233   9.941   5.515 -0.1310  0.0366 -0.3469
  768POPS   GL111635  15.184   9.943   5.985  0.0700  0.0104 -0.2541
  768POPS   GL211636  15.346   9.784   6.247  0.1561 -0.1316  0.0879
  768POPS   C1A11637  14.818   9.891   6.256  0.0586  0.1028 -0.1560
  768POPS   D2A11638  14.697   9.570   6.599 -0.0451 -0.1094 -0.1653
  768POPS   C3A11639  14.468   9.205   6.530 -0.0283 -0.0405 -0.0363
  768POPS   C4A11640  14.366   8.886   6.790 -0.0751 -0.0412 -0.1894
  768POPS   C1B11641  15.529   9.851   6.625 -0.1134 -0.1702 -0.2117
  768POPS   C2B11642  15.605  10.002   7.063 -0.0720 -0.0104 -0.0415
  768POPS   C3B11643  15.512   9.952   7.494 -0.2912  0.0851  0.0637
  768POPS   C4B11644  15.463   9.996   7.875  0.0032 -0.1704 -0.2067
  769POPS   CNO11645   1.746   8.136   5.284  0.0936 -0.1566  0.2113
  769POPS   PO411646   1.648   8.397   5.666 -0.0140  0.0662 -0.0386
  769POPS   GL111647   1.808   8.211   6.143  0.0168 -0.0465  0.0377
  769POPS   GL211648   1.553   8.138   6.276 -0.1134  0.0837 -0.3321
  769POPS   C1A11649   1.895   8.509   6.554 -0.4582  0.2666 -0.2078
  769POPS   D2A11650   2.096   8.525   6.915 -0.0671  0.0930  0.1915
  769POPS   C3A11651   2.005   8.500   7.356  0.1223 -0.1971  0.0131
  769POPS   C4A11652   1.857   8.297   7.674  0.2975 -0.0106 -0.0662
  769POPS   C1B11653   1.703   8.064   6.680 -0.1888 -0.2268 -0.2629
  769POPS   C2B11654   1.870   8.028   7.076  0.0738 -0.1888  0.0422
  769POPS   C3B11655   2.119   7.877   7.474  0.1492  0.3795 -0.0262
  769POPS   C4B11656   2.199   7.686   7.803  0.2482  0.3078 -0.2040
  770POPS   CNO11657   1.263  15.208   5.802  0.0404 -0.2603  0.0951
  770POPS   PO411658   1.694  15.316   5.953  0.0887 -0.1076  0.0535
  770POPS   GL111659   1.846  15.448   6.360 -0.2679 -0.1323 -0.4721
  770POPS   GL211660   2.189  15.490   6.444  0.3431  0.0628 -0.5718
  770POPS   C1A11661   1.894  15.766   6.743  0.1942 -0.3439  0.2130
  770POPS   D2A11662   1.806  16.019   7.140  0.2427 -0.0886 -0.2764
  770POPS   C3A11663   1.893  15.919   7.508 -0.2219  0.0874 -0.2449
  770POPS   C4A11664   2.094  15.980   7.843  0.0909  0.3428 -0.4035
  770POPS   C1B11665   2.472  15.358   6.804 -0.1175  0.0091 -0.1055
  770POPS   C2B11666   2.703  15.419   7.164  0.0065 -0.0581  0.0239
  770POPS   C3B11667   2.715  15.292   7.576 -0.1219 -0.2739  0.1881
  770POPS   C4B11668   2.626  14.976   8.076  0.1799 -0.1239 -0.1439
  771POPS   CNO11669  16.678  11.109   6.081 -0.4690  0.1166  0.0518
  771POPS   PO411670  17.032  11.440   6.238 -0.0971  0.1398 -0.2734
  771POPS   GL111671  17.236  11.225   6.538  0.3954  0.0862  0.1295
  771POPS   GL211672  17.351  10.866   6.486  0.0593  0.5249  0.2854
  771POPS   C1A11673  17.041  11.194   6.979  0.0346 -0.3693  0.2603
  771POPS   D2A11674  16.621  11.265   7.252  0.1074 -0.1970 -0.0962
  771POPS   C3A11675  16.650  11.191   7.704  0.1839  0.1712  0.1698
  771POPS   C4A11676  16.547  11.125   8.158 -0.1049 -0.0559 -0.2617
  771POPS   C1B11677  17.098  10.634   6.769  0.4027  0.2861 -0.0327
  771POPS   C2B11678  17.187  10.580   7.249  0.1098  0.0475  0.1066
  771POPS   C3B11679  17.639  10.439   7.320 -0.2321  0.1558 -0.1792
  771POPS   C4B11680  18.058  10.427   7.311 -0.2811  0.1542 -0.1047
  772POPS   CNO11681   5.178   6.748   5.641 -0.1461  0.2152 -0.0579
  772POPS   PO411682   5.049   7.061   5.911 -0.3180 -0.2943  0.0539
  772POPS   GL111683   4.951   7.086   6.434 -0.2026  0.1012  0.2734
  772POPS   GL211684   4.703   7.154   6.532  0.2946 -0.1026  0.2857
  772POPS   C1A11685   5.048   6.774   6.778 -0.0264  0.0835  0.0038
  772POPS   D2A11686   5.300   6.742   7.137 -0.1443 -0.0189 -0.1295
  772POPS   C3A11687   5.069   6.677   7.578 -0.1620  0.0310  0.0562
  772POPS   C4A11688   4.728   6.355   7.657  0.2838  0.1890 -0.2595
  772POPS   C1B11689   4.526   7.452   6.907  0.0602 -0.0360  0.0549
  772POPS   C2B11690   4.622   7.542   7.343 -0.1707 -0.2192 -0.0208
  772POPS   C3B11691   4.985   7.790   7.532 -0.0244  0.2722  0.2262
  772POPS   C4B11692   5.417   7.872   7.550  0.2550 -0.1125 -0.2624
  773POPS   CNO11693  13.916  11.763   5.675  0.0914  0.0305  0.0762
  773POPS   PO411694  13.685  11.509   5.980 -0.1280  0.2410  0.0291
  773POPS   GL111695  13.449  11.333   6.279 -0.3442  0.1701  0.0294
  773POPS   GL211696  13.467  11.081   6.400 -0.1356  0.2563  0.0715
  773POPS   C1A11697  13.225  11.398   6.718  0.0043  0.1360 -0.1707
  773POPS   D2A11698  13.234  11.542   7.080  0.0697  0.2152 -0.3226
  773POPS   C3A11699  13.325  11.880   7.361 -0.2149  0.0200  0.0650
  773POPS   C4A11700  13.624  11.946   7.737  0.2318  0.1792 -0.2751
  773POPS   C1B11701  13.486  11.026   6.903  0.0402 -0.0311  0.3856
  773POPS   C2B11702  13.535  10.974   7.327  0.2686  0.3742 -0.1601
  773POPS   C3B11703  13.776  10.935   7.710 -0.4130  0.1979  0.3695
  773POPS   C4B11704  13.925  11.030   8.152  0.2656  0.1968 -0.0798
  774POPS   CNO11705  17.877  16.001   5.835 -0.0195 -0.0568  0.0878
  774POPS   PO411706  18.137  15.575   6.011 -0.1021 -0.1854  0.1162
  774POPS   GL111707  18.092  15.863   6.310 -0.0830  0.2190 -0.1893
  774POPS   GL211708  18.311  16.111   6.234 -0.3279 -0.0430  0.5630
  774POPS   C1A11709  18.050  15.777   6.782 -0.2009 -0.2264  0.0523
  774POPS   D2A11710  17.965  15.891   7.271 -0.1332 -0.3111 -0.0547
  774POPS   C3A11711  17.907  15.473   7.409  0.1043  0.2941 -0.1493
  774POPS   C4A11712  17.880  15.068   7.624  0.1852  0.0511  0.0972
  774POPS   C1B11713  18.219  16.214   6.753  0.3972  0.1409 -0.1131
  774POPS   C2B11714  17.965  16.393   7.062  0.0906 -0.3833  0.1158
  774POPS   C3B11715  17.940  16.434   7.403 -0.0312 -0.0348  0.0489
  774POPS   C4B11716  18.101  16.510   7.749 -0.1321  0.1121 -0.0157
  775POPS   CNO11717   1.230   4.647   5.522 -0.1616 -0.0205  0.2851
  775POPS   PO411718   1.077   5.057   5.590 -0.0662  0.0787  0.2235
  775POPS   GL111719   1.193   4.964   5.947 -0.0046  0.0922 -0.3496
  775POPS   GL211720   1.597   4.849   6.071 -0.1295  0.1235 -0.1257
  775POPS   C1A11721   0.989   4.840   6.307  0.1419 -0.1380 -0.0415
  775POPS   D2A11722   0.832   5.076   6.502 -0.2075  0.1913 -0.2302
  775POPS   C3A11723   0.961   4.887   6.933 -0.1129 -0.1988  0.1078
  775POPS   C4A11724   1.348   4.768   7.106  0.1682 -0.1203  0.0816
  775POPS   C1B11725   1.302   4.500   6.026 -0.0678 -0.1412 -0.0347
  775POPS   C2B11726   1.033   4.271   6.181  0.2399  0.0201 -0.1006
  775POPS   C3B11727   0.943   3.901   6.477 -0.2934 -0.1341 -0.1794
  775POPS   C4B11728   0.858   3.567   6.803  0.1618 -0.1646  0.3305
  776POPS   CNO11729   6.091   3.462   5.630  0.0261 -0.6137 -0.0369
  776POPS   PO411730   5.960   3.892   5.713  0.0447  0.2314  0.0538
  776POPS   GL111731   5.741   4.045   6.134 -0.2515 -0.0870  0.1181
  776POPS   GL211732   5.804   3.777   6.412  0.1641 -0.1636 -0.2775
  776POPS   C1A11733   5.534   4.338   6.401 -0.0824  0.1807  0.1960
  776POPS   D2A11734   5.227   4.468   6.754 -0.2081 -0.0218 -0.0974
  776POPS   C3A11735   5.036   4.332   7.136  0.1141  0.0131 -0.3460
  776POPS   C4A11736   4.946   4.081   7.445  0.0342  0.0389  0.5540
  776POPS   C1B11737   5.727   3.652   6.881 -0.2157  0.0687 -0.1394
  776POPS   C2B11738   5.690   3.591   7.341 -0.4158  0.0082  0.0635
  776POPS   C3B11739   5.687   3.553   7.759  0.1450 -0.0057 -0.0153
  776POPS   C4B11740   5.775   3.622   8.097 -0.0068  0.0366 -0.0045
  777POPS   CNO11741  14.365  16.950   5.543 -0.0527 -0.2488 -0.1085
  777POPS   PO411742  14.338  17.250   5.922  0.1297 -0.0948  0.1970
  777POPS   GL111743  14.465  17.198   6.344  0.1286  0.1551 -0.0218
  777POPS   GL211744  14.820  17.033   6.317 -0.0989 -0.5578 -0.0135
  777POPS   C1A11745  14.358  17.382   6.781  0.1529  0.0257  0.1925
  777POPS   D2A11746  14.302  17.559   7.246  0.2165 -0.1181 -0.1549
  777POPS   C3A11747  14.569  17.747   7.536 -0.0410  0.1437  0.3058
  777POPS   C4A11748  14.961  17.617   7.699 -0.0468  0.1400 -0.0005
  777POPS   C1B11749  14.648  16.898   6.725  0.3618 -0.0324 -0.0519
  777POPS   C2B11750  14.606  16.739   7.042  0.0103  0.0466 -0.2031
  777POPS   C3B11751  14.493  16.759   7.548  0.0948  0.0455 -0.1097
  777POPS   C4B11752  14.467  16.390   7.777  0.0825  0.0931 -0.1016
  778POPS   CNO11753  11.223  10.134   5.535  0.2263 -0.1371  0.1097
  778POPS   PO411754  11.014  10.323   5.830  0.0490  0.1094 -0.0747
  778POPS   GL111755  11.127  10.249   6.334  0.2151 -0.1164  0.4475
  778POPS   GL211756  11.197  10.569   6.326  0.0297  0.2111 -0.2548
  778POPS   C1A11757  10.882  10.237   6.749  0.1344 -0.2579 -0.1162
  778POPS   D2A11758  10.960  10.350   7.181  0.1595 -0.0562  0.1451
  778POPS   C3A11759  11.149  10.144   7.535  0.0193 -0.1025  0.0247
  778POPS   C4A11760  11.218   9.842   7.892 -0.2071 -0.0498  0.0931
  778POPS   C1B11761  11.303  10.596   6.834  0.1076 -0.0904 -0.2004
  778POPS   C2B11762  11.420  10.603   7.344 -0.4140  0.0900  0.3309
  778POPS   C3B11763  11.660  10.470   7.698 -0.2182  0.1337  0.1595
  778POPS   C4B11764  11.846  10.189   7.955  0.0591  0.3541 -0.0754
  779POPS   CNO11765   4.550  15.362   6.097  0.1185 -0.1724  0.0599
  779POPS   PO411766   4.977  15.367   6.188 -0.0300 -0.2727  0.0185
  779POPS   GL111767   5.058  15.350   6.656 -0.1689  0.3329  0.0792
  779POPS   GL211768   5.201  15.069   6.905 -0.0448  0.3636 -0.1085
  779POPS   C1A11769   4.869  15.472   7.071 -0.2635  0.0700 -0.0074
  779POPS   D2A11770   4.956  15.785   7.311 -0.1936  0.2026  0.1368
  779POPS   C3A11771   5.036  15.968   7.734 -0.0455 -0.0821  0.3857
  779POPS   C4A11772   4.780  16.033   7.969  0.0337 -0.2497 -0.1732
  779POPS   C1B11773   5.126  15.193   7.341 -0.0127  0.2973 -0.0846
  779POPS   C2B11774   4.827  15.428   7.599  0.1242 -0.3121  0.1732
  779POPS   C3B11775   4.556  15.765   7.556  0.1119  0.0903 -0.5262
  779POPS   C4B11776   4.291  15.893   7.854 -0.0797  0.0711  0.2615
  780POPS   CNO11777  11.568  17.600   5.423  0.1197  0.1806 -0.0016
  780POPS   PO411778  11.665  17.547   5.971 -0.0406  0.0508 -0.1904
  780POPS   GL111779  11.398  17.689   6.353 -0.0447  0.1327 -0.0158
  780POPS   GL211780  11.270  18.043   6.202  0.1760 -0.2876  0.2343
  780POPS   C1A11781  11.122  17.772   6.689  0.0718 -0.0695 -0.0138
  780POPS   D2A11782  11.206  18.033   7.091  0.1914 -0.0124  0.1195
  780POPS   C3A11783  11.029  18.442   7.109  0.2612  0.1641 -0.0182
  780POPS   C4A11784  11.001  18.622   6.735  0.0525  0.2374  0.1117
  780POPS   C1B11785  11.345  18.214   6.630  0.1203  0.0553 -0.3289
  780POPS   C2B11786  11.493  18.601   6.733 -0.1786 -0.0846 -0.0029
  780POPS   C3B11787  11.797  19.048   6.636  0.0859  0.0437 -0.0404
  780POPS   C4B11788  12.214  19.181   6.811  0.0659  0.2517 -0.3439
  781POPS   CNO11789  17.926   8.937   5.866 -0.2022  0.4129 -0.0171
  781POPS   PO411790  18.112   9.448   5.913 -0.0629  0.0289  0.0587
  781POPS   GL111791  18.062   9.251   6.369 -0.2121 -0.1552  0.0299
  781POPS   GL211792  17.805   9.231   6.329  0.2614  0.0158  0.1115
  781POPS   C1A11793  18.112   9.454   6.827  0.1626 -0.1614  0.1690
  781POPS   D2A11794  17.990   9.212   7.217  0.1092 -0.3636 -0.0547
  781POPS   C3A11795  17.579   9.293   7.224  0.1314 -0.4807 -0.0890
  781POPS   C4A11796  17.319   9.571   7.097  0.2361  0.0404  0.0791
  781POPS   C1B11797  17.487   8.846   6.336  0.2799  0.0351 -0.1078
  781POPS   C2B11798  17.455   8.376   6.303  0.1555 -0.2893 -0.1793
  781POPS   C3B11799  17.218   8.036   6.534 -0.2815 -0.0705 -0.2767
  781POPS   C4B11800  17.262   7.852   6.889  0.1781  0.0949 -0.4604
  782POPS   CNO11801   2.257  10.722   6.067  0.0052 -0.2044 -0.0471
  782POPS   PO411802   2.709  10.922   6.213  0.2582 -0.1497 -0.0211
  782POPS   GL111803   2.894  10.747   6.411  0.1003 -0.1610  0.2801
  782POPS   GL211804   3.124  10.769   6.654 -0.3779  0.0666  0.1154
  782POPS   C1A11805   2.772  10.564   6.859 -0.0360 -0.1056 -0.0908
  782POPS   D2A11806   2.693  10.566   7.227  0.1135 -0.2437 -0.1732
  782POPS   C3A11807   2.444  10.741   7.606 -0.1249  0.2343  0.0669
  782POPS   C4A11808   2.093  10.628   8.035  0.0227 -0.1220 -0.2228
  782POPS   C1B11809   3.092  10.962   7.021 -0.1112 -0.0891  0.1071
  782POPS   C2B11810   3.104  11.154   7.439 -0.1483  0.1519 -0.2683
  782POPS   C3B11811   3.039  11.181   7.801  0.0652  0.4680  0.2272
  782POPS   C4B11812   2.819  10.971   8.107 -0.0331  0.0399  0.3140
  783POPS   CNO11813  10.929   1.540   5.739  0.0291  0.1105 -0.2052
  783POPS   PO411814  11.243   1.296   6.057  0.1959  0.0222  0.1940
  783POPS   GL111815  11.350   1.316   6.499  0.0738 -0.1398  0.2562
  783POPS   GL211816  11.553   1.361   6.754 -0.1223  0.3115 -0.1732
  783POPS   C1A11817  11.131   1.372   6.985  0.0411 -0.3023 -0.2145
  783POPS   D2A11818  11.007   1.154   7.398  0.0044  0.1577  0.1433
  783POPS   C3A11819  11.442   1.096   7.722  0.0064 -0.0100 -0.2472
  783POPS   C4A11820  11.583   0.896   8.113  0.0952 -0.1294 -0.1880
  783POPS   C1B11821  11.745   1.109   7.087  0.3751  0.2577 -0.0016
  783POPS   C2B11822  11.940   1.256   7.490  0.4348  0.0110 -0.1685
  783POPS   C3B11823  11.850   1.655   7.681 -0.1927  0.5233  0.0110
  783POPS   C4B11824  11.929   1.930   8.045 -0.0368 -0.0366 -0.2944
  784POPS   CNO11825   3.587  10.552   6.211 -0.2017  0.1329  0.2368
  784POPS   PO411826   3.906  10.419   6.039  0.1695  0.0110 -0.1351
  784POPS   GL111827   3.924  10.254   6.428 -0.3981  0.2035  0.0099
  784POPS   GL211828   3.764  10.002   6.513 -0.1502  0.0565 -0.0081
  784POPS   C1A11829   3.959  10.417   6.813 -0.2397 -0.1001 -0.1518
  784POPS   D2A11830   4.004  10.625   7.148 -0.4726 -0.0309  0.0056
  784POPS   C3A11831   4.093  10.475   7.522 -0.1152 -0.0395  0.1519
  784POPS   C4A11832   4.386  10.471   7.797 -0.5942 -0.4127 -0.1015
  784POPS   C1B11833   4.008   9.881   6.841 -0.1312  0.0361 -0.3836
  784POPS   C2B11834   3.938   9.866   7.377 -0.0584  0.1264  0.0914
  784POPS   C3B11835   3.865  10.089   7.802 -0.0353  0.3082  0.0377
  784POPS   C4B11836   3.946  10.013   8.248  0.1218  0.2655 -0.3490
  785POPS   CNO11837   1.421   0.714   6.225  0.1266  0.0976  0.0367
  785POPS   PO411838   1.644   0.441   5.954 -0.2227 -0.1001  0.3733
  785POPS   GL111839   1.679   0.332   6.355 -0.1398 -0.1201  0.1660
  785POPS   GL211840   1.583  -0.019   6.468 -0.0775 -0.1330 -0.1113
  785POPS   C1A11841   1.863   0.193   6.848  0.1053  0.0824  0.2177
  785POPS   D2A11842   1.718   0.131   7.251 -0.0552 -0.1613  0.0993
  785POPS   C3A11843   1.941  -0.203   7.538  0.0862  0.1549 -0.0008
  785POPS   C4A11844   2.071  -0.366   7.973 -0.3654  0.0477 -0.0093
  785POPS   C1B11845   1.596  -0.324   6.752  0.2807 -0.3628 -0.0765
  785POPS   C2B11846   1.418  -0.331   7.175 -0.2475  0.2607  0.3513
  785POPS   C3B11847   1.372  -0.061   7.541 -0.3689  0.0271 -0.2008
  785POPS   C4B11848   1.381   0.317   7.686  0.0954 -0.1530 -0.0697
  786POPS   CNO11849  13.131  14.301   6.205 -0.0949 -0.1248  0.2334
  786POPS   PO411850  12.744  14.331   6.101 -0.0818  0.3060  0.3568
  786POPS   GL111851  12.789  14.163   6.598 -0.2033  0.0059 -0.0369
  786POPS   GL211852  12.571  13.838   6.532  0.1003  0.1680 -0.1459
  786POPS   C1A11853  12.690  14.291   6.992 -0.4678  0.2043 -0.0937
  786POPS   D2A11854  12.765  14.245   7.397 -0.2906  0.2085 -0.1688
  786POPS   C3A11855  12.605  14.214   7.954 -0.0395  0.1231 -0.1038
  786POPS   C4A11856  12.261  14.124   8.278  0.1855 -0.0033  0.4342
  786POPS   C1B11857  12.604  13.768   6.932  0.2697  0.3981 -0.0773
  786POPS   C2B11858  12.597  13.320   7.317  0.1879 -0.3680  0.1289
  786POPS   C3B11859  12.556  12.914   7.480 -0.1310  0.1497  0.1630
  786POPS   C4B11860  12.451  12.523   7.616  0.1944 -0.2950 -0.2732
  787POPS   CNO11861  10.072   2.968   6.315  0.2455 -0.0241 -0.0905
  787POPS   PO411862  10.475   3.012   6.095 -0.2624 -0.0434  0.0780
  787POPS   GL111863  10.703   3.030   6.444  0.1482  0.0099 -0.1646
  787POPS   GL211864  10.897   3.243   6.581  0.0292  0.0143  0.1163
  787POPS   C1A11865  10.784   2.731   6.807 -0.1565  0.0695 -0.0756
  787POPS   D2A11866  10.513   2.648   7.162 -0.1203  0.0683  0.0390
  787POPS   C3A11867  10.630   2.489   7.594 -0.2226  0.2579  0.1242
  787POPS   C4A11868  11.003   2.263   7.663 -0.0658 -0.0978 -0.2004
  787POPS   C1B11869  10.728   3.155   7.021 -0.2228  0.0815 -0.0659
  787POPS   C2B11870  10.839   2.912   7.372  0.2974 -0.0715  0.0913
  787POPS   C3B11871  11.168   2.765   7.669 -0.2502  0.1972  0.2134
  787POPS   C4B11872  11.305   2.482   7.987 -0.0603  0.0575  0.3435
  788POPS   CNO11873  16.887  17.050   5.683 -0.1041  0.1513 -0.2620
  788POPS   PO411874  17.218  17.273   5.595 -0.2613 -0.0300  0.1327
  788POPS   GL111875  17.213  17.422   5.986 -0.1902 -0.0652  0.0002
  788POPS   GL211876  17.094  17.193   6.139 -0.1811 -0.0494 -0.0950
  788POPS   C1A11877  17.288  17.571   6.405 -0.1098  0.1776  0.2034
  788POPS   D2A11878  17.102  17.795   6.739 -0.0050  0.1296 -0.0012
  788POPS   C3A11879  17.425  18.019   7.008 -0.1149  0.0459  0.4174
  788POPS   C4A11880  17.614  17.989   7.393 -0.0248 -0.2136  0.0069
  788POPS   C1B11881  16.867  17.377   6.520 -0.1133  0.2420 -0.1690
  788POPS   C2B11882  16.870  17.325   6.926 -0.1556  0.0754  0.1995
  788POPS   C3B11883  17.011  17.142   7.259  0.4396  0.0333 -0.5555
  788POPS   C4B11884  16.999  17.224   7.708  0.0123  0.1596 -0.1153
  789POPS   CNO11885   4.413  10.352   5.834 -0.1528  0.0450 -0.0838
  789POPS   PO411886   4.502  10.219   6.201 -0.3023 -0.2782  0.4996
  789POPS   GL111887   4.525  10.604   6.518  0.2502  0.1811 -0.1163
  789POPS   GL211888   4.276  10.738   6.497  0.2757 -0.1529 -0.1519
  789POPS   C1A11889   4.550  10.723   6.901 -0.0618  0.0560 -0.0363
  789POPS   D2A11890   4.519  10.783   7.412 -0.1519  0.0938  0.1238
  789POPS   C3A11891   4.855  10.832   7.723 -0.0302 -0.1293  0.0602
  789POPS   C4A11892   5.177  10.815   7.893 -0.2964 -0.0857  0.2547
  789POPS   C1B11893   4.029  10.989   6.773 -0.1313 -0.0406  0.0229
  789POPS   C2B11894   4.092  11.136   7.169  0.1564 -0.0571  0.0967
  789POPS   C3B11895   4.060  10.999   7.570 -0.0672  0.2246  0.1579
  789POPS   C4B11896   3.989  10.782   7.967  0.0605  0.0799 -0.0048
  790POPS   CNO11897   1.542  16.930   5.306 -0.1043  0.2945  0.0722
  790POPS   PO411898   1.345  16.719   5.708  0.0512  0.1656  0.0803
  790POPS   GL111899   1.304  16.971   6.120 -0.3733 -0.3069  0.3593
  790POPS   GL211900   1.633  17.104   6.148 -0.2930  0.2039  0.1667
  790POPS   C1A11901   1.219  16.805   6.560  0.1375  0.1675  0.0804
  790POPS   D2A11902   1.153  17.070   6.880  0.2587  0.0794  0.2052
  790POPS   C3A11903   1.115  16.932   7.351 -0.1112 -0.3211  0.1015
  790POPS   C4A11904   1.027  16.812   7.832  0.1035 -0.1440  0.0680
  790POPS   C1B11905   1.336  17.357   6.491 -0.1187 -0.0271  0.0309
  790POPS   C2B11906   1.190  17.545   6.839 -0.2662  0.1697 -0.1818
  790POPS   C3B11907   1.219  17.399   7.287 -0.1732 -0.0327 -0.0629
  790POPS   C4B11908   1.315  17.230   7.766  0.0171  0.2100  0.0469
  791YOPS   CNO11909  10.259  17.156   6.014  0.1003 -0.3021  0.1511
  791YOPS   PO411910  10.560  16.825   6.184  0.3510 -0.1298  0.1672
  791YOPS   GL111911  10.379  16.875   6.560 -0.2723  0.2684  0.1111
  791YOPS   GL211912  10.112  17.083   6.497  0.0636  0.2905 -0.2158
  791YOPS   C1A11913  10.532  17.097   6.857 -0.1194 -0.0943 -0.0650
  791YOPS   D2A11914  10.780  17.096   7.247  0.0937 -0.1890 -0.1842
  791YOPS   C3A11915  10.787  17.371   7.664 -0.0792  0.0582 -0.0397
  791YOPS   C4A11916  10.496  17.591   7.632 -0.3982  0.1684 -0.2427
  791YOPS   C1B11917  10.357  17.435   6.494  0.1171  0.0489 -0.1073
  791YOPS   C2B11918  10.379  17.817   6.728 -0.3086 -0.0533  0.0849
  791YOPS   D3B11919  10.717  18.026   6.848 -0.0666 -0.0604 -0.2105
  791YOPS   C4B11920  10.858  18.183   6.448  0.3454 -0.1520  0.1263
  792YOPS   CNO11921  12.294  14.764   6.220 -0.1297 -0.1137  0.1896
  792YOPS   PO411922  12.552  14.730   6.422 -0.5016 -0.0307 -0.2025
  792YOPS   GL111923  12.556  14.838   6.867 -0.0281 -0.2577 -0.0762
  792YOPS   GL211924  12.513  15.142   7.015 -0.0775  0.1475  0.1858
  792YOPS   C1A11925  12.932  14.934   7.120 -0.0743 -0.0676  0.1789
  792YOPS   D2A11926  13.158  14.733   7.369  0.2784 -0.1377 -0.2278
  792YOPS   C3A11927  13.270  14.810   7.751  0.4400  0.2219 -0.1934
  792YOPS   C4A11928  12.913  14.735   8.066  0.1458  0.1915 -0.1750
  792YOPS   C1B11929  12.436  15.061   7.335  0.0062  0.1512 -0.2404
  792YOPS   C2B11930  12.141  14.880   7.653 -0.2276  0.4379 -0.1113
  792YOPS   D3B11931  11.898  14.462   7.593 -0.1224 -0.1053  0.0333
  792YOPS   C4B11932  12.169  14.203   7.772 -0.2013 -0.1755  0.0173
  793YOPS   CNO11933   0.094  13.142   6.616  0.0687 -0.0289  0.0386
  793YOPS   PO411934   0.395  12.953   6.289 -0.0908  0.0889 -0.1075
  793YOPS   GL111935   0.362  12.633   6.602  0.1118  0.1408 -0.1312
  793YOPS   GL211936   0.551  12.892   6.803  0.2309 -0.0909 -0.1189
  793YOPS   C1A11937   0.266  12.333   6.898  0.3265  0.0140  0.0397
  793YOPS   D2A11938   0.245  12.004   7.086 -0.1441  0.0467 -0.1134
  793YOPS   C3A11939   0.135  11.910   7.473  0.0546 -0.2704  0.0485
  793YOPS   C4A11940  -0.176  11.830   7.826 -0.0436 -0.1811  0.0789
  793YOPS   C1B11941   0.724  12.733   7.279 -0.1372 -0.2584  0.3136
  793YOPS   C2B11942   0.930  12.649   7.542  0.4618 -0.3008 -0.0216
  793YOPS   D3B11943   1.176  12.896   7.737  0.1805 -0.0657  0.0397
  793YOPS   C4B11944   1.400  12.808   8.238  0.0993  0.3838  0.0805
  794YOPS   CNO11945  16.073  15.795   6.003 -0.0788 -0.1535  0.1660
  794YOPS   PO411946  15.890  16.172   6.037 -0.1875 -0.2572  0.0155
  794YOPS   GL111947  16.130  16.216   6.432  0.1379  0.1878  0.0420
  794YOPS   GL211948  16.368  16.064   6.511  0.1532  0.1989  0.0695
  794YOPS   C1A11949  16.001  16.270   6.799 -0.0237 -0.1352  0.2310
  794YOPS   D2A11950  16.046  16.284   7.181  0.3372 -0.1058 -0.1534
  794YOPS   C3A11951  16.259  16.549   7.463  0.1416  0.2269  0.2048
  794YOPS   C4A11952  16.445  16.952   7.337  0.1295 -0.1268  0.0793
  794YOPS   C1B11953  16.468  16.174   6.936  0.2092  0.0154  0.0551
  794YOPS   C2B11954  16.537  16.152   7.354 -0.0224  0.2106  0.0623
  794YOPS   D3B11955  16.563  16.187   7.760 -0.3367  0.0423 -0.5744
  794YOPS   C4B11956  16.807  15.953   8.033 -0.3392  0.2802 -0.1831
  795YOPS   CNO11957  10.558   7.484   6.488 -0.1635 -0.2031  0.0117
  795YOPS   PO411958  10.312   7.302   6.176  0.1013  0.1189  0.0006
  795YOPS   GL111959  10.127   7.267   6.609  0.2603  0.1699  0.3312
  795YOPS   GL211960  10.064   7.555   6.646 -0.1462  0.1048 -0.1557
  795YOPS   C1A11961  10.323   7.248   6.969 -0.2902 -0.4190  0.0508
  795YOPS   D2A11962  10.423   6.927   7.409  0.0492  0.1838  0.0844
  795YOPS   C3A11963  10.387   6.647   7.795 -0.0644 -0.0633  0.1478
  795YOPS   C4A11964  10.697   6.439   8.028  0.0406  0.1239  0.1383
  795YOPS   C1B11965  10.290   7.749   6.963  0.1685  0.1777  0.1355
  795YOPS   C2B11966  10.512   7.769   7.267  0.1287  0.2579  0.0075
  795YOPS   D3B11967  10.637   7.656   7.777 -0.0729  0.0350 -0.0007
  795YOPS   C4B11968  10.294   7.574   8.032  0.1970 -0.0230  0.1280
  796YOPS   CNO11969  16.470  15.757   5.660 -0.1958  0.0766 -0.2117
  796YOPS   PO411970  16.622  15.683   6.084 -0.1057 -0.0823  0.0852
  796YOPS   GL111971  16.571  15.577   6.447 -0.2030 -0.1720  0.0287
  796YOPS   GL211972  16.456  15.248   6.523 -0.3166 -0.0784  0.1241
  796YOPS   C1A11973  16.773  15.733   6.786  0.1022 -0.0923  0.1012
  796YOPS   D2A11974  16.861  15.649   7.173 -0.0486 -0.0094 -0.0432
  796YOPS   C3A11975  16.858  15.754   7.585 -0.1470  0.3312  0.0555
  796YOPS   C4A11976  16.476  15.711   7.623  0.1727  0.2585 -0.1466
  796YOPS   C1B11977  16.539  15.304   6.977 -0.1530 -0.0095  0.0295
  796YOPS   C2B11978  16.375  15.256   7.401  0.0117 -0.4006  0.1177
  796YOPS   D3B11979  16.055  15.438   7.731  0.2412  0.1921  0.1086
  796YOPS   C4B11980  15.695  15.351   8.027 -0.1683  0.1797 -0.0856
  797YOPS   CNO11981  14.158  18.166   6.105 -0.1646  0.4131 -0.0815
  797YOPS   PO411982  13.796  18.052   6.231  0.2370  0.0553 -0.2737
  797YOPS   GL111983  13.937  18.193   6.631 -0.0354  0.0838  0.0788
  797YOPS   GL211984  13.665  18.318   6.745  0.0879 -0.1259  0.3124
  797YOPS   C1A11985  14.170  18.012   7.038  0.1261 -0.0595 -0.0156
  797YOPS   D2A11986  14.124  17.889   7.514  0.0236 -0.0883  0.2197
  797YOPS   C3A11987  14.227  17.804   7.910  0.0571 -0.3951  0.0108
  797YOPS   C4A11988  14.621  17.885   7.997  0.3966 -0.0294  0.0068
  797YOPS   C1B11989  13.240  18.343   6.901  0.0550  0.0990 -0.0925
  797YOPS   C2B11990  13.172  18.481   7.266 -0.1384 -0.3243 -0.2245
  797YOPS   D3B11991  12.841  18.446   7.551  0.2266  0.0082 -0.0661
  797YOPS   C4B11992  12.911  18.249   8.002  0.4061 -0.1408  0.2741
  798YOPS   CNO11993   7.379   7.095   6.170 -0.1218 -0.1179 -0.0301
  798YOPS   PO411994   7.520   6.746   5.965 -0.2871 -0.3057  0.1071
  798YOPS   GL111995   7.678   6.682   6.371 -0.1948  0.0748  0.1625
  798YOPS   GL211996   7.806   6.979   6.483 -0.0672 -0.1395  0.0766
  798YOPS   C1A11997   7.669   6.431   6.718 -0.2410 -0.0507 -0.0874
  798YOPS   D2A11998   7.643   6.312   7.158  0.0091 -0.1229 -0.3083
  798YOPS   C3A11999   7.756   6.736   7.309 -0.3938  0.0205 -0.1502
  798YOPS   C4A12000   7.909   6.749   7.715 -0.0082  0.0730 -0.1758
  798YOPS   C1B12001   7.552   6.908   6.839  0.0923 -0.1133 -0.1174
  798YOPS   C2B12002   7.381   7.037   7.281  0.1703  0.0462 -0.0416
  798YOPS   D3B12003   7.367   6.992   7.756  0.2317  0.0388 -0.1606
  798YOPS   C4B12004   7.810   7.140   8.005 -0.1786  0.3025 -0.1811
  799YOPS   CNO12005  14.973   7.180   4.889  0.0833 -0.0212 -0.1146
  799YOPS   PO412006  15.085   6.910   5.259 -0.1545 -0.0084  0.2356
  799YOPS   GL112007  15.063   6.762   5.713 -0.2798 -0.1706 -0.2433
  799YOPS   GL212008  14.675   6.861   5.830 -0.2826 -0.1785  0.1318
  799YOPS   C1A12009  15.080   6.536   6.122 -0.1890 -0.1705 -0.2616
  799YOPS   D2A12010  14.940   6.250   6.306  0.4460 -0.2882 -0.0313
  799YOPS   C3A12011  14.556   5.920   6.238 -0.1730  0.0806 -0.0263
  799YOPS   C4A12012  14.231   6.078   6.446 -0.1724  0.1380 -0.1614
  799YOPS   C1B12013  14.691   6.765   6.376  0.0050 -0.1065  0.3855
  799YOPS   C2B12014  14.703   6.477   6.743 -0.1257 -0.1245 -0.1384
  799YOPS   D3B12015  14.649   6.036   6.969  0.3853  0.0627  0.1663
  799YOPS   C4B12016  14.718   5.857   7.392 -0.0476 -0.0050 -0.0182
  800YOPS   CNO12017   3.157   4.539   5.794 -0.0862  0.0885  0.1551
  800YOPS   PO412018   2.901   4.255   5.729  0.2996  0.2276  0.3288
  800YOPS   GL112019   3.014   4.106   6.120  0.0019 -0.1708 -0.0945
  800YOPS   GL212020   3.065   3.809   6.145 -0.1801 -0.1269 -0.1674
  800YOPS   C1A12021   3.364   4.294   6.388  0.2520 -0.2495 -0.3050
  800YOPS   D2A12022   3.286   4.520   6.759  0.1256 -0.1041 -0.2858
  800YOPS   C3A12023   3.527   4.804   7.119  0.2933  0.0693  0.1619
  800YOPS   C4A12024   3.970   4.791   7.165 -0.3505  0.0061  0.0082
  800YOPS   C1B12025   3.206   3.776   6.492  0.1572  0.0355  0.0045
  800YOPS   C2B12026   3.083   3.491   6.716 -0.3194 -0.2546 -0.2629
  800YOPS   D3B12027   2.965   3.375   7.102  0.0051 -0.0183 -0.2467
  800YOPS   C4B12028   2.632   3.293   7.273 -0.0058 -0.1275 -0.0205
  801YOPS   CNO12029   5.602   5.196   6.150  0.1199  0.0990 -0.0641
  801YOPS   PO412030   5.167   4.982   6.147 -0.1435 -0.2534 -0.1810
  801YOPS   GL112031   5.394   4.832   6.493  0.0435 -0.0424 -0.0320
  801YOPS   GL212032   5.747   4.797   6.475 -0.0287 -0.1590 -0.0172
  801YOPS   C1A12033   5.388   5.001   6.934  0.2120 -0.2321 -0.0717
  801YOPS   D2A12034   5.333   5.179   7.426 -0.3287  0.0966 -0.0917
  801YOPS   C3A12035   5.274   5.449   7.841 -0.3294 -0.3097 -0.1166
  801YOPS   C4A12036   5.414   5.827   7.828 -0.2012 -0.1805  0.1479
  801YOPS   C1B12037   5.729   4.609   6.836 -0.0137  0.5412 -0.1155
  801YOPS   C2B12038   5.515   4.639   7.214  0.0010  0.1281  0.1304
  801YOPS   D3B12039   5.523   4.739   7.639  0.0411  0.0498  0.0530
  801YOPS   C4B12040   5.159   4.969   7.870 -0.0660  0.5832  0.0221
  802YOPS   CNO12041  11.951  17.113   6.071  0.0275  0.3711  0.1914
  802YOPS   PO412042  12.263  16.767   6.111 -0.2312  0.2244 -0.2295
  802YOPS   GL112043  12.026  16.917   6.574 -0.0476  0.3012  0.1673
  802YOPS   GL212044  12.168  17.148   6.586 -0.1092 -0.1734  0.0762
  802YOPS   C1A12045  11.900  16.970   6.958  0.0266 -0.0131  0.2926
  802YOPS   D2A12046  11.771  16.961   7.432 -0.2608  0.0921 -0.2126
  802YOPS   C3A12047  11.835  16.875   7.953  0.1241  0.0665  0.0012
  802YOPS   C4A12048  12.050  16.898   8.367 -0.0672 -0.2607 -0.0980
  802YOPS   C1B12049  12.243  17.379   6.924 -0.2705 -0.3268 -0.5218
  802YOPS   C2B12050  11.996  17.446   7.350 -0.0695 -0.3296  0.2850
  802YOPS   D3B12051  11.741  17.412   7.728 -0.1912  0.2182  0.1202
  802YOPS   C4B12052  11.717  17.700   8.165  0.0241  0.1655 -0.0566
  803YOPS   CNO12053  17.503   4.444   5.069 -0.0267  0.1405  0.1325
  803YOPS   PO412054  17.077   4.452   5.123 -0.1260 -0.0754 -0.2193
  803YOPS   GL112055  17.244   4.688   5.454  0.1032  0.1585 -0.0423
  803YOPS   GL212056  17.545   4.765   5.492 -0.1283 -0.2395 -0.1598
  803YOPS   C1A12057  17.107   4.844   5.863 -0.0158 -0.0114 -0.0109
  803YOPS   D2A12058  17.240   4.689   6.229  0.0556 -0.1516 -0.0370
  803YOPS   C3A12059  17.104   4.768   6.724  0.1148  0.3216  0.1371
  803YOPS   C4A12060  17.301   4.555   6.990 -0.2891  0.1570  0.2808
  803YOPS   C1B12061  17.621   4.646   5.934  0.3614  0.2830 -0.1036
  803YOPS   C2B12062  17.809   4.453   6.190 -0.0318 -0.0136 -0.2626
  803YOPS   D3B12063  18.192   4.570   6.483 -0.0209  0.0732 -0.0895
  803YOPS   C4B12064  18.298   4.301   6.759 -0.0460  0.1405 -0.0585
  804YOPS   CNO12065  10.351   8.128   5.801  0.1173  0.1878  0.0256
  804YOPS   PO412066  10.418   8.208   6.212  0.1794  0.2404  0.1806
  804YOPS   GL112067  10.363   8.044   6.593 -0.1812  0.0523 -0.0124
  804YOPS   GL212068  10.740   7.997   6.659  0.2602 -0.2331 -0.4003
  804YOPS   C1A12069  10.444   8.187   7.050 -0.4750 -0.0649 -0.0103
  804YOPS   D2A12070  10.428   8.190   7.553  0.3525  0.2789  0.1088
  804YOPS   C3A12071  10.127   8.064   7.990 -0.1710 -0.0226 -0.0173
  804YOPS   C4A12072  10.132   8.376   8.266 -0.0440 -0.0596  0.0809
  804YOPS   C1B12073  10.960   8.056   7.070 -0.1644 -0.0174  0.0438
  804YOPS   C2B12074  10.822   8.403   7.317 -0.4146 -0.1132  0.1279
  804YOPS   D3B12075  10.906   8.872   7.435  0.1045 -0.1976  0.2734
  804YOPS   C4B12076  10.686   9.064   7.793  0.0620  0.0670  0.1008
  805YOPS   CNO12077   6.622  11.424   6.382  0.0865 -0.0880  0.0344
  805YOPS   PO412078   6.635  11.072   6.250 -0.0006 -0.1193 -0.0217
  805YOPS   GL112079   6.827  10.952   6.697 -0.0607  0.0938 -0.3648
  805YOPS   GL212080   6.940  11.226   6.773 -0.0424 -0.0254  0.0569
  805YOPS   C1A12081   6.518  10.805   7.126 -0.1601 -0.1003  0.0030
  805YOPS   D2A12082   6.499  10.693   7.586 -0.0698 -0.1318 -0.1905
  805YOPS   C3A12083   6.349  10.948   7.930  0.0470 -0.2668  0.0818
  805YOPS   C4A12084   6.591  10.896   8.282 -0.0213 -0.0475  0.2153
  805YOPS   C1B12085   6.919  11.086   7.246  0.1969  0.0804  0.2330
  805YOPS   C2B12086   6.974  11.030   7.703 -0.0847 -0.1211  0.1214
  805YOPS   D3B12087   7.040  11.079   8.215  0.2607  0.2731  0.1411
  805YOPS   C4B12088   7.482  11.115   8.392  0.0326  0.1236  0.3487
  806YOPS   CNO12089  16.327   2.989   4.890  0.0384 -0.2595  0.1638
  806YOPS   PO412090  16.217   3.012   5.273 -0.1383 -0.2538  0.4194
  806YOPS   GL112091  16.051   3.147   5.630  0.1047 -0.1073  0.0987
  806YOPS   GL212092  16.157   2.831   5.818  0.0101  0.0093  0.1126
  806YOPS   C1A12093  15.792   3.365   5.794  0.0280 -0.1483  0.1313
  806YOPS   D2A12094  15.617   3.559   6.115 -0.0023  0.0941  0.3845
  806YOPS   C3A12095  15.458   3.392   6.523  0.1982  0.2003  0.1139
  806YOPS   C4A12096  15.302   3.595   6.824  0.0486  0.0264 -0.0766
  806YOPS   C1B12097  16.228   2.842   6.244  0.0892 -0.1341  0.2000
  806YOPS   C2B12098  16.166   2.964   6.655  0.0970  0.0384  0.1111
  806YOPS   D3B12099  16.285   2.990   7.022 -0.1054 -0.0226  0.0124
  806YOPS   C4B12100  16.099   3.311   7.311  0.2235 -0.1788 -0.1582
  807YOPS   CNO12101   1.171   2.799   4.998 -0.1114  0.0364  0.0714
  807YOPS   PO412102   1.232   2.978   5.351  0.1394  0.1757 -0.0462
  807YOPS   GL112103   1.388   2.799   5.708  0.2293  0.1145  0.1683
  807YOPS   GL212104   1.610   2.520   5.732 -0.0422  0.1426  0.0126
  807YOPS   C1A12105   1.551   2.868   6.105 -0.2375 -0.1687  0.1218
  807YOPS   D2A12106   1.631   3.106   6.522  0.2442 -0.0666 -0.0677
  807YOPS   C3A12107   1.603   3.123   7.006 -0.0716  0.4766 -0.1850
  807YOPS   C4A12108   1.390   3.012   7.319 -0.1552 -0.1084 -0.0452
  807YOPS   C1B12109   1.870   2.354   6.078 -0.1693 -0.3227  0.0273
  807YOPS   C2B12110   2.195   2.051   6.269 -0.0276 -0.2604 -0.4035
  807YOPS   D3B12111   2.406   1.818   6.567  0.1252 -0.0800  0.0863
  807YOPS   C4B12112   2.363   1.297   6.554  0.0572 -0.3301 -0.2236
  808YOPS   CNO12113  10.670   9.165   6.174 -0.3951 -0.1534  0.0689
  808YOPS   PO412114  10.734   9.566   6.200 -0.1672 -0.0906 -0.0821
  808YOPS   GL112115  10.862   9.518   6.614  0.0449  0.0204  0.0591
  808YOPS   GL212116  10.553   9.381   6.625 -0.0585 -0.2037 -0.0625
  808YOPS   C1A12117  10.863   9.225   6.981  0.3311 -0.0710  0.2107
  808YOPS   D2A12118  11.055   9.338   7.491 -0.2912 -0.1583  0.0460
  808YOPS   C3A12119  11.257   9.319   7.890  0.3165 -0.0942 -0.1431
  808YOPS   C4A12120  11.675   9.179   7.939  0.4052  0.1716  0.2068
  808YOPS   C1B12121  10.472   9.619   6.925  0.0706 -0.1344  0.0355
  808YOPS   C2B12122  10.553  10.074   7.106 -0.0516  0.0285  0.1430
  808YOPS   D3B12123  10.609  10.259   7.503  0.2162 -0.2315  0.0888
  808YOPS   C4B12124  10.932  10.590   7.663  0.1200  0.2783  0.0757
  809YOPS   CNO12125  17.821  16.670   5.827  0.2772 -0.0661  0.2408
  809YOPS   PO412126  17.534  16.768   6.236 -0.1853 -0.1026 -0.0202
  809YOPS   GL112127  17.289  17.014   6.557  0.1560  0.1452 -0.1062
  809YOPS   GL212128  17.080  16.851   6.622 -0.1229  0.0831 -0.3169
  809YOPS   C1A12129  17.407  17.298   6.813  0.1352  0.0454  0.2566
  809YOPS   D2A12130  17.248  17.538   7.135  0.2898 -0.1251  0.1421
  809YOPS   C3A12131  16.985  17.795   7.499 -0.0630 -0.1552  0.1519
  809YOPS   C4A12132  16.645  17.538   7.414 -0.2676 -0.0974  0.0971
  809YOPS   C1B12133  17.199  16.723   7.013 -0.1203  0.3958 -0.3049
  809YOPS   C2B12134  17.246  16.784   7.510 -0.1085 -0.0420  0.3031
  809YOPS   D3B12135  17.227  16.830   7.870 -0.1162 -0.0004 -0.1205
  809YOPS   C4B12136  17.376  17.232   8.033  0.0285 -0.3784 -0.0172
  810YOPS   CNO12137   7.633  15.913   5.854 -0.0794 -0.3341  0.0637
  810YOPS   PO412138   7.486  16.088   6.251 -0.1079 -0.1809  0.0023
  810YOPS   GL112139   7.721  16.295   6.576  0.1272 -0.2793  0.2346
  810YOPS   GL212140   7.433  16.503   6.696  0.1726  0.0794 -0.0052
  810YOPS   C1A12141   8.153  16.466   6.686  0.0514  0.0231  0.1482
  810YOPS   D2A12142   8.423  16.800   6.609  0.0085  0.0329 -0.1823
  810YOPS   C3A12143   8.361  17.173   6.488  0.1996  0.2807 -0.1072
  810YOPS   C4A12144   8.730  17.388   6.527  0.2132 -0.0855 -0.0571
  810YOPS   C1B12145   7.661  16.562   7.066 -0.2354  0.0665 -0.0654
  810YOPS   C2B12146   7.756  16.589   7.424  0.0308  0.0579 -0.0397
  810YOPS   D3B12147   7.624  16.539   7.753 -0.2355  0.1374  0.2143
  810YOPS   C4B12148   7.207  16.786   7.789  0.3448  0.0424  0.0556
  811YOPS   CNO12149  10.051   0.824   5.806 -0.0232 -0.0083 -0.0361
  811YOPS   PO412150  10.578   0.811   5.969  0.2377  0.0200  0.0826
  811YOPS   GL112151  10.326   0.934   6.277  0.0626 -0.1899  0.0239
  811YOPS   GL212152  10.064   0.905   6.321 -0.0373  0.1887 -0.1996
  811YOPS   C1A12153  10.334   1.005   6.718 -0.1645  0.0102 -0.0201
  811YOPS   D2A12154  10.594   1.108   7.039  0.2202  0.1054 -0.0356
  811YOPS   C3A12155  10.552   1.111   7.551 -0.1524  0.1495 -0.0857
  811YOPS   C4A12156  10.261   1.126   7.837 -0.1473 -0.1178  0.1208
  811YOPS   C1B12157   9.979   0.580   6.678  0.1527 -0.4872 -0.1047
  811YOPS   C2B12158   9.995   0.407   7.110  0.1919 -0.3734 -0.1057
  811YOPS   D3B12159  10.128   0.398   7.525 -0.0088 -0.1400 -0.0549
  811YOPS   C4B12160  10.371   0.703   7.726  0.0097 -0.3072  0.3129
  812YOPS   CNO12161   9.334  12.296   6.076  0.1491 -0.0977  0.2200
  812YOPS   PO412162   9.078  12.172   6.396  0.0766 -0.1201 -0.0403
  812YOPS   GL112163   9.161  12.287   6.746  0.1972  0.1586  0.0125
  812YOPS   GL212164   9.385  12.583   6.779  0.0771 -0.0871 -0.0336
  812YOPS   C1A12165   8.833  12.084   7.074  0.0914 -0.0402  0.0718
  812YOPS   D2A12166   8.524  11.938   7.391  0.0516  0.0527  0.1234
  812YOPS   C3A12167   8.614  11.622   7.768  0.1263  0.0485  0.1188
  812YOPS   C4A12168   8.599  11.746   8.044  0.0311  0.2050  0.0884
  812YOPS   C1B12169   9.124  12.504   7.224  0.1177  0.1477  0.2171
  812YOPS   C2B12170   8.751  12.399   7.491  0.0731  0.2859  0.1667
  812YOPS   D3B12171   8.381  12.144   7.847  0.1059  0.1738 -0.0909
  812YOPS   C4B12172   8.308  12.170   8.353 -0.2241 -0.2672 -0.0295
  813YOPS   CNO12173   7.595  14.634   5.782  0.0895 -0.0575  0.1482
  813YOPS   PO412174   7.457  14.512   6.218 -0.2294 -0.1696  0.0691
  813YOPS   GL112175   7.274  14.519   6.636  0.1314 -0.1787  0.0943
  813YOPS   GL212176   7.588  14.318   6.735  0.3569  0.4513  0.1109
  813YOPS   C1A12177   6.932  14.529   6.960 -0.1546  0.3149 -0.2530
  813YOPS   D2A12178   7.059  14.553   7.385 -0.0972 -0.0711 -0.1756
  813YOPS   C3A12179   7.091  14.352   7.833 -0.1538  0.1317  0.0229
  813YOPS   C4A12180   6.939  14.257   8.166 -0.0378 -0.0808 -0.4112
  813YOPS   C1B12181   7.384  14.167   7.129 -0.1471 -0.2159 -0.2823
  813YOPS   C2B12182   7.457  14.161   7.535 -0.0810  0.0848  0.0151
  813YOPS   D3B12183   7.656  14.290   7.894 -0.1463  0.0736 -0.0722
  813YOPS   C4B12184   7.788  14.168   8.302 -0.0961 -0.0210  0.1526
  814YOPS   CNO12185  13.099   4.092   6.705  0.0920 -0.3114  0.1753
  814YOPS   PO412186  12.746   3.954   6.410  0.3230 -0.0282  0.2955
  814YOPS   GL112187  12.822   3.643   6.752 -0.0862  0.0996  0.0194
  814YOPS   GL212188  12.669   3.364   6.759  0.3717 -0.4691 -0.0475
  814YOPS   C1A12189  12.962   3.475   7.194  0.4051 -0.3943  0.0228
  814YOPS   D2A12190  13.114   3.614   7.653  0.2988  0.1692  0.0003
  814YOPS   C3A12191  13.443   3.854   7.919 -0.1287 -0.1112  0.1261
  814YOPS   C4A12192  13.514   3.998   8.279  0.1579 -0.2379  0.3566
  814YOPS   C1B12193  12.480   3.298   7.127  0.2286  0.0626  0.2934
  814YOPS   C2B12194  12.202   3.305   7.591 -0.2001 -0.2417  0.0919
  814YOPS   D3B12195  12.212   3.590   7.982 -0.0545 -0.0508 -0.0731
  814YOPS   C4B12196  12.071   3.846   8.270  0.0650  0.2872  0.1031
  815YOPS   CNO12197  15.515  11.978   6.142  0.1697  0.0688 -0.0892
  815YOPS   PO412198  15.199  11.764   6.153  0.3255 -0.1656  0.1721
  815YOPS   GL112199  15.350  11.888   6.572  0.0766  0.0973 -0.1420
  815YOPS   GL212200  15.259  12.152   6.706  0.1216  0.1803 -0.1965
  815YOPS   C1A12201  15.633  11.732   6.930 -0.2089  0.0622  0.0040
  815YOPS   D2A12202  15.469  11.862   7.276 -0.0106 -0.0516 -0.2484
  815YOPS   C3A12203  15.835  12.058   7.508 -0.0072  0.1246 -0.0942
  815YOPS   C4A12204  15.948  12.483   7.814  0.0117  0.3485 -0.1217
  815YOPS   C1B12205  15.023  12.017   7.078 -0.1255  0.1771  0.2672
  815YOPS   C2B12206  15.016  11.934   7.512  0.4688 -0.1941 -0.0198
  815YOPS   D3B12207  15.349  11.759   7.857  0.0075  0.1660  0.3516
  815YOPS   C4B12208  15.366  11.861   8.220  0.3892  0.2373 -0.2919
  816YOPS   CNO12209   0.533   7.746   5.273  0.0595 -0.0569 -0.2783
  816YOPS   PO412210   0.175   7.869   5.526 -0.1894  0.3423 -0.0180
  816YOPS   GL112211   0.276   7.719   5.955 -0.0959 -0.1671  0.0262
  816YOPS   GL212212   0.692   7.536   5.905 -0.4129  0.3260 -0.0689
  816YOPS   C1A12213   0.190   7.743   6.366  0.0105 -0.1164  0.0381
  816YOPS   D2A12214   0.249   7.775   6.809 -0.0304  0.2790 -0.0302
  816YOPS   C3A12215   0.267   7.545   7.241  0.1727  0.2009  0.0344
  816YOPS   C4A12216   0.258   7.675   7.596  0.2284  0.1219  0.1111
  816YOPS   C1B12217   0.999   7.214   6.189 -0.0613  0.1387  0.4048
  816YOPS   C2B12218   0.899   7.100   6.614 -0.0886  0.0795 -0.0058
  816YOPS   D3B12219   0.881   6.859   6.963  0.1591  0.2757 -0.0498
  816YOPS   C4B12220   1.061   7.009   7.268  0.2034  0.0130 -0.2283
  817YOPS   CNO12221   4.614   1.873   6.140 -0.0787 -0.0334 -0.2974
  817YOPS   PO412222   4.973   1.603   6.092 -0.1843 -0.2101 -0.0915
  817YOPS   GL112223   4.811   1.498   6.501  0.2102 -0.1597 -0.0196
  817YOPS   GL212224   4.560   1.754   6.669  0.2507  0.1893 -0.3069
  817YOPS   C1A12225   5.000   1.572   6.844  0.2534  0.2996  0.0788
  817YOPS   D2A12226   5.035   1.397   7.282 -0.2317 -0.0597 -0.1935
  817YOPS   C3A12227   4.820   1.349   7.633 -0.0244 -0.1157 -0.2390
  817YOPS   C4A12228   5.092   1.257   7.964 -0.1730  0.1973  0.1781
  817YOPS   C1B12229   4.673   1.798   7.149 -0.1681 -0.0175 -0.2937
  817YOPS   C2B12230   4.745   1.849   7.680 -0.2634 -0.0533  0.1275
  817YOPS   D3B12231   4.744   2.143   8.054 -0.1216  0.0538 -0.1631
  817YOPS   C4B12232   4.993   2.149   8.348 -0.1119  0.1085 -0.1293
  818YOPS   CNO12233   4.575   6.234   6.296  0.1130 -0.0451 -0.0291
  818YOPS   PO412234   4.575   6.632   6.322  0.0274  0.2219 -0.4467
  818YOPS   GL112235   4.566   6.587   6.720  0.0304  0.0257 -0.2415
  818YOPS   GL212236   4.215   6.415   6.679  0.0277 -0.2537  0.1407
  818YOPS   C1A12237   4.641   6.378   7.105 -0.0804 -0.2835  0.1133
  818YOPS   D2A12238   5.104   6.300   7.215 -0.0527  0.0967  0.0889
  818YOPS   C3A12239   5.344   6.306   7.567 -0.1360 -0.0632  0.1439
  818YOPS   C4A12240   5.595   6.766   7.544 -0.2950  0.1665 -0.0426
  818YOPS   C1B12241   4.134   6.717   7.030 -0.3060  0.2329  0.2916
  818YOPS   C2B12242   4.003   6.811   7.378  0.1167 -0.0766 -0.2292
  818YOPS   D3B12243   3.895   7.111   7.703 -0.0553  0.3459  0.0661
  818YOPS   C4B12244   3.548   7.090   7.957 -0.0219  0.2370  0.1387
  819YOPS   CNO12245   2.924   9.552   5.834 -0.0237 -0.2341  0.2421
  819YOPS   PO412246   3.030   9.716   6.266  0.1990  0.0536  0.1072
  819YOPS   GL112247   3.169   9.619   6.672 -0.0431  0.0910 -0.0242
  819YOPS   GL212248   3.459   9.704   6.927  0.1559  0.1550  0.4786
  819YOPS   C1A12249   3.187   9.303   7.039 -0.0792  0.1244 -0.2367
  819YOPS   D2A12250   3.247   9.117   7.458  0.0027  0.0185 -0.2394
  819YOPS   C3A12251   3.418   9.323   7.897  0.0594 -0.3652 -0.4107
  819YOPS   C4A12252   3.606   9.681   8.049 -0.0747  0.0184 -0.3161
  819YOPS   C1B12253   3.623  10.098   7.069  0.2821  0.1314  0.1096
  819YOPS   C2B12254   3.615  10.368   7.395 -0.0256 -0.0429  0.0365
  819YOPS   D3B12255   3.558  10.444   7.830 -0.0674  0.2546  0.3892
  819YOPS   C4B12256   3.740  10.490   8.268 -0.1544  0.0627 -0.4380
  820YOPS   CNO12257  11.734  10.339   5.619 -0.0981 -0.1868 -0.2310
  820YOPS   PO412258  11.597  10.543   5.997  0.2236 -0.1027 -0.0608
  820YOPS   GL112259  11.646  10.784   6.457  0.0483  0.1159  0.2127
  820YOPS   GL212260  11.343  11.051   6.469  0.1770  0.1187 -0.0525
  820YOPS   C1A12261  11.784  10.720   6.929  0.0923 -0.0264 -0.0543
  820YOPS   D2A12262  11.501  11.026   7.183 -0.1505 -0.1202 -0.2784
  820YOPS   C3A12263  11.760  11.295   7.535  0.0976 -0.1854 -0.2017
  820YOPS   C4A12264  12.076  11.627   7.675  0.3269 -0.0340 -0.0905
  820YOPS   C1B12265  11.463  11.351   6.786  0.1436  0.1083 -0.0317
  820YOPS   C2B12266  11.593  11.651   7.125  0.2814 -0.1659  0.1695
  820YOPS   D3B12267  11.651  11.947   7.495 -0.0609  0.0914  0.0519
  820YOPS   C4B12268  11.523  11.921   7.737  0.1269  0.1902 -0.0860
  821POPE   NH312269  14.720   2.237   5.344 -0.1529  0.0671 -0.0721
  821POPE   PO412270  14.951   1.914   5.385  0.2341 -0.2167  0.0948
  821POPE   GL112271  15.220   1.863   5.857 -0.1489  0.0318  0.1017
  821POPE   GL212272  15.463   1.555   5.932  0.0559  0.0058  0.1061
  821POPE   C1A12273  15.201   1.612   6.318 -0.1358 -0.2159  0.0828
  821POPE   D2A12274  15.270   1.376   6.735  0.3659 -0.0598  0.2146
  821POPE   C3A12275  15.173   1.016   7.007 -0.1492  0.0626 -0.0049
  821POPE   C4A12276  14.836   1.018   7.360  0.1122 -0.4708 -0.0965
  821POPE   C1B12277  15.634   1.268   6.294  0.2110 -0.0535 -0.1454
  821POPE   C2B12278  15.716   1.214   6.723  0.0275  0.2914  0.0631
  821POPE   C3B12279  15.636   1.251   7.173  0.2367 -0.1917 -0.1957
  821POPE   C4B12280  15.301   1.543   7.257  0.2583  0.3562  0.1672
  822POPE   NH312281   5.461  17.346   6.408 -0.1795 -0.0803 -0.0294
  822POPE   PO412282   5.850  17.637   6.319  0.1136 -0.1100  0.0507
  822POPE   GL112283   5.861  17.894   6.667  0.4278 -0.0339 -0.0248
  822POPE   GL212284   6.071  18.177   6.748  0.0730  0.1730 -0.2644
  822POPE   C1A12285   5.819  17.847   7.152  0.0732  0.0189  0.1232
  822POPE   D2A12286   6.051  17.661   7.472  0.2550  0.3002 -0.2096
  822POPE   C3A12287   6.075  17.663   7.894 -0.1600 -0.1372 -0.0783
  822POPE   C4A12288   5.659  17.797   8.059 -0.1074 -0.0490 -0.0202
  822POPE   C1B12289   6.390  17.957   6.941 -0.0768 -0.0979 -0.3783
  822POPE   C2B12290   6.543  17.981   7.254 -0.0292 -0.0560 -0.1168
  822POPE   C3B12291   6.579  17.729   7.653  0.1019  0.1281  0.0395
  822POPE   C4B12292   6.549  17.816   8.209 -0.1180 -0.0478 -0.4424
  823POPE   NH312293   3.821   5.198   5.861  0.0596 -0.7273  0.0671
  823POPE   PO412294   3.571   4.962   5.857 -0.1490  0.0425  0.0674
  823POPE   GL112295   3.627   5.061   6.261 -0.0328  0.3061  0.2983
  823POPE   GL212296   3.666   4.674   6.444 -0.0948 -0.1097 -0.1184
  823POPE   C1A12297   3.388   5.057   6.686  0.2278  0.1439  0.0110
  823POPE   D2A12298   3.073   5.045   6.950  0.0829 -0.1252 -0.1269
  823POPE   C3A12299   3.279   5.218   7.336 -0.1308 -0.2242 -0.0840
  823POPE   C4A12300   3.330   5.296   7.777 -0.1961  0.1361 -0.2831
  823POPE   C1B12301   3.824   4.494   6.723 -0.1766  0.0724 -0.2876
  823POPE   C2B12302   3.866   4.274   7.127  0.2908  0.0221  0.0219
  823POPE   C3B12303   3.789   3.925   7.366 -0.1093 -0.2097 -0.1374
  823POPE   C4B12304   3.466   3.780   7.657 -0.1056 -0.1648  0.0978
  824POPE   NH312305   6.057   5.272   5.390  0.2966 -0.3667 -0.1587
  824POPE   PO412306   6.192   5.349   5.823 -0.1946 -0.0067  0.0199
  824POPE   GL112307   6.140   5.359   6.387  0.1975  0.1532 -0.0557
  824POPE   GL212308   6.084   5.720   6.388 -0.2165 -0.3229 -0.1151
  824POPE   C1A12309   5.822   5.296   6.662  0.0532 -0.2360 -0.0969
  824POPE   D2A12310   5.535   5.525   7.024 -0.0362 -0.0194  0.1025
  824POPE   C3A12311   5.656   5.544   7.532 -0.0267  0.0819  0.3094
  824POPE   C4A12312   5.829   5.555   7.955 -0.4006 -0.2056 -0.2684
  824POPE   C1B12313   6.331   5.817   6.723  0.0120 -0.0916  0.4797
  824POPE   C2B12314   6.430   5.804   7.160  0.0415  0.0937 -0.3078
  824POPE   C3B12315   6.581   5.892   7.518 -0.1242  0.3445 -0.0774
  824POPE   C4B12316   6.890   6.007   7.770  0.1697 -0.2569 -0.4469
  825POPE   NH312317   5.353  13.303   6.341 -0.3446  0.1585 -0.0314
  825POPE   PO412318   5.790  13.557   6.209 -0.2855 -0.1465  0.0734
  825POPE   GL112319   5.680  13.592   6.680 -0.0762  0.3614 -0.0192
  825POPE   GL212320   5.449  13.408   6.876  0.0107 -0.0859  0.1001
  825POPE   C1A12321   5.896  13.428   6.869  0.0683 -0.1236 -0.0246
  825POPE   D2A12322   5.797  13.306   7.338  0.2752 -0.0172 -0.2148
  825POPE   C3A12323   5.634  13.391   7.682  0.2615  0.0239  0.0143
  825POPE   C4A12324   5.395  13.592   7.947 -0.0155 -0.0952  0.2059
  825POPE   C1B12325   5.294  13.392   7.347 -0.1240  0.2422  0.1292
  825POPE   C2B12326   5.005  13.349   7.608 -0.2208 -0.2162 -0.1521
  825POPE   C3B12327   4.817  13.338   7.953  0.3319  0.1278  0.2531
  825POPE   C4B12328   5.016  13.487   8.352 -0.0388 -0.0374 -0.2271
  826POPE   NH312329   1.518   1.651   5.383  0.3351  0.2204  0.1199
  826POPE   PO412330   1.705   1.354   5.662 -0.0216 -0.0356  0.2465
  826POPE   GL112331   1.680   1.309   6.127  0.2553  0.1320  0.3398
  826POPE   GL212332   1.301   1.190   6.100 -0.2784  0.0921 -0.5042
  826POPE   C1A12333   1.928   1.522   6.416  0.1006  0.1979  0.1147
  826POPE   D2A12334   2.085   1.577   6.879 -0.0243  0.0440 -0.0338
  826POPE   C3A12335   2.215   1.996   7.004  0.1645  0.2816 -0.0413
  826POPE   C4A12336   2.155   2.372   6.966 -0.0162 -0.2685  0.1373
  826POPE   C1B12337   1.413   1.107   6.501  0.1617  0.2548  0.0234
  826POPE   C2B12338   1.326   1.162   6.943  0.4482  0.3302 -0.1925
  826POPE   C3B12339   1.402   1.120   7.352 -0.1994 -0.1385 -0.1912
  826POPE   C4B12340   1.148   1.249   7.695 -0.0619 -0.2222 -0.0888
  827POPE   NH312341   8.196   8.855   6.211  0.1979  0.0358  0.2221
  827POPE   PO412342   8.312   9.277   6.165 -0.2881 -0.0453 -0.3081
  827POPE   GL112343   8.084   9.445   6.482  0.3118 -0.2008 -0.0669
  827POPE   GL212344   7.780   9.321   6.528  0.3631 -0.0527  0.0134
  827POPE   C1A12345   8.115   9.562   7.003  0.3576  0.2306 -0.1195
  827POPE   D2A12346   7.813   9.692   7.174 -0.0314  0.2852 -0.0304
  827POPE   C3A12347   7.892   9.683   7.494  0.0282  0.5019  0.0086
  827POPE   C4A12348   7.873   9.640   7.830 -0.0963  0.1595 -0.0465
  827POPE   C1B12349   7.720   9.143   6.921 -0.2378  0.3155  0.0989
  827POPE   C2B12350   7.835   9.157   7.264  0.0113 -0.0572  0.0733
  827POPE   C3B12351   7.773   9.164   7.751  0.1952 -0.2154  0.2055
  827POPE   C4B12352   8.171   9.101   7.931 -0.2860 -0.1027  0.2312
  828POPE   NH312353   6.547  15.614   6.314  0.1094 -0.0735  0.2755
  828POPE   PO412354   6.365  15.351   6.239 -0.1224  0.1963 -0.4148
  828POPE   GL112355   6.306  15.308   6.615  0.3737  0.3952 -0.0563
  828POPE   GL212356   6.595  15.370   6.718  0.1085 -0.1633 -0.2620
  828POPE   C1A12357   6.207  15.134   7.042 -0.0796 -0.0014  0.0440
  828POPE   D2A12358   6.227  15.375   7.452  0.0927 -0.3564  0.0147
  828POPE   C3A12359   5.865  15.593   7.556 -0.0866 -0.0178  0.2709
  828POPE   C4A12360   5.389  15.542   7.535  0.0216  0.2358  0.0672
  828POPE   C1B12361   6.826  15.425   7.023 -0.0598 -0.2079 -0.2018
  828POPE   C2B12362   6.781  15.490   7.409  0.2962  0.2214 -0.0442
  828POPE   C3B12363   6.662  15.212   7.788 -0.1123  0.0017  0.0249
  828POPE   C4B12364   6.630  14.768   7.806 -0.2204  0.5678  0.3131
  829POPE   NH312365  17.594  13.485   6.056  0.2173 -0.1093  0.0702
  829POPE   PO412366  17.998  13.718   6.071 -0.2260 -0.0431 -0.3176
  829POPE   GL112367  17.923  13.609   6.486  0.0596 -0.0039  0.2834
  829POPE   GL212368  17.598  13.656   6.483 -0.0738  0.0932  0.3480
  829POPE   C1A12369  17.893  13.850   6.890  0.1585  0.1575 -0.1722
  829POPE   D2A12370  17.967  14.003   7.376  0.0883  0.3909  0.0298
  829POPE   C3A12371  17.732  14.076   7.718 -0.1055 -0.1700  0.1028
  829POPE   C4A12372  17.614  14.217   8.089 -0.0214 -0.1909 -0.1654
  829POPE   C1B12373  17.477  13.447   6.843  0.1571  0.0331  0.0060
  829POPE   C2B12374  17.621  13.546   7.177 -0.3193 -0.0286 -0.1600
  829POPE   C3B12375  17.409  13.967   7.293 -0.2319  0.2638  0.0470
  829POPE   C4B12376  17.381  14.369   7.536  0.2572  0.2201 -0.0455
  830POPE   NH312377   5.176   7.260   5.482 -0.0659 -0.0854  0.0685
  830POPE   PO412378   4.922   7.627   5.657  0.0430  0.1885  0.1542
  830POPE   GL112379   5.014   7.747   6.123 -0.0874 -0.0267  0.1533
  830POPE   GL212380   5.122   7.496   6.239 -0.1166 -0.1023 -0.0508
  830POPE   C1A12381   5.228   7.956   6.360 -0.3206 -0.1846  0.2006
  830POPE   D2A12382   5.402   8.319   6.483 -0.1605 -0.1103  0.3338
  830POPE   C3A12383   5.787   8.350   6.795  0.1611  0.0476  0.0095
  830POPE   C4A12384   6.168   8.227   6.755  0.2340 -0.0154 -0.2747
  830POPE   C1B12385   4.909   7.715   6.610 -0.0457  0.1115  0.4213
  830POPE   C2B12386   4.966   7.774   7.047  0.0382  0.0836 -0.1690
  830POPE   C3B12387   5.302   8.009   7.018 -0.1240 -0.0630 -0.0589
  830POPE   C4B12388   5.499   8.465   7.229  0.1070 -0.0866 -0.1389
  831POPE   NH312389  11.051   4.396   6.217  0.0322 -0.0554 -0.0708
  831POPE   PO412390  11.427   4.459   6.299 -0.0621 -0.1426 -0.2298
  831POPE   GL112391  11.289   4.465   6.692 -0.1831 -0.2195 -0.2515
  831POPE   GL212392  11.157   4.784   6.847  0.0391 -0.1207 -0.2134
  831POPE   C1A12393  11.486   4.470   7.059 -0.0659  0.3556  0.1200
  831POPE   D2A12394  11.404   4.449   7.596 -0.1288 -0.1626 -0.2740
  831POPE   C3A12395  11.674   4.318   7.930  0.0627  0.2013  0.0870
  831POPE   C4A12396  11.846   4.301   8.285  0.3027  0.0014  0.1014
  831POPE   C1B12397  11.098   4.901   7.400 -0.2190 -0.3473 -0.1136
  831POPE   C2B12398  10.777   4.908   7.750  0.1220 -0.0083 -0.1440
  831POPE   C3B12399  10.516   5.071   8.061  0.0138 -0.2172  0.0557
  831POPE   C4B12400  10.326   5.268   8.402  0.0343 -0.0331 -0.1830
  832POPE   NH312401   9.690  15.212   6.186 -0.1554 -0.1437  0.1303
  832POPE   PO412402   9.690  15.699   6.282 -0.1305 -0.1311 -0.1112
  832POPE   GL112403   9.691  15.817   6.671  0.0857  0.3193  0.1190
  832POPE   GL212404   9.660  16.160   6.482 -0.0378  0.2820 -0.2053
  832POPE   C1A12405   9.645  15.854   7.109 -0.1931  0.1572 -0.0768
  832POPE   D2A12406   9.981  15.985   7.502 -0.0878  0.0562 -0.2848
  832POPE   C3A12407   9.956  16.288   7.768 -0.0200 -0.0005  0.2346
  832POPE   C4A12408  10.129  16.775   8.011 -0.1061 -0.1827  0.0290
  832POPE   C1B12409   9.689  16.270   6.883  0.1083 -0.1487  0.0900
  832POPE   C2B12410   9.824  16.440   7.231  0.2162 -0.0749 -0.0681
  832POPE   C3B12411  10.074  16.711   7.521 -0.0765  0.0866  0.3694
  832POPE   C4B12412  10.369  17.061   7.557 -0.0111 -0.2105 -0.1567
  833POPE   NH312413   3.471  10.214   5.773  0.1014  0.0702 -0.2957
  833POPE   PO412414   3.409  10.086   6.191 -0.1800 -0.0378  0.2601
  833POPE   GL112415   3.269  10.070   6.598 -0.0714 -0.0799 -0.1397
  833POPE   GL212416   3.408  10.406   6.679 -0.3678  0.0049  0.0041
  833POPE   C1A12417   2.956  10.060   6.912  0.2187 -0.0916 -0.1776
  833POPE   D2A12418   2.724  10.068   7.285 -0.0288  0.2198 -0.1474
  833POPE   C3A12419   2.594   9.856   7.606  0.1907  0.1025 -0.0853
  833POPE   C4A12420   2.551   9.613   7.947 -0.3351  0.1464  0.0075
  833POPE   C1B12421   3.211  10.463   7.085  0.3311  0.2577 -0.2198
  833POPE   C2B12422   3.100  10.685   7.469 -0.1730 -0.0601 -0.0256
  833POPE   C3B12423   3.152  10.666   7.963  0.0030  0.2042 -0.0403
  833POPE   C4B12424   3.244  10.528   8.436  0.3234 -0.1290 -0.0717
  834POPE   NH312425   2.901   0.679   5.693 -0.3116  0.2992 -0.2295
  834POPE   PO412426   3.234   0.911   5.911  0.0241 -0.1469 -0.1794
  834POPE   GL112427   3.348   1.148   6.268 -0.0951 -0.0762 -0.0730
  834POPE   GL212428   3.338   0.926   6.490 -0.2109  0.0305  0.1938
  834POPE   C1A12429   3.294   1.395   6.634  0.1300  0.2844  0.1162
  834POPE   D2A12430   3.290   1.553   7.044  0.0683 -0.2155  0.1940
  834POPE   C3A12431   2.948   1.685   7.213  0.1910 -0.2773 -0.0322
  834POPE   C4A12432   2.463   1.881   7.413  0.0838  0.4624  0.0398
  834POPE   C1B12433   3.326   0.852   6.838  0.1775 -0.3853 -0.0675
  834POPE   C2B12434   3.128   0.722   7.187 -0.1517  0.0761 -0.2532
  834POPE   C3B12435   3.079   0.818   7.581 -0.1816  0.2491 -0.4168
  834POPE   C4B12436   2.764   0.878   7.921  0.0842  0.2213  0.1945
  835POPE   NH312437   3.853  14.307   6.282 -0.1387  0.0375 -0.2723
  835POPE   PO412438   3.488  14.486   6.234 -0.1967  0.1524  0.4900
  835POPE   GL112439   3.177  14.554   6.497 -0.0439  0.0666 -0.0606
  835POPE   GL212440   3.082  14.367   6.768  0.2228 -0.0078 -0.0138
  835POPE   C1A12441   3.014  14.926   6.794 -0.1936  0.1794  0.1018
  835POPE   D2A12442   3.090  15.124   7.222  0.0063  0.3228 -0.0373
  835POPE   C3A12443   3.196  15.258   7.612 -0.1708  0.1520 -0.4322
  835POPE   C4A12444   3.336  15.523   7.941  0.0688 -0.1262  0.0934
  835POPE   C1B12445   3.054  14.594   7.162  0.2428  0.1675 -0.1526
  835POPE   C2B12446   3.069  14.397   7.598  0.0611  0.0022 -0.2608
  835POPE   C3B12447   3.346  14.481   7.965 -0.2894 -0.2694  0.3407
  835POPE   C4B12448   3.695  14.591   8.101  0.0411 -0.1022 -0.1630
  836POPE   NH312449  18.102  12.746   6.340  0.1097  0.0609  0.0216
  836POPE   PO412450  17.706  12.590   6.350  0.1842  0.0314  0.1236
  836POPE   GL112451  17.582  12.601   6.745 -0.0252 -0.2481  0.1948
  836POPE   GL212452  17.238  12.477   6.746  0.1120 -0.2819  0.1081
  836POPE   C1A12453  17.670  12.589   7.211  0.0196  0.0242  0.1727
  836POPE   D2A12454  17.779  12.583   7.607 -0.2295  0.1541  0.3263
  836POPE   C3A12455  17.912  12.275   7.747 -0.1057 -0.1670 -0.0504
  836POPE   C4A12456  18.079  12.226   8.133  0.2405 -0.1927 -0.3010
  836POPE   C1B12457  17.211  12.657   7.176 -0.0684 -0.1325 -0.0996
  836POPE   C2B12458  17.398  12.860   7.585  0.0353 -0.0397  0.1006
  836POPE   C3B12459  17.313  12.865   7.916  0.3538  0.0232 -0.0664
  836POPE   C4B12460  17.187  12.978   8.310 -0.0643  0.1237  0.2476
  837POPE   NH312461  12.130  15.735   6.572  0.0143 -0.0542 -0.0141
  837POPE   PO412462  11.856  15.402   6.552 -0.0216  0.1050 -0.3174
  837POPE   GL112463  11.770  15.651   6.920  0.0230 -0.0876  0.1438
  837POPE   GL212464  11.543  15.397   6.995 -0.1266  0.2530 -0.2511
  837POPE   C1A12465  11.808  15.781   7.388 -0.1252  0.1238  0.1614
  837POPE   D2A12466  11.897  15.885   7.783  0.2238  0.1408  0.1234
  837POPE   C3A12467  12.177  15.725   7.936  0.3301  0.0643  0.2792
  837POPE   C4A12468  12.353  15.495   8.133  0.0200 -0.0543 -0.5363
  837POPE   C1B12469  11.681  14.888   7.248 -0.0354 -0.0352 -0.1028
  837POPE   C2B12470  11.496  14.712   7.686 -0.0853  0.2532 -0.2523
  837POPE   C3B12471  11.646  14.907   8.132 -0.0302  0.0473 -0.0001
  837POPE   C4B12472  11.692  15.249   8.424  0.0023  0.3953 -0.0362
  838POPE   NH312473  10.178  16.621   5.838  0.2375  0.1038  0.2081
  838POPE   PO412474  10.087  16.337   6.114  0.0678  0.4166  0.2153
  838POPE   GL112475  10.051  16.481   6.591  0.1145  0.0170 -0.0003
  838POPE   GL212476  10.329  16.248   6.694  0.1331 -0.1410 -0.0202
  838POPE   C1A12477  10.150  16.631   6.939 -0.2973 -0.0351  0.1360
  838POPE   D2A12478  10.139  17.009   7.142 -0.0526  0.3756  0.0374
  838POPE   C3A12479  10.058  17.311   7.288  0.1217 -0.3269 -0.3006
  838POPE   C4A12480  10.236  17.557   7.107 -0.2402  0.0524 -0.0381
  838POPE   C1B12481  10.156  16.121   7.029  0.0535 -0.0264 -0.1074
  838POPE   C2B12482  10.090  15.709   6.993  0.0718  0.0881 -0.0807
  838POPE   C3B12483  10.198  15.281   7.010  0.1570 -0.1554  0.0833
  838POPE   C4B12484  10.501  15.219   7.353 -0.2018 -0.0196  0.0959
  839POPE   NH312485   5.496   2.325   5.931 -0.0300  0.0012  0.0426
  839POPE   PO412486   5.909   2.458   6.003  0.0247 -0.3148 -0.0763
  839POPE   GL112487   5.810   2.670   6.371  0.0956 -0.1812 -0.4536
  839POPE   GL212488   5.897   2.922   6.307  0.2977 -0.3309  0.0575
  839POPE   C1A12489   5.811   2.706   6.889  0.0093  0.0500 -0.0100
  839POPE   D2A12490   5.712   2.698   7.333 -0.2689  0.0981  0.0441
  839POPE   C3A12491   5.816   3.092   7.599  0.4450  0.1079  0.2778
  839POPE   C4A12492   6.001   3.094   7.920 -0.5024  0.1693 -0.3029
  839POPE   C1B12493   5.567   3.085   6.614  0.0486 -0.3362  0.2158
  839POPE   C2B12494   5.614   3.165   7.072  0.1549 -0.0175  0.0474
  839POPE   C3B12495   5.290   3.159   7.440  0.0710  0.3832  0.3083
  839POPE   C4B12496   5.253   3.245   7.882  0.1785 -0.0685 -0.0453
  840POPE   NH312497  12.421  17.271   6.075 -0.2582  0.4240 -0.0093
  840POPE   PO412498  12.687  17.087   6.090  0.0774  0.6177 -0.1099
  840POPE   GL112499  12.639  16.902   6.459  0.1241  0.1183  0.0974
  840POPE   GL212500  12.465  16.599   6.565 -0.0427 -0.2707  0.1471
  840POPE   C1A12501  12.941  16.859   6.881 -0.2620  0.0401 -0.0617
  840POPE   D2A12502  13.162  16.763   7.159 -0.0013  0.0506 -0.1239
  840POPE   C3A12503  12.965  16.654   7.526 -0.2082  0.0671  0.0356
  840POPE   C4A12504  12.930  16.505   8.009  0.1119 -0.3027 -0.3214
  840POPE   C1B12505  12.420  16.756   6.926 -0.1355 -0.1840  0.2085
  840POPE   C2B12506  12.308  16.899   7.372  0.2607 -0.1823  0.1017
  840POPE   C3B12507  12.196  17.129   7.727  0.0523  0.1941 -0.2306
  840POPE   C4B12508  12.049  17.283   8.094 -0.0375  0.4082 -0.4003
  841POPE   NH312509  12.312   4.197   6.487 -0.0868  0.1911 -0.2488
  841POPE   PO412510  11.949   4.217   6.339 -0.0247  0.1999 -0.0507
  841POPE   GL112511  11.744   4.271   6.648  0.0356 -0.2702 -0.0295
  841POPE   GL212512  11.837   4.569   6.676  0.0757  0.2730  0.3754
  841POPE   C1A12513  11.574   3.972   7.003 -0.2449 -0.2896  0.2336
  841POPE   D2A12514  11.554   3.653   7.217  0.1394 -0.1448 -0.0455
  841POPE   C3A12515  11.724   3.467   7.600  0.0382  0.0101 -0.0471
  841POPE   C4A12516  11.759   3.378   8.006  0.3888  0.3225 -0.1682
  841POPE   C1B12517  11.973   4.769   7.021 -0.2408  0.1876  0.0802
  841POPE   C2B12518  11.779   4.750   7.488 -0.0552 -0.1539 -0.3673
  841POPE   C3B12519  11.564   4.813   7.907 -0.1243  0.0621 -0.0377
  841POPE   C4B12520  11.109   4.657   8.096 -0.1149 -0.2258  0.2114
  842POPE   NH312521  10.747   8.520   5.869 -0.1419  0.1881 -0.2330
  842POPE   PO412522  11.033   8.880   6.029 -0.0652 -0.4540  0.0790
  842POPE   GL112523  10.828   8.675   6.358 -0.1975  0.1393  0.0880
  842POPE   GL212524  10.853   8.904   6.552 -0.2388 -0.1917  0.0224
  842POPE   C1A12525  10.738   8.475   6.764 -0.0250 -0.1698 -0.1057
  842POPE   D2A12526  10.498   8.781   7.081  0.3233 -0.0288 -0.0425
  842POPE   C3A12527  10.526   9.196   7.316 -0.1407  0.1962  0.0627
  842POPE   C4A12528  10.385   9.490   7.441 -0.1853  0.1868 -0.2104
  842POPE   C1B12529  11.199   8.899   6.795 -0.0060 -0.1471  0.2362
  842POPE   C2B12530  11.343   8.992   7.181  0.0581  0.0065 -0.1038
  842POPE   C3B12531  11.397   8.905   7.580  0.1626 -0.1251 -0.1827
  842POPE   C4B12532  11.180   8.826   7.954  0.1303 -0.2221  0.0443
  843POPE   NH312533  12.412   7.486   5.887  0.1734 -0.0116  0.2910
  843POPE   PO412534  12.022   7.628   5.995  0.1096  0.0874 -0.0870
  843POPE   GL112535  11.766   7.649   6.348  0.0515  0.2790  0.2158
  843POPE   GL212536  11.749   7.389   6.539  0.0949  0.2432 -0.0114
  843POPE   C1A12537  11.850   7.706   6.905  0.0832  0.0419  0.0725
  843POPE   D2A12538  11.883   7.835   7.363  0.1556 -0.1995  0.2612
  843POPE   C3A12539  12.003   7.597   7.702 -0.2472  0.0017  0.0225
  843POPE   C4A12540  12.077   7.657   8.084 -0.2612  0.0014  0.0360
  843POPE   C1B12541  11.419   7.384   6.804  0.5542 -0.1912  0.1647
  843POPE   C2B12542  11.320   7.250   7.121 -0.0781 -0.0221  0.1450
  843POPE   C3B12543  11.334   7.211   7.460  0.3894  0.1199  0.1844
  843POPE   C4B12544  11.084   7.319   7.750  0.2236 -0.0557  0.1271
  844POPE   NH312545   1.404  13.059   6.242 -0.0727  0.1205  0.1385
  844POPE   PO412546   1.273  13.511   6.263  0.0798 -0.1631 -0.0328
  844POPE   GL112547   1.101  13.519   6.694  0.2963  0.0892  0.0557
  844POPE   GL212548   1.195  13.282   6.756  0.0124 -0.1211 -0.2274
  844POPE   C1A12549   1.054  13.688   7.122  0.0100  0.1718 -0.2981
  844POPE   D2A12550   0.791  13.779   7.467 -0.0489  0.1210 -0.0659
  844POPE   C3A12551   0.642  14.030   7.832  0.3686 -0.0077 -0.1172
  844POPE   C4A12552   0.462  14.177   8.271  0.0307  0.1924 -0.0228
  844POPE   C1B12553   0.903  13.195   7.080  0.3042 -0.3550 -0.2170
  844POPE   C2B12554   0.870  13.204   7.434  0.0920  0.1118 -0.0083
  844POPE   C3B12555   0.704  13.039   7.713  0.0398  0.0792  0.0500
  844POPE   C4B12556   0.878  12.871   8.148 -0.2189 -0.0649  0.0527
  845POPE   NH312557   7.560   9.821   6.271 -0.0527 -0.2354 -0.2354
  845POPE   PO412558   7.958   9.948   6.446 -0.1184 -0.0390  0.0077
  845POPE   GL112559   7.845  10.044   6.832  0.2307 -0.3683 -0.0229
  845POPE   GL212560   7.493  10.071   6.900 -0.0814 -0.1925 -0.0492
  845POPE   C1A12561   7.913  10.195   7.200  0.0651 -0.2365  0.0789
  845POPE   D2A12562   7.790  10.179   7.618  0.0533 -0.1998 -0.1173
  845POPE   C3A12563   7.598  10.039   7.946 -0.2554  0.0034  0.1418
  845POPE   C4A12564   7.443   9.751   8.182  0.0353 -0.2034 -0.1508
  845POPE   C1B12565   7.368  10.194   7.315 -0.0351 -0.0768 -0.0177
  845POPE   C2B12566   7.410  10.461   7.736 -0.1360  0.1561 -0.1195
  845POPE   C3B12567   7.396  10.569   8.142  0.0476 -0.0282  0.0375
  845POPE   C4B12568   7.761  10.627   8.391 -0.0735 -0.1597 -0.0985
  846POPE   NH312569  14.633   7.370   5.782 -0.1463  0.0476  0.0359
  846POPE   PO412570  14.901   7.891   5.711  0.0699  0.1059  0.2300
  846POPE   GL112571  15.056   7.638   6.024 -0.0593 -0.4785 -0.0211
  846POPE   GL212572  14.751   7.518   6.282 -0.1657  0.2415 -0.1153
  846POPE   C1A12573  15.291   7.610   6.457  0.1928 -0.0931 -0.1408
  846POPE   D2A12574  15.228   7.603   6.846 -0.2597  0.1272  0.1442
  846POPE   C3A12575  14.894   7.465   7.099  0.2078 -0.1973 -0.1792
  846POPE   C4A12576  14.672   7.508   7.413 -0.2152  0.2302  0.0904
  846POPE   C1B12577  14.693   7.284   6.578 -0.4038 -0.0624 -0.3233
  846POPE   C2B12578  14.633   7.031   7.001 -0.1165  0.0828 -0.1805
  846POPE   C3B12579  14.680   7.017   7.447  0.1887  0.2630 -0.1750
  846POPE   C4B12580  14.543   6.722   7.721  0.1073 -0.0375  0.0393
  847POPE   NH312581   8.599  12.896   6.227 -0.0117 -0.0182  0.0645
  847POPE   PO412582   9.011  13.120   6.095 -0.0174 -0.0837  0.0161
  847POPE   GL112583   8.896  13.123   6.566 -0.0314  0.2197  0.0459
  847POPE   GL212584   9.050  12.986   6.744  0.1170 -0.0731  0.0379
  847POPE   C1A12585   8.668  13.222   6.936 -0.1661 -0.1375 -0.3069
  847POPE   D2A12586   8.771  13.452   7.301 -0.2293 -0.0146 -0.1695
  847POPE   C3A12587   8.746  13.322   7.704  0.0990  0.1059 -0.0317
  847POPE   C4A12588   8.745  12.914   7.921  0.0515  0.1237  0.2350
  847POPE   C1B12589   9.160  13.114   7.096 -0.3440  0.2799  0.1765
  847POPE   C2B12590   9.108  12.972   7.523  0.0837  0.2121 -0.1781
  847POPE   C3B12591   9.192  12.653   7.704 -0.0765 -0.1991  0.0352
  847POPE   C4B12592   9.474  12.459   7.933 -0.2368  0.1392 -0.3332
  848POPE   NH312593   9.421   0.234   6.086 -0.1419  0.0662  0.2634
  848POPE   PO412594   9.562   0.622   6.148  0.1290  0.1425  0.0185
  848POPE   GL112595   9.530   0.890   6.552 -0.1676  0.1105 -0.2994
  848POPE   GL212596   9.561   1.281   6.503  0.0939 -0.1551  0.1684
  848POPE   C1A12597   9.867   1.015   6.860  0.2958  0.1304 -0.2068
  848POPE   D2A12598  10.110   0.880   7.245 -0.0414  0.1858 -0.1427
  848POPE   C3A12599   9.905   0.865   7.688  0.0939 -0.1564 -0.0519
  848POPE   C4A12600   9.879   0.761   8.102  0.3380 -0.0535 -0.0970
  848POPE   C1B12601   9.622   1.666   6.897 -0.2553  0.0293  0.0604
  848POPE   C2B12602   9.492   1.638   7.369  0.1468  0.0091 -0.0846
  848POPE   C3B12603   9.369   1.571   7.794 -0.2948 -0.0398 -0.0607
  848POPE   C4B12604   9.027   1.480   8.153  0.0939  0.0170 -0.0658
  849POPE   NH312605   6.694  18.150   6.182  0.0390  0.2005 -0.1740
  849POPE   PO412606   6.675  17.838   5.976  0.0826  0.1534  0.0728
  849POPE   GL112607   6.434  17.761   6.459 -0.0747 -0.0527 -0.0331
  849POPE   GL212608   6.765  17.709   6.643  0.2443 -0.0743  0.3026
  849POPE   C1A12609   6.409  17.463   6.823 -0.2376 -0.2298 -0.3072
  849POPE   D2A12610   6.485  17.468   7.226 -0.2001 -0.0219  0.0552
  849POPE   C3A12611   6.399  17.096   7.433 -0.2001  0.4192 -0.1352
  849POPE   C4A12612   6.336  17.010   7.008  0.0550 -0.1188 -0.0847
  849POPE   C1B12613   6.965  17.685   7.095  0.0958 -0.2080  0.3526
  849POPE   C2B12614   7.103  17.704   7.465  0.1792 -0.4439 -0.3380
  849POPE   C3B12615   7.335  18.116   7.727 -0.1151  0.0512 -0.0065
  849POPE   C4B12616   7.362  18.266   8.230 -0.0022  0.0952  0.3154
  850POPE   NH312617   7.176  16.449   6.279  0.5232  0.2264  0.2925
  850POPE   PO412618   7.215  16.808   6.032 -0.0329  0.2258 -0.6551
  850POPE   GL112619   7.270  16.931   6.405  0.2239 -0.0163 -0.0134
  850POPE   GL212620   7.020  16.847   6.646 -0.0027  0.0593 -0.1941
  850POPE   C1A12621   7.366  17.051   6.892 -0.4281  0.0626 -0.0408
  850POPE   D2A12622   7.351  17.360   7.097 -0.3148  0.0637  0.1860
  850POPE   C3A12623   7.408  17.259   7.524  0.0732  0.1577  0.3649
  850POPE   C4A12624   7.266  17.276   7.941 -0.0432 -0.0459 -0.1067
  850POPE   C1B12625   6.830  17.139   6.967 -0.1842 -0.0487  0.2080
  850POPE   C2B12626   6.914  17.105   7.431 -0.3581 -0.1295  0.2390
  850POPE   C3B12627   6.796  17.275   7.913 -0.1092 -0.0820  0.1575
  850POPE   C4B12628   6.967  17.644   8.097 -0.0060 -0.1242 -0.0122
  851YOPE   NH312629   0.839   9.639   5.844  0.0970 -0.0337  0.1862
  851YOPE   PO412630   1.168   9.514   5.624  0.1812 -0.0755  0.2663
  851YOPE   GL112631   1.152   9.356   6.061 -0.0727  0.3216  0.0065
  851YOPE   GL212632   1.098   9.097   6.035  0.0155  0.2059  0.0328
  851YOPE   C1A12633   0.853   9.337   6.444  0.1209  0.0780  0.0774
  851YOPE   D2A12634   0.734   9.113   6.860 -0.1475  0.2760 -0.0784
  851YOPE   C3A12635   0.736   9.420   7.121  0.0344  0.3260 -0.2114
  851YOPE   C4A12636   0.637   9.521   7.537 -0.0925  0.2092 -0.1268
  851YOPE   C1B12637   1.215   8.640   6.187 -0.0107  0.1616 -0.3330
  851YOPE   C2B12638   1.429   8.517   6.601  0.2507  0.1334 -0.2904
  851YOPE   D3B12639   1.572   8.608   7.027 -0.0838  0.3079 -0.1873
  851YOPE   C4B12640   1.420   8.486   7.362  0.2544  0.1194 -0.2444
  852YOPE   NH312641   3.897  10.886   6.019 -0.1993  0.1946 -0.1965
  852YOPE   PO412642   3.457  11.034   6.118  0.0567 -0.3705 -0.0223
  852YOPE   GL112643   3.594  10.981   6.537 -0.0486  0.2297 -0.3454
  852YOPE   GL212644   3.421  11.201   6.761  0.3245 -0.2609  0.0907
  852YOPE   C1A12645   3.589  10.841   7.001  0.1638  0.0764  0.1717
  852YOPE   D2A12646   3.607  11.054   7.299  0.1019  0.1560 -0.1025
  852YOPE   C3A12647   3.463  10.954   7.710 -0.0022  0.2418 -0.2765
  852YOPE   C4A12648   3.502  10.994   8.134 -0.2259  0.1039  0.1669
  852YOPE   C1B12649   3.359  11.446   7.121  0.1452  0.0759  0.1459
  852YOPE   C2B12650   3.506  11.537   7.507 -0.2192 -0.3460 -0.1855
  852YOPE   D3B12651   3.777  11.380   7.886 -0.1875 -0.0392 -0.1419
  852YOPE   C4B12652   4.017  11.239   8.155 -0.2699  0.3084  0.4224
  853YOPE   NH312653  14.478   2.742   5.486  0.2104  0.2191 -0.1502
  853YOPE   PO412654  14.230   2.389   5.495 -0.1524 -0.0379  0.1914
  853YOPE   GL112655  14.319   2.474   5.909  0.0059 -0.0785  0.0673
  853YOPE   GL212656  14.062   2.646   6.102  0.0484 -0.1436  0.1252
  853YOPE   C1A12657  14.520   2.242   6.219 -0.0584 -0.2605  0.0046
  853YOPE   D2A12658  14.765   2.364   6.671  0.1770 -0.2944 -0.0479
  853YOPE   C3A12659  14.823   2.202   7.070  0.1179 -0.1857  0.4474
  853YOPE   C4A12660  15.052   1.985   7.419 -0.1708  0.2812 -0.0961
  853YOPE   C1B12661  14.343   2.646   6.423 -0.0362  0.1662 -0.1189
  853YOPE   C2B12662  14.535   2.813   6.779 -0.0261  0.0589 -0.1358
  853YOPE   D3B12663  14.774   2.869   7.163 -0.2655 -0.1742 -0.0674
  853YOPE   C4B12664  15.184   2.713   7.239  0.0192  0.1031 -0.4424
  854YOPE   NH312665   4.275  16.619   6.037  0.2410 -0.1526 -0.0205
  854YOPE   PO412666   4.558  16.419   6.385  0.3289 -0.1425 -0.2241
  854YOPE   GL112667   4.629  16.219   6.842  0.2711  0.0497  0.4072
  854YOPE   GL212668   4.899  16.314   6.953  0.1538  0.0862  0.3257
  854YOPE   C1A12669   4.511  15.883   7.076  0.0494  0.0048  0.4736
  854YOPE   D2A12670   4.213  15.517   7.055  0.1073  0.3233 -0.2056
  854YOPE   C3A12671   4.511  15.197   7.269  0.1961 -0.1753 -0.0807
  854YOPE   C4A12672   4.788  14.894   7.469  0.0258  0.2374  0.1177
  854YOPE   C1B12673   4.687  16.330   7.424 -0.1363 -0.0397 -0.0931
  854YOPE   C2B12674   4.417  16.459   7.796  0.1736 -0.1422 -0.1860
  854YOPE   D3B12675   3.954  16.505   7.754  0.0433 -0.0420  0.0382
  854YOPE   C4B12676   3.525  16.501   7.755  0.2149 -0.1831 -0.0806
  855YOPE   NH312677  17.619  17.167   5.874 -0.1479 -0.1495 -0.1662
  855YOPE   PO412678  18.011  17.426   5.809  0.0451 -0.0834 -0.4494
  855YOPE   GL112679  18.119  17.354   6.207 -0.2238 -0.0311  0.0910
  855YOPE   GL212680  18.284  17.405   6.360  0.0195 -0.2197 -0.0936
  855YOPE   C1A12681  18.047  17.213   6.700  0.0565  0.0957 -0.0250
  855YOPE   D2A12682  18.200  17.296   7.148  0.2260 -0.2633  0.2040
  855YOPE   C3A12683  18.192  17.257   7.512  0.1326  0.4291  0.1090
  855YOPE   C4A12684  18.196  17.016   7.717 -0.2903  0.2168 -0.0385
  855YOPE   C1B12685  18.312  17.621   6.758  0.1041 -0.1303  0.2372
  855YOPE   C2B12686  18.406  17.887   7.243 -0.1048 -0.1414 -0.0987
  855YOPE   D3B12687  18.433  18.153   7.628 -0.2508 -0.1579 -0.0681
  855YOPE   C4B12688  18.228  18.051   8.076 -0.1934 -0.0069  0.0722
  856YOPE   NH312689  17.456   6.415   5.272  0.1996 -0.1974 -0.2092
  856YOPE   PO412690  17.502   6.812   5.400  0.1753 -0.4603 -0.0073
  856YOPE   GL112691  17.417   6.593   5.802  0.0983  0.1702  0.1294
  856YOPE   GL212692  17.104   6.530   5.997 -0.0452  0.0672 -0.0787
  856YOPE   C1A12693  17.715   6.522   6.048  0.1700 -0.1376  0.1392
  856YOPE   D2A12694  17.938   6.295   6.365  0.1863  0.0211 -0.2033
  856YOPE   C3A12695  17.794   6.082   6.646  0.1712  0.0557 -0.0059
  856YOPE   C4A12696  18.012   5.825   6.968  0.0408  0.0129  0.0923
  856YOPE   C1B12697  16.922   6.519   6.447  0.2489  0.0147 -0.4571
  856YOPE   C2B12698  17.044   6.714   6.701 -0.2111  0.1465 -0.0152
  856YOPE   D3B12699  16.915   6.866   7.062 -0.4259  0.2124 -0.0403
  856YOPE   C4B12700  17.131   7.028   7.446 -0.2362  0.0287 -0.0183
  857YOPE   NH312701  17.166  12.741   6.274  0.1901  0.1457  0.1494
  857YOPE   PO412702  16.803  12.611   6.069  0.0732  0.0823 -0.0847
  857YOPE   GL112703  16.664  12.468   6.498  0.0812 -0.1024 -0.0172
  857YOPE   GL212704  16.670  12.232   6.609  0.2182  0.1294 -0.2409
  857YOPE   C1A12705  16.725  12.662   6.937 -0.2411 -0.2478  0.1710
  857YOPE   D2A12706  16.713  12.482   7.308  0.4392 -0.0347 -0.0703
  857YOPE   C3A12707  16.477  12.574   7.637 -0.0850  0.0070 -0.2584
  857YOPE   C4A12708  16.309  12.601   8.127 -0.0919 -0.1838 -0.2995
  857YOPE   C1B12709  16.599  11.972   6.952  0.0710  0.1395  0.0568
  857YOPE   C2B12710  16.718  11.742   7.185 -0.1558  0.1599  0.2814
  857YOPE   D3B12711  16.606  11.677   7.641 -0.2733 -0.0722 -0.1603
  857YOPE   C4B12712  16.401  11.732   8.058  0.0018  0.0245  0.2292
  858YOPE   NH312713  13.167  16.370   6.099 -0.0956  0.0624  0.3122
  858YOPE   PO412714  12.895  16.061   6.192 -0.0796  0.2977 -0.0875
  858YOPE   GL112715  12.953  16.384   6.524  0.1853  0.0412 -0.1182
  858YOPE   GL212716  13.325  16.506   6.589  0.0861 -0.1973  0.2340
  858YOPE   C1A12717  12.814  16.434   7.042  0.0950 -0.1008  0.0878
  858YOPE   D2A12718  12.529  16.419   7.341 -0.2042  0.0973 -0.1168
  858YOPE   C3A12719  12.595  16.232   7.633  0.0204 -0.0734  0.0864
  858YOPE   C4A12720  12.524  16.130   8.027 -0.0359 -0.0802  0.1156
  858YOPE   C1B12721  13.378  16.225   6.921  0.1908 -0.0668  0.0352
  858YOPE   C2B12722  13.673  16.007   7.197 -0.0465 -0.0549  0.0938
  858YOPE   D3B12723  13.980  15.918   7.489 -0.3396  0.0060  0.3253
  858YOPE   C4B12724  14.160  15.986   7.869 -0.2848 -0.2007  0.1118
  859YOPE   NH312725   2.014   9.798   6.008 -0.3259  0.0813  0.1593
  859YOPE   PO412726   2.252  10.191   5.932 -0.0537 -0.1320  0.0508
  859YOPE   GL112727   2.308  10.155   6.369 -0.0314  0.1586  0.4500
  859YOPE   GL212728   2.129   9.864   6.465 -0.0145  0.3305 -0.3243
  859YOPE   C1A12729   2.442  10.123   6.873  0.0914  0.1224  0.2564
  859YOPE   D2A12730   2.259  10.199   7.211  0.0175 -0.0628  0.3697
  859YOPE   C3A12731   2.309  10.245   7.529  0.0871 -0.1112 -0.0104
  859YOPE   C4A12732   2.327  10.181   7.977 -0.1298 -0.0863  0.4166
  859YOPE   C1B12733   2.077   9.791   6.916  0.2640 -0.0603  0.0450
  859YOPE   C2B12734   1.796   9.970   7.142  0.0932 -0.1555  0.0699
  859YOPE   D3B12735   1.737  10.229   7.547 -0.1688 -0.3654  0.0798
  859YOPE   C4B12736   1.833  10.238   7.998  0.2246  0.2086 -0.0490
  860YOPE   NH312737  17.236  10.101   6.034 -0.1026  0.0617 -0.1352
  860YOPE   PO412738  17.302   9.739   6.026 -0.0603  0.1142 -0.4922
  860YOPE   GL112739  17.384   9.789   6.410  0.0156  0.1514 -0.3602
  860YOPE   GL212740  17.051   9.816   6.528 -0.4411  0.0901  0.1291
  860YOPE   C1A12741  17.638   9.509   6.764  0.4612 -0.0196  0.2950
  860YOPE   D2A12742  17.615   9.081   6.789 -0.1960 -0.0785  0.1734
  860YOPE   C3A12743  17.534   8.800   7.140  0.0957 -0.0023  0.0585
  860YOPE   C4A12744  17.702   8.868   7.549 -0.2307 -0.1393 -0.1475
  860YOPE   C1B12745  16.887   9.669   6.883 -0.0915 -0.0029  0.1752
  860YOPE   C2B12746  16.879   9.589   7.348  0.0061  0.1703 -0.1074
  860YOPE   D3B12747  16.688   9.267   7.634  0.0383  0.0553  0.0043
  860YOPE   C4B12748  16.863   8.907   7.906 -0.1067 -0.4386  0.0337
  861YOPE   NH312749   7.683  16.672   6.240 -0.3623 -0.1649  0.1356
  861YOPE   PO412750   7.744  17.115   6.126 -0.0344  0.0060 -0.1256
  861YOPE   GL112751   7.765  17.154   6.547 -0.2234  0.0707  0.3649
  861YOPE   GL212752   7.918  16.876   6.680  0.0944 -0.2126  0.0653
  861YOPE   C1A12753   7.978  17.327   6.799  0.1533  0.1333  0.0403
  861YOPE   D2A12754   8.293  17.081   7.075 -0.0119  0.1642  0.2019
  861YOPE   C3A12755   8.448  17.150   7.495 -0.1521 -0.1906  0.1810
  861YOPE   C4A12756   8.714  16.925   7.685  0.0023 -0.0034  0.1177
  861YOPE   C1B12757   7.775  17.072   7.158  0.2017  0.0064 -0.1249
  861YOPE   C2B12758   7.894  17.016   7.576  0.0976  0.0289  0.1259
  861YOPE   D3B12759   8.105  17.042   7.987  0.1076  0.0368  0.0748
  861YOPE   C4B12760   8.063  17.167   8.445  0.1612  0.2909  0.1036
  862YOPE   NH312761   8.168  17.867   5.798  0.0999 -0.0783  0.1842
  862YOPE   PO412762   8.560  17.881   5.828  0.0275  0.0883  0.2415
  862YOPE   GL112763   8.555  17.785   6.303 -0.1285 -0.1133  0.1065
  862YOPE   GL212764   8.809  17.950   6.472  0.0314  0.1344  0.1631
  862YOPE   C1A12765   8.320  17.660   6.691 -0.0374  0.0180 -0.1415
  862YOPE   D2A12766   8.362  17.554   7.100 -0.0807  0.1054 -0.0140
  862YOPE   C3A12767   8.048  17.473   7.297  0.1153 -0.0298  0.0570
  862YOPE   C4A12768   7.973  17.522   7.666  0.1452  0.0872  0.0573
  862YOPE   C1B12769   8.678  17.929   6.925 -0.2088 -0.1364 -0.0220
  862YOPE   C2B12770   8.666  17.820   7.391 -0.0218  0.0672 -0.0378
  862YOPE   D3B12771   8.516  17.640   7.752 -0.0060  0.3441  0.2134
  862YOPE   C4B12772   8.341  17.464   8.073 -0.1954 -0.1658 -0.0891
  863YOPE   NH312773  13.717  11.994   6.042  0.1678 -0.6078 -0.0465
  863YOPE   PO412774  14.034  12.386   6.080 -0.0349 -0.1762  0.0570
  863YOPE   GL112775  13.986  12.295   6.433  0.1532 -0.0703 -0.5951
  863YOPE   GL212776  13.686  12.280   6.474  0.0737 -0.3819 -0.2538
  863YOPE   C1A12777  14.006  12.159   6.828 -0.1714  0.0563  0.1029
  863YOPE   D2A12778  13.827  11.984   7.217 -0.0456  0.0342 -0.1252
  863YOPE   C3A12779  14.034  11.713   7.476  0.1267  0.1416 -0.1648
  863YOPE   C4A12780  14.226  11.820   7.977 -0.2511 -0.3093  0.2177
  863YOPE   C1B12781  13.738  12.674   6.720  0.1092  0.3546  0.3531
  863YOPE   C2B12782  13.689  12.947   7.161  0.5561  0.1725 -0.3923
  863YOPE   D3B12783  13.627  13.038   7.606 -0.1918  0.0958  0.1802
  863YOPE   C4B12784  13.478  12.922   7.908  0.0540 -0.1148 -0.1277
  864YOPE   NH312785   7.282   3.220   6.005  0.2401 -0.1414  0.0385
  864YOPE   PO412786   7.572   3.406   6.198 -0.3737 -0.0506 -0.4015
  864YOPE   GL112787   7.692   3.362   6.682 -0.3875 -0.0265  0.1466
  864YOPE   GL212788   7.675   3.677   6.599  0.1918 -0.2221  0.2431
  864YOPE   C1A12789   7.782   3.222   7.086 -0.0783  0.4138  0.0628
  864YOPE   D2A12790   7.947   3.144   7.406  0.0767  0.2159  0.5007
  864YOPE   C3A12791   8.478   3.345   7.410 -0.0431 -0.1984 -0.0646
  864YOPE   C4A12792   8.832   3.166   7.571 -0.1231 -0.1869 -0.1889
  864YOPE   C1B12793   7.991   3.673   6.970  0.1412 -0.0724  0.2107
  864YOPE   C2B12794   8.002   3.741   7.389  0.3226  0.1688  0.1966
  864YOPE   D3B12795   8.329   3.757   7.700 -0.2993  0.2338 -0.0269
  864YOPE   C4B12796   8.455   3.792   8.147  0.5141 -0.4102 -0.1461
  865YOPE   NH312797   7.798  12.698   6.220  0.0595  0.0089  0.3604
  865YOPE   PO412798   8.111  13.047   6.144 -0.0568  0.0005 -0.1475
  865YOPE   GL112799   7.973  12.999   6.604  0.0519 -0.1199  0.2448
  865YOPE   GL212800   8.295  12.991   6.708 -0.6769 -0.2008  0.4109
  865YOPE   C1A12801   7.806  13.350   6.825 -0.0911  0.0429 -0.4697
  865YOPE   D2A12802   7.628  13.306   7.251 -0.1095 -0.1074 -0.1505
  865YOPE   C3A12803   7.663  13.180   7.872 -0.2065  0.2068 -0.1818
  865YOPE   C4A12804   7.649  13.211   8.357 -0.6616 -0.1016  0.1571
  865YOPE   C1B12805   8.187  13.197   7.162 -0.0982 -0.3641 -0.1833
  865YOPE   C2B12806   8.312  13.501   7.441 -0.5375 -0.3072 -0.0590
  865YOPE   D3B12807   8.072  13.495   7.702 -0.1849  0.1022 -0.0274
  865YOPE   C4B12808   8.156  13.642   8.166 -0.1625 -0.0030 -0.5238
  866YOPE   NH312809  12.857   9.264   5.756 -0.2591  0.1974 -0.1696
  866YOPE   PO412810  12.547   8.909   5.840  0.0405  0.1059  0.3528
  866YOPE   GL112811  12.401   8.749   6.283 -0.0031 -0.0675 -0.2870
  866YOPE   GL212812  12.429   8.962   6.489 -0.1409 -0.1962  0.3293
  866YOPE   C1A12813  11.964   8.771   6.638 -0.1978 -0.3736  0.0476
  866YOPE   D2A12814  11.703   9.024   6.868  0.1074 -0.0292 -0.1961
  866YOPE   C3A12815  11.799   9.192   7.376  0.5026  0.2009 -0.0116
  866YOPE   C4A12816  12.111   9.338   7.690 -0.1209 -0.0689 -0.0352
  866YOPE   C1B12817  12.713   8.652   6.745 -0.2702  0.2044 -0.0911
  866YOPE   C2B12818  12.936   8.711   7.164  0.0354  0.2437  0.0206
  866YOPE   D3B12819  12.743   8.710   7.701 -0.1992  0.1005 -0.0947
  866YOPE   C4B12820  12.804   8.733   8.146 -0.0706 -0.3417 -0.2251
  867YOPE   NH312821   8.052   0.787   6.148 -0.1493 -0.0660  0.3804
  867YOPE   PO412822   7.855   0.485   6.025 -0.0450 -0.0734  0.1563
  867YOPE   GL112823   7.620   0.495   6.385  0.2244  0.2812 -0.0094
  867YOPE   GL212824   7.731   0.245   6.516 -0.1831  0.1392  0.1449
  867YOPE   C1A12825   7.590   0.666   6.779 -0.1795 -0.0897 -0.0588
  867YOPE   D2A12826   7.582   0.808   7.177  0.1453  0.1127  0.0292
  867YOPE   C3A12827   7.633   0.731   7.578  0.1798 -0.1542 -0.0694
  867YOPE   C4A12828   7.825   0.806   7.921  0.3411 -0.2138  0.0616
  867YOPE   C1B12829   7.956   0.430   6.949  0.1653  0.0004 -0.2865
  867YOPE   C2B12830   8.328   0.503   7.070 -0.3471 -0.0235  0.0902
  867YOPE   D3B12831   8.663   0.799   7.218 -0.1536 -0.0109 -0.2761
  867YOPE   C4B12832   8.904   0.973   7.389 -0.0874  0.0665  0.0853
  868YOPE   NH312833   0.880  17.022   5.847  0.1161 -0.2225  0.1916
  868YOPE   PO412834   0.539  16.784   5.780  0.0657 -0.1897 -0.1710
  868YOPE   GL112835   0.558  16.565   6.119 -0.0306  0.0336 -0.0442
  868YOPE   GL212836   0.843  16.674   6.263  0.0740  0.0262  0.0300
  868YOPE   C1A12837   0.275  16.578   6.470  0.2114  0.1638 -0.0447
  868YOPE   D2A12838   0.172  16.796   6.779 -0.1354  0.3648  0.1686
  868YOPE   C3A12839   0.137  16.780   7.197 -0.2589 -0.1729 -0.3518
  868YOPE   C4A12840   0.258  16.333   7.280 -0.2301  0.0789  0.2091
  868YOPE   C1B12841   0.733  16.750   6.661  0.0306  0.0164  0.1195
  868YOPE   C2B12842   0.604  16.730   7.106  0.1006 -0.0948  0.1545
  868YOPE   D3B12843   0.523  16.738   7.534 -0.0595  0.0554 -0.1857
  868YOPE   C4B12844   0.428  16.323   7.755 -0.0301 -0.1823  0.1331
  869YOPE   NH312845   9.657  12.604   6.171  0.1503 -0.2161 -0.0430
  869YOPE   PO412846   9.531  13.013   6.095  0.0128  0.1103 -0.0750
  869YOPE   GL112847   9.575  13.014   6.522 -0.1312  0.2309 -0.0975
  869YOPE   GL212848   9.877  12.774   6.614  0.2133  0.0443 -0.3941
  869YOPE   C1A12849   9.620  13.151   6.884 -0.0285 -0.0342 -0.0194
  869YOPE   D2A12850   9.580  13.318   7.244  0.0420  0.2148 -0.1687
  869YOPE   C3A12851   9.225  13.530   7.367 -0.0046 -0.0871  0.2017
  869YOPE   C4A12852   9.139  13.705   7.673 -0.0652  0.1198  0.0823
  869YOPE   C1B12853   9.793  12.751   7.074 -0.0220 -0.4264  0.2008
  869YOPE   C2B12854   9.571  12.821   7.418 -0.1612 -0.1037  0.0222
  869YOPE   D3B12855   9.557  13.051   7.754  0.1887 -0.0240  0.1674
  869YOPE   C4B12856   9.204  13.240   7.901 -0.2491  0.1340 -0.0534
  870YOPE   NH312857   7.180  11.133   6.260 -0.0620 -0.1069  0.1864
  870YOPE   PO412858   7.484  11.284   6.173  0.0684  0.1546  0.0434
  870YOPE   GL112859   7.596  11.339   6.512 -0.0685  0.0702  0.0896
  870YOPE   GL212860   7.792  11.625   6.693 -0.0219  0.1014  0.0394
  870YOPE   C1A12861   7.377  11.239   6.990 -0.1515  0.0313  0.1658
  870YOPE   D2A12862   7.410  11.256   7.473  0.0219 -0.1979 -0.0018
  870YOPE   C3A12863   7.863  11.426   7.595 -0.1191 -0.0120 -0.2895
  870YOPE   C4A12864   8.267  11.436   7.453  0.2105 -0.0576  0.2885
  870YOPE   C1B12865   8.191  11.399   6.946 -0.1045  0.0146  0.1171
  870YOPE   C2B12866   8.492  11.109   6.877  0.0428 -0.0452  0.0363
  870YOPE   D3B12867   8.723  10.719   7.017 -0.2497  0.1866 -0.1541
  870YOPE   C4B12868   8.703  10.262   7.248  0.1588 -0.3111 -0.6639
  871YOPE   NH312869  14.125  12.876   5.784 -0.0492 -0.0143 -0.0876
  871YOPE   PO412870  14.093  13.312   5.989  0.2563 -0.5244  0.0206
  871YOPE   GL112871  13.957  13.431   6.359  0.1101  0.0427 -0.1653
  871YOPE   GL212872  13.731  13.523   6.451  0.4492 -0.1504  0.0550
  871YOPE   C1A12873  14.050  13.243   6.760  0.0842 -0.0023 -0.1601
  871YOPE   D2A12874  14.211  13.108   7.108  0.0610 -0.2109  0.2906
  871YOPE   C3A12875  14.069  13.238   7.534  0.0353 -0.2524  0.0793
  871YOPE   C4A12876  13.701  13.457   7.902  0.3145  0.2473  0.1704
  871YOPE   C1B12877  13.523  13.518   6.847  0.1267 -0.1508 -0.2617
  871YOPE   C2B12878  13.542  13.465   7.338  0.0675 -0.3399  0.2418
  871YOPE   D3B12879  13.349  13.777   7.647  0.0969 -0.1459 -0.0739
  871YOPE   C4B12880  13.437  13.809   8.176 -0.1504 -0.1717 -0.1867
  872YOPE   NH312881   0.045  15.119   6.100  0.0069  0.1790  0.2249
  872YOPE   PO412882   0.403  15.159   6.057  0.3378  0.0528 -0.1068
  872YOPE   GL112883   0.557  15.140   6.500  0.2844 -0.0983  0.0963
  872YOPE   GL212884   0.292  14.936   6.493  0.0058 -0.0975 -0.1656
  872YOPE   C1A12885   0.575  14.852   6.933  0.2113 -0.2004  0.1009
  872YOPE   D2A12886   0.394  14.638   7.302  0.0120  0.2346 -0.3700
  872YOPE   C3A12887   0.136  14.823   7.552 -0.2438 -0.1150 -0.2239
  872YOPE   C4A12888   0.063  14.978   7.968 -0.2802  0.1739  0.3664
  872YOPE   C1B12889   0.120  14.786   6.889  0.0202  0.3808 -0.1206
  872YOPE   C2B12890  -0.298  14.980   7.014 -0.1173  0.2578 -0.0431
  872YOPE   D3B12891  -0.624  14.872   7.230  0.1608 -0.0433 -0.0247
  872YOPE   C4B12892  -0.856  14.858   7.560  0.0140 -0.0135 -0.1653
  873YOPE   NH312893  13.241   0.981   5.855 -0.1153 -0.1765  0.0731
  873YOPE   PO412894  13.635   0.881   6.077  0.1396  0.0208  0.0181
  873YOPE   GL112895  13.922   0.733   6.405  0.1051  0.2796 -0.1612
  873YOPE   GL212896  13.905   0.505   6.475 -0.0581  0.2158 -0.3659
  873YOPE   C1A12897  13.916   0.898   6.890 -0.1956 -0.3256  0.0621
  873YOPE   D2A12898  13.553   0.999   7.210  0.1509 -0.0197  0.2489
  873YOPE   C3A12899  13.413   1.255   7.560 -0.0871 -0.1456 -0.1639
  873YOPE   C4A12900  13.118   1.426   7.899 -0.1940  0.2822 -0.1484
  873YOPE   C1B12901  14.118   0.354   6.919  0.0028 -0.3797  0.0693
  873YOPE   C2B12902  14.065   0.241   7.355  0.0372 -0.1427 -0.0049
  873YOPE   D3B12903  14.008   0.481   7.675 -0.0464 -0.0426 -0.4652
  873YOPE   C4B12904  14.124   0.604   8.078 -0.0074  0.0041  0.0061
  874YOPE   NH312905   4.113   5.619   5.794 -0.1274 -0.0219 -0.4336
  874YOPE   PO412906   4.515   5.557   5.855 -0.3275 -0.0314 -0.3628
  874YOPE   GL112907   4.255   5.272   6.169  0.0016  0.0335 -0.0401
  874YOPE   GL212908   3.952   5.449   6.326  0.2275 -0.5355 -0.0059
  874YOPE   C1A12909   4.353   5.469   6.553 -0.1100 -0.1188 -0.0938
  874YOPE   D2A12910   4.347   5.613   6.950  0.0764 -0.0053 -0.2970
  874YOPE   C3A12911   4.197   5.349   7.246 -0.3738  0.0288 -0.0598
  874YOPE   C4A12912   4.241   5.386   7.659  0.2197 -0.0762  0.0716
  874YOPE   C1B12913   3.847   5.846   6.675 -0.2251 -0.2998 -0.2953
  874YOPE   C2B12914   3.565   6.041   6.992 -0.0197 -0.0259 -0.0590
  874YOPE   D3B12915   3.754   6.209   7.422  0.1335 -0.0870  0.0925
  874YOPE   C4B12916   3.763   6.376   7.905  0.0450 -0.5181  0.0204
  875YOPE   NH312917   4.869  12.962   6.126 -0.1637  0.2357  0.1481
  875YOPE   PO412918   5.100  12.906   6.467 -0.2016  0.1340  0.0426
  875YOPE   GL112919   4.671  12.793   6.581  0.1908  0.3475 -0.0513
  875YOPE   GL212920   4.687  12.473   6.611 -0.0389  0.0901 -0.1468
  875YOPE   C1A12921   4.464  12.836   6.953 -0.0303 -0.2516  0.1321
  875YOPE   D2A12922   4.400  12.657   7.349 -0.2843 -0.2672  0.2640
  875YOPE   C3A12923   4.549  12.267   7.522 -0.0428  0.0156  0.0023
  875YOPE   C4A12924   4.662  12.231   7.967 -0.1256 -0.0706 -0.0343
  875YOPE   C1B12925   4.774  12.305   7.096  0.0632  0.1125 -0.1044
  875YOPE   C2B12926   5.083  12.225   7.485  0.0995 -0.1338 -0.1457
  875YOPE   D3B12927   5.119  11.992   7.776 -0.2090  0.0510 -0.1244
  875YOPE   C4B12928   5.339  11.776   8.117 -0.0409  0.1279  0.0891
  876YOPE   NH312929   7.888  12.215   6.141 -0.0621  0.1888  0.0679
  876YOPE   PO412930   8.038  11.834   6.309 -0.0940  0.1501  0.1533
  876YOPE   GL112931   8.230  11.830   6.671  0.0785 -0.2401  0.2214
  876YOPE   GL212932   8.366  12.069   6.766  0.2116  0.1629 -0.1421
  876YOPE   C1A12933   8.097  11.835   7.149  0.1231  0.0049 -0.0125
  876YOPE   D2A12934   8.001  11.995   7.546  0.0811  0.4003  0.0090
  876YOPE   C3A12935   8.092  11.733   7.965  0.1279  0.0018 -0.1151
  876YOPE   C4A12936   8.245  11.658   8.432 -0.2423  0.0690 -0.2133
  876YOPE   C1B12937   8.282  12.298   7.129 -0.1879  0.2298  0.0181
  876YOPE   C2B12938   8.137  12.459   7.528  0.0771  0.1049 -0.0418
  876YOPE   D3B12939   8.234  12.597   7.889  0.3760  0.0224 -0.0213
  876YOPE   C4B12940   8.438  12.728   8.313  0.1076 -0.1110  0.3835
  877YOPE   NH312941  12.779   3.481   6.244  0.0908  0.2249 -0.1541
  877YOPE   PO412942  12.392   3.464   6.368 -0.0523 -0.2225 -0.0180
  877YOPE   GL112943  12.336   3.764   6.784  0.0719  0.2954 -0.0222
  877YOPE   GL212944  12.052   3.917   6.789  0.1814 -0.2641  0.0843
  877YOPE   C1A12945  12.548   3.797   7.158  0.3184 -0.0780 -0.2256
  877YOPE   D2A12946  12.593   3.591   7.556  0.0890 -0.1418 -0.1837
  877YOPE   C3A12947  12.699   3.138   7.604 -0.1568  0.0444 -0.1012
  877YOPE   C4A12948  13.090   3.006   7.719 -0.1213  0.2944 -0.4056
  877YOPE   C1B12949  12.037   3.705   7.173 -0.3838 -0.1895  0.1411
  877YOPE   C2B12950  12.097   3.825   7.582 -0.0969 -0.0120 -0.1203
  877YOPE   D3B12951  11.727   3.867   7.922  0.2424  0.3379 -0.1236
  877YOPE   C4B12952  11.491   3.728   8.181 -0.0357  0.0519  0.0940
  878YOPE   NH312953   0.272   6.869   5.485  0.1165 -0.0269 -0.1235
  878YOPE   PO412954   0.479   6.503   5.643 -0.0218 -0.0806 -0.3490
  878YOPE   GL112955   0.555   6.367   6.008 -0.1029  0.4692 -0.0362
  878YOPE   GL212956   0.695   6.128   6.124 -0.1693  0.0182  0.0187
  878YOPE   C1A12957   0.285   6.302   6.327 -0.4309  0.0553 -0.0300
  878YOPE   D2A12958   0.195   6.125   6.709  0.2190 -0.4906  0.0748
  878YOPE   C3A12959  -0.042   6.307   6.933  0.1003 -0.0547 -0.1904
  878YOPE   C4A12960  -0.091   6.663   7.252 -0.0044  0.0238 -0.0698
  878YOPE   C1B12961   0.502   5.771   6.411  0.0243  0.1006  0.2819
  878YOPE   C2B12962   0.481   5.453   6.682  0.1840  0.0419 -0.1238
  878YOPE   D3B12963   0.620   5.538   7.166 -0.1320 -0.0241 -0.3272
  878YOPE   C4B12964   0.527   5.362   7.612 -0.1598  0.0405 -0.0979
  879YOPE   NH312965   4.951  10.425   6.283 -0.3239 -0.1694 -0.0343
  879YOPE   PO412966   4.959   9.994   6.220  0.5895 -0.0737  0.1129
  879YOPE   GL112967   4.780  10.141   6.627 -0.0209  0.0395  0.0111
  879YOPE   GL212968   4.397  10.161   6.673  0.0995 -0.2460 -0.0582
  879YOPE   C1A12969   4.819  10.068   7.081  0.0668  0.3322 -0.2744
  879YOPE   D2A12970   4.855   9.744   7.384 -0.1855 -0.2047  0.1217
  879YOPE   C3A12971   4.578   9.485   7.598  0.0260 -0.0771 -0.0252
  879YOPE   C4A12972   4.554   9.548   8.153 -0.0156 -0.1090  0.1069
  879YOPE   C1B12973   4.383  10.219   7.113 -0.1386  0.0296  0.2074
  879YOPE   C2B12974   4.412  10.049   7.545  0.0067 -0.1082 -0.0321
  879YOPE   D3B12975   4.401  10.009   8.082  0.1426  0.1257 -0.0030
  879YOPE   C4B12976   4.665  10.102   8.326  0.1074  0.0644  0.0055
  880YOPE   NH312977  10.053  12.101   6.522 -0.2463  0.2281  0.0851
  880YOPE   PO412978   9.834  11.797   6.257  0.0702 -0.0692  0.1063
  880YOPE   GL112979   9.642  11.510   6.634 -0.0731 -0.0650  0.0850
  880YOPE   GL212980   9.926  11.334   6.525 -0.0539  0.1522 -0.1302
  880YOPE   C1A12981   9.482  11.441   7.092 -0.1986 -0.0377 -0.2274
  880YOPE   D2A12982   9.547  11.365   7.465 -0.0142 -0.0147 -0.0004
  880YOPE   C3A12983   9.590  11.288   7.952  0.1421 -0.1290 -0.0607
  880YOPE   C4A12984   9.792  11.199   8.374  0.3541  0.0993 -0.1490
  880YOPE   C1B12985   9.760  11.127   6.877 -0.2791  0.1010 -0.0199
  880YOPE   C2B12986   9.618  10.915   7.289  0.1401 -0.0706  0.3049
  880YOPE   D3B12987   9.473  10.899   7.696  0.2886 -0.2658 -0.0349
  880YOPE   C4B12988   9.112  10.983   7.945  0.0917 -0.2528 -0.3246
  881YOPE   NH312989  13.430   9.975   5.918 -0.0970 -0.1831  0.0461
  881YOPE   PO412990  13.055   9.689   5.710  0.1220  0.1017 -0.1273
  881YOPE   GL112991  13.170   9.585   6.125  0.1696 -0.2134 -0.3469
  881YOPE   GL212992  12.911   9.610   6.266  0.2852  0.0969  0.1085
  881YOPE   C1A12993  13.302   9.228   6.472 -0.2069  0.0155 -0.1739
  881YOPE   D2A12994  13.223   8.780   6.671  0.4425  0.2662  0.0127
  881YOPE   C3A12995  13.431   8.371   6.509  0.0412 -0.0615 -0.0143
  881YOPE   C4A12996  13.644   7.959   6.726  0.0114  0.2283  0.0638
  881YOPE   C1B12997  13.104   9.608   6.643 -0.0536 -0.4793 -0.4161
  881YOPE   C2B12998  13.219   9.602   7.016 -0.1932  0.0853  0.0621
  881YOPE   D3B12999  13.072   9.294   7.328 -0.0214  0.0811  0.0286
  881YOPE   C4B13000  12.602   9.132   7.413 -0.1899  0.1756  0.0935
  882YOPE   NH313001   6.385   2.624   6.239  0.0319 -0.0670  0.0145
  882YOPE   PO413002   6.449   3.118   6.236  0.2727  0.0721 -0.1023
  882YOPE   GL113003   6.529   3.019   6.583  0.0989  0.2710 -0.0211
  882YOPE   GL213004   6.228   2.806   6.714 -0.2334 -0.0898  0.3231
  882YOPE   C1A13005   6.735   2.945   6.981 -0.0093 -0.0142  0.1968
  882YOPE   D2A13006   6.731   2.909   7.419 -0.2329 -0.3688 -0.0256
  882YOPE   C3A13007   6.626   3.215   7.724  0.1941  0.0467 -0.1369
  882YOPE   C4A13008   6.592   3.287   8.129  0.2364 -0.2805  0.0743
  882YOPE   C1B13009   6.262   2.808   7.136 -0.3416 -0.0363 -0.4544
  882YOPE   C2B13010   6.242   2.845   7.562 -0.0656 -0.0803 -0.1743
  882YOPE   D3B13011   6.433   2.826   7.941  0.0390 -0.1701  0.2824
  882YOPE   C4B13012   6.380   2.759   8.399 -0.0987  0.1465 -0.0344
  883YOPE   NH313013   0.558   0.942   5.700  0.4155  0.0023  0.2297
  883YOPE   PO413014   0.972   0.920   5.739 -0.1224 -0.1941 -0.0380
  883YOPE   GL113015   0.896   0.761   6.119  0.1092  0.0387 -0.1506
  883YOPE   GL213016   0.479   0.719   6.129  0.2067  0.0655 -0.1464
  883YOPE   C1A13017   1.045   0.820   6.592 -0.1091 -0.0156  0.1567
  883YOPE   D2A13018   0.949   0.752   6.932 -0.0618 -0.3339  0.0006
  883YOPE   C3A13019   0.876   1.133   7.256  0.0196  0.1282  0.1464
  883YOPE   C4A13020   0.561   1.403   7.419  0.1318  0.3342  0.0819
  883YOPE   C1B13021   0.507   0.946   6.496  0.0420 -0.1202  0.3662
  883YOPE   C2B13022   0.499   0.974   6.896  0.2416 -0.2461  0.0474
  883YOPE   D3B13023   0.534   0.792   7.311 -0.0917 -0.2360 -0.0332
  883YOPE   C4B13024   0.336   0.800   7.739  0.0466  0.0017 -0.3299
  884YOPE   NH313025   4.302  18.001   6.216  0.1256 -0.1673  0.3812
  884YOPE   PO413026   4.569  17.552   6.216  0.1659 -0.1540 -0.1480
  884YOPE   GL113027   4.535  17.699   6.635 -0.1691  0.1035 -0.1723
  884YOPE   GL213028   4.941  17.820   6.602 -0.0378  0.1142  0.0044
  884YOPE   C1A13029   4.338  17.826   7.091 -0.1139 -0.1906  0.0213
  884YOPE   D2A13030   4.421  17.891   7.507  0.0675 -0.2889 -0.1916
  884YOPE   C3A13031   4.133  17.977   7.811 -0.1521 -0.0339  0.1844
  884YOPE   C4A13032   4.030  18.295   8.021  0.0197  0.0700  0.1331
  884YOPE   C1B13033   4.775  18.054   6.953  0.0191  0.0220  0.0040
  884YOPE   C2B13034   4.532  18.332   7.298 -0.0063 -0.3432 -0.1367
  884YOPE   D3B13035   4.569  18.613   7.511  0.0699  0.0522 -0.1306
  884YOPE   C4B13036   4.485  18.524   7.915  0.3092  0.0427 -0.1358
  885YOPE   NH313037   5.768   1.383   5.926 -0.0473 -0.2497  0.0278
  885YOPE   PO413038   6.172   1.102   5.952  0.2582  0.1692  0.2554
  885YOPE   GL113039   5.931   1.148   6.433 -0.0344 -0.2036 -0.2204
  885YOPE   GL213040   5.845   1.504   6.476 -0.3279 -0.1432 -0.1557
  885YOPE   C1A13041   5.850   1.214   6.874  0.1216 -0.0585 -0.2088
  885YOPE   D2A13042   5.729   0.967   7.154 -0.0925  0.2467 -0.1125
  885YOPE   C3A13043   5.308   0.994   7.431  0.2150 -0.0209  0.0426
  885YOPE   C4A13044   4.878   0.902   7.333 -0.3893  0.0374  0.1185
  885YOPE   C1B13045   5.687   1.726   6.834  0.2383  0.2472 -0.3372
  885YOPE   C2B13046   5.330   1.868   7.064 -0.0916  0.0461  0.4239
  885YOPE   D3B13047   5.150   1.916   7.368  0.1412 -0.1216 -0.0508
  885YOPE   C4B13048   5.257   1.677   7.733 -0.1506  0.1018 -0.3109
  886YOPE   NH313049   0.925   3.321   5.243  0.1471  0.1221  0.0650
  886YOPE   PO413050   0.676   3.389   5.561 -0.0440  0.4642 -0.2904
  886YOPE   GL113051   0.693   2.988   5.784  0.3315 -0.1983 -0.0825
  886YOPE   GL213052   0.968   2.948   5.775  0.4125  0.3141  0.2567
  886YOPE   C1A13053   0.581   3.071   6.210  0.1611 -0.0137 -0.3018
  886YOPE   D2A13054   0.492   3.334   6.479 -0.3857  0.0269  0.0767
  886YOPE   C3A13055   0.434   3.784   6.359 -0.4081 -0.1775  0.0064
  886YOPE   C4A13056   0.591   3.992   6.147  0.0864  0.0147  0.0817
  886YOPE   C1B13057   1.026   2.985   6.156 -0.1256  0.1027 -0.0366
  886YOPE   C2B13058   0.923   3.051   6.611 -0.1634 -0.0635 -0.1985
  886YOPE   D3B13059   0.909   3.034   7.071 -0.1800 -0.1610  0.4723
  886YOPE   C4B13060   0.882   2.809   7.423 -0.0092  0.0043  0.2436
  887YOPE   NH313061  13.900   9.598   5.904  0.3680  0.2499 -0.1444
  887YOPE   PO413062  14.214   9.305   5.816 -0.1761  0.1640 -0.2688
  887YOPE   GL113063  14.003   9.053   6.044  0.1666 -0.2453  0.3059
  887YOPE   GL213064  13.840   9.223   6.331 -0.0333 -0.0220  0.0877
  887YOPE   C1A13065  14.089   8.721   6.291  0.2122 -0.0783 -0.2181
  887YOPE   D2A13066  14.083   8.443   6.738 -0.1232  0.1501  0.0901
  887YOPE   C3A13067  14.293   8.368   7.008  0.1445  0.2293 -0.3785
  887YOPE   C4A13068  14.268   8.601   7.444  0.0628 -0.1755  0.0739
  887YOPE   C1B13069  13.989   9.135   6.746  0.0037  0.1860 -0.1252
  887YOPE   C2B13070  13.992   9.220   7.197  0.1366  0.1165 -0.0946
  887YOPE   D3B13071  14.105   9.021   7.587  0.1123 -0.0730 -0.0342
  887YOPE   C4B13072  14.156   8.715   8.015  0.1465 -0.4579 -0.3360
  888YOPE   NH313073  11.166   9.275   6.270  0.0440  0.1006  0.0865
  888YOPE   PO413074  11.210   9.695   6.280 -0.2838  0.0640 -0.1614
  888YOPE   GL113075  11.278   9.876   6.662 -0.0265  0.2167  0.0335
  888YOPE   GL213076  11.609   9.768   6.799 -0.2419 -0.2013 -0.0056
  888YOPE   C1A13077  11.367  10.163   7.050 -0.0486 -0.1322 -0.0063
  888YOPE   D2A13078  11.626  10.047   7.427  0.3782  0.0128 -0.1667
  888YOPE   C3A13079  12.038   9.855   7.527 -0.3968 -0.3427  0.1068
  888YOPE   C4A13080  12.312   9.733   7.865 -0.2632  0.1262 -0.2399
  888YOPE   C1B13081  11.901   9.606   7.056 -0.2447  0.2156 -0.2581
  888YOPE   C2B13082  12.185   9.334   7.102 -0.2039  0.2230  0.1595
  888YOPE   D3B13083  12.467   9.096   6.956  0.0162  0.0695  0.0852
  888YOPE   C4B13084  12.902   9.144   6.831 -0.0073  0.3000  0.1425
  889YOPE   NH313085  10.125   4.119   6.083 -0.2575 -0.0538  0.2303
  889YOPE   PO413086   9.842   3.789   6.225  0.2153  0.2595 -0.0375
  889YOPE   GL113087   9.871   3.741   6.638  0.1234  0.2090 -0.2105
  889YOPE   GL213088   9.762   3.358   6.596 -0.0259 -0.0293 -0.1671
  889YOPE   C1A13089   9.974   3.768   7.008  0.1671  0.2163  0.0733
  889YOPE   D2A13090   9.921   3.551   7.416  0.1169 -0.1183  0.0040
  889YOPE   C3A13091  10.168   3.375   7.697 -0.1027 -0.0824  0.0894
  889YOPE   C4A13092  10.074   3.129   8.009 -0.2489  0.0137  0.0150
  889YOPE   C1B13093   9.556   3.383   7.001  0.0514  0.2956  0.2190
  889YOPE   C2B13094   9.414   3.527   7.405  0.0728 -0.0486 -0.1195
  889YOPE   D3B13095   9.181   3.586   7.733  0.0272  0.0323 -0.1453
  889YOPE   C4B13096   8.773   3.535   7.899 -0.3245 -0.0743 -0.1602
  890YOPE   NH313097  16.746   7.084   5.716  0.0718 -0.2245 -0.0611
  890YOPE   PO413098  17.149   7.029   5.806  0.2768 -0.1471 -0.1144
  890YOPE   GL113099  17.285   6.965   6.251 -0.1218  0.2848  0.1120
  890YOPE   GL213100  17.590   7.093   6.102  0.1042  0.1533 -0.3358
  890YOPE   C1A13101  17.456   6.640   6.485  0.0107  0.5252 -0.0079
  890YOPE   D2A13102  17.748   6.555   6.770  0.0211  0.0702  0.1532
  890YOPE   C3A13103  17.684   6.253   7.127  0.0992  0.0540 -0.0057
  890YOPE   C4A13104  17.436   6.119   7.415 -0.2322 -0.0477 -0.1553
  890YOPE   C1B13105  17.666   7.101   6.552 -0.0103  0.0557 -0.1508
  890YOPE   C2B13106  17.507   7.468   6.938  0.2889  0.5579  0.1556
  890YOPE   D3B13107  17.463   7.396   7.296 -0.0807  0.0783  0.3240
  890YOPE   C4B13108  17.104   7.591   7.510  0.0948 -0.3249 -0.0529
  891YOPE   NH313109   8.036   1.672   6.040 -0.0741  0.3498 -0.0243
  891YOPE   PO413110   7.834   1.350   6.072 -0.2814 -0.2866 -0.1109
  891YOPE   GL113111   7.818   1.607   6.482 -0.0311  0.1946 -0.0594
  891YOPE   GL213112   8.029   1.926   6.464  0.1754  0.0724 -0.2106
  891YOPE   C1A13113   7.555   1.758   6.897  0.0658  0.4983  0.2644
  891YOPE   D2A13114   7.318   1.703   7.327  0.0992 -0.2596 -0.3591
  891YOPE   C3A13115   7.130   1.795   7.710 -0.3212 -0.0634 -0.0683
  891YOPE   C4A13116   6.797   1.912   7.888 -0.0380 -0.1302 -0.0475
  891YOPE   C1B13117   8.033   2.090   6.835  0.1216  0.0867 -0.4326
  891YOPE   C2B13118   8.083   2.231   7.195 -0.1665 -0.1255  0.1864
  891YOPE   D3B13119   7.925   2.093   7.650  0.1380  0.0434 -0.3317
  891YOPE   C4B13120   8.116   1.878   8.074  0.0772 -0.1649 -0.1592
  892YOPE   NH313121   7.498  11.859   6.292  0.1688  0.1087 -0.1030
  892YOPE   PO413122   7.149  11.651   6.413 -0.1911 -0.1340 -0.1182
  892YOPE   GL113123   7.249  11.675   6.778  0.1201  0.1464 -0.0747
  892YOPE   GL213124   7.338  12.083   6.828 -0.0225 -0.2416  0.1455
  892YOPE   C1A13125   7.594  11.674   7.193  0.0823  0.0186 -0.1671
  892YOPE   D2A13126   7.479  11.788   7.599  0.0120 -0.0518 -0.1968
  892YOPE   C3A13127   7.547  11.517   7.982  0.0681  0.0726  0.3582
  892YOPE   C4A13128   7.435  11.007   7.907 -0.0283 -0.1900 -0.2412
  892YOPE   C1B13129   7.182  12.079   7.214  0.0744 -0.0971  0.0470
  892YOPE   C2B13130   6.895  12.011   7.592  0.3196 -0.1209  0.1058
  892YOPE   D3B13131   6.614  11.866   7.836 -0.0857  0.0682  0.0538
  892YOPE   C4B13132   6.732  11.786   8.218 -0.0845 -0.1524 -0.2110
  893YOPE   NH313133  13.129  16.907   6.269  0.1384 -0.3363 -0.0659
  893YOPE   PO413134  13.602  16.779   6.234 -0.0947  0.0641  0.2535
  893YOPE   GL113135  13.547  16.977   6.568  0.3357 -0.0098 -0.0128
  893YOPE   GL213136  13.762  17.089   6.629  0.1668 -0.1669 -0.2763
  893YOPE   C1A13137  13.639  16.878   7.039  0.2645  0.3946 -0.1263
  893YOPE   D2A13138  13.580  16.842   7.506  0.1263 -0.1104 -0.0412
  893YOPE   C3A13139  13.199  17.034   7.719 -0.0683  0.2210  0.2116
  893YOPE   C4A13140  13.010  17.036   8.032  0.0621  0.1496 -0.0293
  893YOPE   C1B13141  13.735  17.372   7.003  0.1467  0.1314  0.7227
  893YOPE   C2B13142  13.824  17.450   7.424  0.2541 -0.2022  0.3221
  893YOPE   D3B13143  13.697  17.692   7.724 -0.4580  0.0781 -0.0328
  893YOPE   C4B13144  13.296  17.904   7.972  0.1117 -0.0316  0.0175
  894YOPE   NH313145   0.669  13.262   6.493  0.1205  0.0734 -0.0544
  894YOPE   PO413146   0.904  12.892   6.430  0.1420 -0.1391 -0.0733
  894YOPE   GL113147   1.107  12.695   6.710  0.1546  0.2906  0.4134
  894YOPE   GL213148   1.395  12.817   6.694  0.1177  0.1827  0.1658
  894YOPE   C1A13149   0.791  12.349   6.988  0.3129 -0.2985  0.2996
  894YOPE   D2A13150   0.574  12.244   7.383 -0.0911 -0.1589 -0.0254
  894YOPE   C3A13151   0.881  12.207   7.757 -0.1573  0.3542  0.2327
  894YOPE   C4A13152   1.109  12.431   7.925 -0.2438 -0.0605  0.0360
  894YOPE   C1B13153   1.305  12.747   7.170  0.1635  0.1248  0.2328
  894YOPE   C2B13154   1.456  12.551   7.550 -0.0530 -0.1384 -0.2376
  894YOPE   D3B13155   1.713  12.412   7.977  0.1839 -0.2535  0.2920
  894YOPE   C4B13156   1.836  12.596   8.309  0.0262 -0.1133  0.1473
  895YOPE   NH313157  13.288  17.857   6.207 -0.0461 -0.2870 -0.2801
  895YOPE   PO413158  12.929  17.952   6.178  0.0068  0.0672  0.0926
  895YOPE   GL113159  12.962  18.036   6.616 -0.0060 -0.0612 -0.0425
  895YOPE   GL213160  12.993  17.776   6.631 -0.0150 -0.4728 -0.0529
  895YOPE   C1A13161  12.754  18.237   6.876 -0.3242 -0.2704  0.0036
  895YOPE   D2A13162  12.500  18.169   7.229  0.1945 -0.3222  0.1823
  895YOPE   C3A13163  12.177  18.389   7.305  0.0096  0.1535  0.1632
  895YOPE   C4A13164  11.824  18.414   7.616  0.1952 -0.1182  0.2131
  895YOPE   C1B13165  13.015  17.825   7.105 -0.1157  0.2086  0.1499
  895YOPE   C2B13166  12.940  17.946   7.507 -0.3034  0.1663  0.1518
  895YOPE   D3B13167  12.546  18.010   7.739 -0.0040  0.0338  0.0578
  895YOPE   C4B13168  12.349  18.456   7.821 -0.6610  0.1517 -0.0350
  896YOPE   NH313169   0.219   8.235   5.882  0.1803  0.2884 -0.0286
  896YOPE   PO413170   0.044   8.558   5.760  0.3661 -0.2995 -0.3279
  896YOPE   GL113171  -0.197   8.491   6.080  0.0503 -0.2289 -0.0300
  896YOPE   GL213172  -0.145   8.730   6.382  0.0809 -0.0199 -0.0793
  896YOPE   C1A13173  -0.269   8.248   6.465 -0.0681 -0.1577 -0.2054
  896YOPE   D2A13174  -0.553   8.384   6.863  0.1540  0.3795 -0.1593
  896YOPE   C3A13175  -0.455   8.346   7.321 -0.4248  0.0093  0.2738
  896YOPE   C4A13176  -0.423   8.315   7.743  0.0519 -0.0752  0.1999
  896YOPE   C1B13177  -0.157   8.615   6.793  0.0813  0.1210  0.3219
  896YOPE   C2B13178  -0.054   8.667   7.245  0.2167  0.0793 -0.0280
  896YOPE   D3B13179   0.218   8.567   7.557  0.2234  0.2832  0.1161
  896YOPE   C4B13180  -0.079   8.578   7.951 -0.1875  0.0883  0.0141
  897YOPE   NH313181  11.059  10.847   5.935 -0.0439 -0.1155  0.1727
  897YOPE   PO413182  10.882  11.139   6.280 -0.0904  0.2256 -0.1938
  897YOPE   GL113183  10.856  10.905   6.685  0.1412 -0.1424  0.2659
  897YOPE   GL213184  10.624  10.623   6.903 -0.0775 -0.2160 -0.1115
  897YOPE   C1A13185  10.982  10.888   7.112 -0.4239 -0.2497  0.3245
  897YOPE   D2A13186  11.261  11.008   7.637  0.0991 -0.2230 -0.4917
  897YOPE   C3A13187  11.292  10.776   8.000  0.0538  0.0994 -0.4841
  897YOPE   C4A13188  11.286  10.351   8.036 -0.2273 -0.2885 -0.4994
  897YOPE   C1B13189  10.517  10.725   7.323 -0.2154 -0.2766  0.1196
  897YOPE   C2B13190  10.438  10.867   7.723  0.0734 -0.0315 -0.0736
  897YOPE   D3B13191  10.213  11.219   7.952 -0.0734 -0.1457  0.1217
  897YOPE   C4B13192  10.028  11.584   8.109  0.0809 -0.0973 -0.0903
  898YOPE   NH313193  14.001   6.521   5.783 -0.1725  0.0813 -0.0718
  898YOPE   PO413194  14.202   7.016   5.805  0.2481 -0.0061  0.1966
  898YOPE   GL113195  14.168   6.929   6.165  0.0102  0.0260  0.0634
  898YOPE   GL213196  14.229   6.533   6.222  0.0730 -0.0024 -0.0966
  898YOPE   C1A13197  13.937   6.927   6.495 -0.0579 -0.1040  0.0081
  898YOPE   D2A13198  14.085   7.117   6.876 -0.0375  0.0419  0.4639
  898YOPE   C3A13199  13.732   7.123   7.337  0.3033 -0.3186 -0.0392
  898YOPE   C4A13200  13.469   7.080   7.766 -0.1071  0.1021 -0.1001
  898YOPE   C1B13201  14.268   6.506   6.617 -0.2506  0.1616 -0.5114
  898YOPE   C2B13202  14.205   6.623   7.056 -0.2314  0.1720  0.1087
  898YOPE   D3B13203  14.115   6.707   7.521  0.0411 -0.1796  0.1025
  898YOPE   C4B13204  13.834   6.792   7.980 -0.1188  0.0202 -0.3455
  899YOPE   NH313205  11.354  15.030   6.669  0.0295  0.0934 -0.2101
  899YOPE   PO413206  11.006  15.357   6.822  0.1592  0.0797  0.2438
  899YOPE   GL113207  10.933  15.495   7.184 -0.1173 -0.5768 -0.1376
  899YOPE   GL213208  11.065  15.182   7.350  0.1750  0.0847  0.1619
  899YOPE   C1A13209  11.230  15.578   7.540 -0.2993 -0.0115 -0.1981
  899YOPE   D2A13210  11.604  15.421   7.725  0.1995  0.0527  0.2696
  899YOPE   C3A13211  11.951  15.269   7.971  0.0623 -0.2040  0.2823
  899YOPE   C4A13212  12.172  15.047   8.260  0.1025 -0.0701  0.1062
  899YOPE   C1B13213  10.783  15.381   7.695  0.0336  0.4076 -0.1332
  899YOPE   C2B13214  10.385  15.505   7.872 -0.0129 -0.2169  0.0715
  899YOPE   D3B13215  10.034  15.649   7.939 -0.1407  0.3194 -0.3838
  899YOPE   C4B13216   9.705  15.838   7.926 -0.0396 -0.2875 -0.2501
  900YOPE   NH313217  17.875  11.378   5.468 -0.0377 -0.2270  0.2607
  900YOPE   PO413218  17.789  11.575   5.949 -0.0400  0.1127  0.3191
  900YOPE   GL113219  17.772  11.783   6.399  0.1830 -0.0057  0.1262
  900YOPE   GL213220  17.618  12.089   6.530 -0.0257 -0.1137 -0.3007
  900YOPE   C1A13221  17.819  11.672   6.790  0.0124  0.1749 -0.1252
  900YOPE   D2A13222  17.997  11.693   7.107  0.6320  0.0370 -0.1775
  900YOPE   C3A13223  17.747  11.724   7.443  0.1866 -0.2605  0.1501
  900YOPE   C4A13224  17.362  11.809   7.655 -0.1614  0.0210 -0.1627
  900YOPE   C1B13225  17.540  12.000   7.054  0.0128  0.0303  0.3030
  900YOPE   C2B13226  17.568  12.165   7.391  0.0711  0.2015  0.0517
  900YOPE   D3B13227  17.362  12.311   7.757  0.2032  0.1620  0.0866
  900YOPE   C4B13228  17.213  12.409   8.176  0.0622 -0.1785 -0.0813
  901YOPE   NH313229  10.920   8.166   6.258  0.3279  0.3889  0.2666
  901YOPE   PO413230  11.275   8.436   6.083 -0.2181  0.0432 -0.1271
  901YOPE   GL113231  11.482   8.350   6.431 -0.1356  0.0621  0.0472
  901YOPE   GL213232  11.768   8.140   6.526  0.2531  0.3794  0.0863
  901YOPE   C1A13233  11.194   8.393   6.808  0.0142 -0.2841 -0.1791
  901YOPE   D2A13234  11.253   8.513   7.130  0.1919  0.3729  0.2820
  901YOPE   C3A13235  11.251   8.445   7.533  0.0179  0.0963  0.0699
  901YOPE   C4A13236  11.416   8.295   7.899 -0.1169  0.0875 -0.2519
  901YOPE   C1B13237  11.735   8.396   6.854 -0.3133 -0.0694  0.1527
  901YOPE   C2B13238  11.749   8.649   7.180 -0.6217  0.1515  0.0505
  901YOPE   D3B13239  11.731   8.423   7.552  0.1203 -0.0605 -0.3141
  901YOPE   C4B13240  11.856   8.112   7.766  0.2179 -0.1024 -0.2458
  902YOPE   NH313241  14.458  12.219   6.208 -0.3148  0.1417  0.2124
  902YOPE   PO413242  14.891  12.108   6.378  0.0626 -0.2722  0.5514
  902YOPE   GL113243  14.497  12.414   6.639 -0.0910  0.1739 -0.1170
  902YOPE   GL213244  14.822  12.413   6.862 -0.2467 -0.0261  0.1206
  902YOPE   C1A13245  14.260  12.553   6.928  0.0378  0.1084 -0.2280
  902YOPE   D2A13246  14.014  12.607   7.352  0.1357  0.3410  0.2477
  902YOPE   C3A13247  13.737  12.529   7.519 -0.0591 -0.1329 -0.3321
  902YOPE   C4A13248  13.450  12.433   7.888 -0.0651 -0.2180  0.1603
  902YOPE   C1B13249  14.834  12.394   7.344 -0.0047 -0.0922 -0.0214
  902YOPE   C2B13250  14.728  12.345   7.772  0.2223  0.0258  0.4987
  902YOPE   D3B13251  14.489  12.318   8.093  0.0502  0.2206  0.1294
  902YOPE   C4B13252  14.302  12.415   8.456  0.0530  0.2661  0.0626
  903YOPE   NH313253  13.047   6.573   5.825 -0.1153  0.0407  0.0929
  903YOPE   PO413254  13.469   6.503   5.782  0.1151 -0.2915  0.0761
  903YOPE   GL113255  13.694   6.219   6.047 -0.2656  0.1155 -0.3548
  903YOPE   GL213256  13.762   6.499   6.258  0.0285 -0.0913  0.0055
  903YOPE   C1A13257  13.624   5.939   6.375  0.1153 -0.4104  0.0668
  903YOPE   D2A13258  13.552   5.897   6.835 -0.0492  0.0209 -0.1189
  903YOPE   C3A13259  13.694   6.116   7.261  0.1744 -0.0812 -0.1115
  903YOPE   C4A13260  13.917   6.116   7.611 -0.0030 -0.0304 -0.3617
  903YOPE   C1B13261  13.826   6.316   6.682  0.2747  0.0836  0.0463
  903YOPE   C2B13262  14.122   6.087   6.924 -0.1745 -0.3451  0.2019
  903YOPE   D3B13263  14.289   6.160   7.312  0.3199 -0.1951  0.1182
  903YOPE   C4B13264  14.413   6.230   7.599 -0.4119  0.3167 -0.1549
  904YOPE   NH313265  15.333   7.709   5.573 -0.1586  0.0980  0.1566
  904YOPE   PO413266  15.207   7.242   5.673 -0.3023 -0.2025  0.1948
  904YOPE   GL113267  15.531   7.324   6.085  0.2041 -0.1533  0.5225
  904YOPE   GL213268  15.629   7.696   6.073 -0.2822 -0.1702 -0.1379
  904YOPE   C1A13269  15.696   7.146   6.482  0.3104 -0.1190  0.0579
  904YOPE   D2A13270  15.640   6.882   6.783  0.0814 -0.0010 -0.2460
  904YOPE   C3A13271  15.524   7.219   7.180  0.1413 -0.1396  0.0802
  904YOPE   C4A13272  15.179   7.227   7.472  0.1445 -0.1955  0.1181
  904YOPE   C1B13273  15.826   7.663   6.494 -0.2367 -0.1955  0.0646
  904YOPE   C2B13274  15.805   7.487   6.902 -0.1110  0.4396 -0.1003
  904YOPE   D3B13275  16.106   7.568   7.203  0.0694  0.0231  0.0712
  904YOPE   C4B13276  16.319   7.817   7.273 -0.2397  0.1269  0.0762
  905YOPE   NH313277  15.281   2.325   5.422 -0.0985  0.1285 -0.0734
  905YOPE   PO413278  14.931   2.701   5.221 -0.0737  0.1235 -0.2201
  905YOPE   GL113279  14.898   2.774   5.731  0.0353 -0.0071  0.1405
  905YOPE   GL213280  14.906   2.462   5.743  0.1166  0.2428  0.0224
  905YOPE   C1A13281  14.805   2.730   6.163  0.2395  0.3288 -0.0665
  905YOPE   D2A13282  14.934   2.920   6.541 -0.1378 -0.0475  0.1744
  905YOPE   C3A13283  15.226   2.695   6.769 -0.0222  0.3060  0.3540
  905YOPE   C4A13284  15.299   2.289   7.077 -0.2211  0.1634  0.0243
  905YOPE   C1B13285  14.986   2.224   6.137 -0.1180  0.1001 -0.0387
  905YOPE   C2B13286  14.760   1.828   6.227  0.3939  0.1645  0.0224
  905YOPE   D3B13287  14.780   1.466   6.504 -0.1590 -0.0482 -0.0054
  905YOPE   C4B13288  14.730   1.082   6.617  0.1952  0.1909  0.0162
  906YOPE   NH313289   7.851  14.881   6.152 -0.0850  0.0032 -0.0760
  906YOPE   PO413290   8.215  14.768   6.078 -0.1732  0.1121  0.1445
  906YOPE   GL113291   8.326  14.630   6.517  0.1074 -0.1117  0.1881
  906YOPE   GL213292   8.598  14.700   6.669 -0.1034  0.0479 -0.0464
  906YOPE   C1A13293   8.162  14.355   6.826 -0.0412  0.1409 -0.1264
  906YOPE   D2A13294   7.914  14.357   7.206 -0.1365 -0.0673  0.0765
  906YOPE   C3A13295   7.740  14.524   7.344 -0.2098 -0.4114 -0.0529
  906YOPE   C4A13296   7.419  14.678   7.097 -0.3879  0.2452 -0.2045
  906YOPE   C1B13297   8.548  14.502   7.032  0.2866 -0.2575 -0.0014
  906YOPE   C2B13298   8.696  14.663   7.455 -0.0446 -0.2933 -0.0950
  906YOPE   D3B13299   8.589  14.796   7.794  0.3357  0.0815  0.3834
  906YOPE   C4B13300   8.824  15.102   8.117 -0.2899 -0.1235  0.0850
  907YOPE   NH313301   8.820  11.249   5.715 -0.2927  0.0453 -0.1446
  907YOPE   PO413302   8.970  11.429   6.103  0.2820  0.1028 -0.0452
  907YOPE   GL113303   9.053  11.270   6.423  0.1669 -0.3275 -0.1136
  907YOPE   GL213304   8.710  11.114   6.448 -0.0168 -0.0481  0.1960
  907YOPE   C1A13305   9.035  11.007   6.805  0.2854 -0.0668  0.2809
  907YOPE   D2A13306   9.111  10.987   7.272 -0.1576 -0.2094 -0.1501
  907YOPE   C3A13307   8.997  10.628   7.571  0.2674  0.0463  0.0054
  907YOPE   C4A13308   8.958  10.247   7.740 -0.2379 -0.1272 -0.0916
  907YOPE   C1B13309   8.834  11.430   6.890 -0.2286  0.2167 -0.0719
  907YOPE   C2B13310   8.787  11.511   7.296  0.2226 -0.2135  0.1809
  907YOPE   D3B13311   9.038  11.441   7.575  0.3126  0.0551  0.0357
  907YOPE   C4B13312   9.074  11.526   7.938 -0.0177 -0.0817 -0.1497
  908YOPE   NH313313   1.332   9.979   5.767  0.2437  0.3053  0.4304
  908YOPE   PO413314   0.883  10.063   5.722  0.0322  0.0544 -0.0144
  908YOPE   GL113315   0.961  10.082   6.119  0.2350  0.4490 -0.0825
  908YOPE   GL213316   1.111   9.841   6.250  0.1265 -0.2006 -0.3623
  908YOPE   C1A13317   1.029  10.268   6.533 -0.2575 -0.0286  0.1531
  908YOPE   D2A13318   0.695  10.448   6.802 -0.0003 -0.0392 -0.0324
  908YOPE   C3A13319   0.665  10.142   7.069  0.0174 -0.1083 -0.1588
  908YOPE   C4A13320   0.811   9.966   7.402  0.0639  0.0790  0.0399
  908YOPE   C1B13321   1.360   9.605   6.495  0.2895  0.3473  0.0816
  908YOPE   C2B13322   1.676   9.555   6.717 -0.0389  0.3900 -0.0802
  908YOPE   D3B13323   1.728   9.478   7.215  0.0591  0.0137  0.1748
  908YOPE   C4B13324   1.764   9.372   7.640  0.4869 -0.1450  0.2650
  909YOPE   NH313325   0.395  17.493   5.921  0.1227  0.3836  0.1446
  909YOPE   PO413326   0.687  17.460   6.034  0.1313 -0.5405  0.0700
  909YOPE   GL113327   0.533  17.670   6.389  0.1803 -0.0165  0.2771
  909YOPE   GL213328   0.443  17.919   6.379  0.1673 -0.1234 -0.1250
  909YOPE   C1A13329   0.682  17.691   6.850 -0.4809  0.2213  0.0014
  909YOPE   D2A13330   0.853  17.800   7.254  0.1788  0.0337 -0.1987
  909YOPE   C3A13331   1.010  17.678   7.637  0.4021  0.1015 -0.0814
  909YOPE   C4A13332   1.230  17.782   7.954 -0.0022 -0.1694 -0.1725
  909YOPE   C1B13333   0.509  18.141   6.782  0.1146  0.0494  0.2049
  909YOPE   C2B13334   0.582  18.277   7.305 -0.0995  0.1129  0.0600
  909YOPE   D3B13335   0.908  18.217   7.680  0.0640  0.0003  0.1616
  909YOPE   C4B13336   1.145  18.211   8.109  0.0671 -0.0415 -0.2085
  910YOPE   NH313337   9.724  14.153   5.948 -0.4298 -0.0846  0.1507
  910YOPE   PO413338   9.996  13.806   6.008  0.1036 -0.1351 -0.0552
  910YOPE   GL113339  10.046  13.836   6.453 -0.0584 -0.1196  0.0624
  910YOPE   GL213340   9.821  14.040   6.574 -0.1120  0.1849 -0.2442
  910YOPE   C1A13341  10.034  13.689   6.901 -0.1062  0.1205 -0.1778
  910YOPE   D2A13342   9.950  13.709   7.348  0.1497  0.0143 -0.2004
  910YOPE   C3A13343  10.104  13.899   7.676  0.1203 -0.1129 -0.2109
  910YOPE   C4A13344  10.338  14.106   7.959 -0.0606  0.0622 -0.1362
  910YOPE   C1B13345   9.668  14.141   6.910  0.3312  0.0207 -0.1720
  910YOPE   C2B13346   9.585  13.974   7.369 -0.0622 -0.1095  0.1764
  910YOPE   D3B13347   9.621  14.086   7.884 -0.0572  0.0480 -0.1371
  910YOPE   C4B13348   9.648  14.262   8.257 -0.0287  0.2253  0.0512
  911YOPE   NH313349  12.595   2.453   5.819  0.2546  0.0851 -0.1172
  911YOPE   PO413350  12.781   2.099   5.717  0.1857 -0.2866  0.2291
  911YOPE   GL113351  12.944   2.236   6.102 -0.2262 -0.2937 -0.1851
  911YOPE   GL213352  12.940   2.051   6.421 -0.0432  0.0605 -0.2283
  911YOPE   C1A13353  13.103   2.608   6.508  0.0509 -0.0750 -0.1589
  911YOPE   D2A13354  13.023   2.619   6.855  0.0154 -0.2161 -0.0941
  911YOPE   C3A13355  13.150   2.333   7.047 -0.0917 -0.0018  0.0362
  911YOPE   C4A13356  13.381   2.175   7.338 -0.4261 -0.2298  0.0239
  911YOPE   C1B13357  12.741   1.847   6.733  0.1716 -0.0253 -0.3175
  911YOPE   C2B13358  12.676   1.718   7.164  0.1171  0.0163 -0.1322
  911YOPE   D3B13359  12.657   1.719   7.598  0.2053  0.2468 -0.0139
  911YOPE   C4B13360  12.374   1.622   7.933 -0.0714 -0.0719  0.2570
  912YOPE   NH313361  10.828   7.288   6.120  0.1860  0.0231 -0.2522
  912YOPE   PO413362  10.886   6.751   6.107  0.1220 -0.1847 -0.1137
  912YOPE   GL113363  10.982   6.630   6.612 -0.0212  0.0778  0.0140
  912YOPE   GL213364  10.696   6.730   6.876  0.0287 -0.4103  0.2367
  912YOPE   C1A13365  11.228   6.751   7.004 -0.1034 -0.0714 -0.0901
  912YOPE   D2A13366  11.158   6.739   7.468  0.1477  0.1397  0.2122
  912YOPE   C3A13367  10.839   6.828   7.675 -0.1882 -0.2169 -0.3312
  912YOPE   C4A13368  10.532   7.148   7.831  0.1973  0.0914 -0.0129
  912YOPE   C1B13369  10.562   6.468   7.181 -0.0464  0.0130 -0.4731
  912YOPE   C2B13370  10.544   6.193   7.577  0.2312 -0.2567 -0.2364
  912YOPE   D3B13371  10.810   5.868   7.867 -0.3216  0.0805 -0.0193
  912YOPE   C4B13372  10.950   6.074   8.243  0.1454 -0.0097 -0.5065
  913YOPE   NH313373  12.662   1.724   6.091 -0.2544 -0.0465 -0.0011
  913YOPE   PO413374  12.936   1.480   5.938 -0.0320 -0.0523  0.2522
  913YOPE   GL113375  13.060   1.554   6.404 -0.1667 -0.1596  0.0091
  913YOPE   GL213376  13.221   1.665   6.579  0.1659  0.3135 -0.3454
  913YOPE   C1A13377  12.947   1.438   6.877 -0.1209 -0.1894 -0.1926
  913YOPE   D2A13378  13.066   1.333   7.262  0.0501 -0.2072  0.0749
  913YOPE   C3A13379  12.822   1.233   7.577 -0.3920 -0.0858 -0.2321
  913YOPE   C4A13380  12.694   1.237   8.018 -0.0119 -0.0472  0.3426
  913YOPE   C1B13381  13.180   1.839   7.058  0.3036  0.2979  0.1065
  913YOPE   C2B13382  13.174   1.758   7.496  0.2071  0.3111  0.2026
  913YOPE   D3B13383  13.254   1.932   7.832 -0.3550 -0.0148  0.0416
  913YOPE   C4B13384  12.948   2.088   8.226  0.0762  0.2263  0.1697
  914YOPE   NH313385   6.399   4.997   6.096  0.0849 -0.2441  0.0056
  914YOPE   PO413386   6.056   4.672   6.125 -0.0635  0.1746 -0.0282
  914YOPE   GL113387   6.027   4.402   6.441 -0.2931 -0.1584 -0.1647
  914YOPE   GL213388   6.363   4.249   6.498  0.0251 -0.0664 -0.1480
  914YOPE   C1A13389   5.822   4.121   6.784  0.0205 -0.1029 -0.2626
  914YOPE   D2A13390   6.031   3.959   7.241  0.2296 -0.0702 -0.0113
  914YOPE   C3A13391   5.937   3.984   7.692 -0.1497 -0.0004  0.1960
  914YOPE   C4A13392   5.581   4.069   7.999 -0.0190  0.0700  0.0072
  914YOPE   C1B13393   6.738   4.512   6.705  0.3077  0.0704  0.0256
  914YOPE   C2B13394   7.135   4.561   6.688  0.1836  0.1342  0.3690
  914YOPE   D3B13395   7.569   4.533   6.664 -0.2484  0.1175 -0.0630
  914YOPE   C4B13396   7.806   4.188   6.826 -0.3128  0.4777 -0.0606
  915YOPE   NH313397  16.105   9.828   5.825  0.2621  0.0575 -0.1693
  915YOPE   PO413398  16.390  10.108   5.897  0.1103 -0.1175 -0.0709
  915YOPE   GL113399  16.509  10.002   6.312 -0.2859 -0.0068  0.3130
  915YOPE   GL213400  16.787  10.172   6.376 -0.0408 -0.2605 -0.1826
  915YOPE   C1A13401  16.405   9.953   6.744  0.0810 -0.0691  0.0035
  915YOPE   D2A13402  16.157   9.964   7.119  0.0158 -0.2397 -0.4658
  915YOPE   C3A13403  15.984   9.905   7.361  0.0093 -0.0604  0.0219
  915YOPE   C4A13404  16.088   9.901   7.759 -0.2803 -0.0514  0.0542
  915YOPE   C1B13405  16.812  10.219   6.877  0.3081 -0.2345 -0.0460
  915YOPE   C2B13406  16.549  10.327   7.195  0.1615  0.1331  0.1804
  915YOPE   D3B13407  16.271  10.341   7.582  0.0924  0.1691 -0.1917
  915YOPE   C4B13408  15.846  10.292   7.730 -0.0058 -0.0741 -0.0125
  916YOPE   NH313409   6.226  13.292   5.981 -0.1229  0.1118  0.1295
  916YOPE   PO413410   6.427  12.957   6.091  0.1293 -0.0701  0.1876
  916YOPE   GL113411   6.225  12.756   6.369 -0.0457 -0.2285 -0.1318
  916YOPE   GL213412   6.084  13.126   6.499 -0.0143  0.1641  0.0872
  916YOPE   C1A13413   6.184  12.738   6.805  0.1835  0.1839  0.1849
  916YOPE   D2A13414   5.952  12.666   7.251 -0.1280  0.0626 -0.1937
  916YOPE   C3A13415   6.085  12.996   7.631  0.2390  0.0830 -0.2466
  916YOPE   C4A13416   6.409  13.272   7.664  0.0543  0.1908  0.0712
  916YOPE   C1B13417   6.368  13.418   6.615  0.2940  0.0333 -0.0547
  916YOPE   C2B13418   6.224  13.790   6.749 -0.0648  0.2421  0.0571
  916YOPE   D3B13419   5.974  14.166   6.926  0.3728 -0.0181 -0.2202
  916YOPE   C4B13420   6.080  14.614   7.093 -0.5141  0.0615 -0.0785
  917YOPE   NH313421   3.516  16.816   6.178 -0.1586 -0.0833  0.0267
  917YOPE   PO413422   3.968  16.994   6.123  0.0891 -0.0382 -0.1475
  917YOPE   GL113423   3.675  17.043   6.540  0.0107 -0.1922 -0.3025
  917YOPE   GL213424   3.937  17.197   6.659  0.1912  0.1577  0.0414
  917YOPE   C1A13425   3.524  17.240   6.997 -0.0208 -0.3574 -0.0538
  917YOPE   D2A13426   3.369  17.486   7.320 -0.0891  0.1883  0.0088
  917YOPE   C3A13427   3.384  17.514   7.738  0.0043  0.0980  0.2018
  917YOPE   C4A13428   3.684  17.695   8.074 -0.0062 -0.1421 -0.0318
  917YOPE   C1B13429   3.980  16.883   7.025  0.3521  0.0533 -0.0261
  917YOPE   C2B13430   4.134  16.883   7.464 -0.0735  0.0132  0.0227
  917YOPE   D3B13431   4.314  16.973   7.864  0.2510  0.1967  0.2313
  917YOPE   C4B13432   4.468  17.187   8.269  0.1227  0.1350  0.0881
  918YOPE   NH313433   1.097   2.496   5.424 -0.0401  0.1353 -0.2093
  918YOPE   PO413434   1.206   2.096   5.406 -0.0467  0.0107 -0.0200
  918YOPE   GL113435   1.224   1.864   5.840 -0.0271 -0.1171  0.2064
  918YOPE   GL213436   1.416   1.677   5.951  0.3389  0.2129 -0.3200
  918YOPE   C1A13437   1.082   2.070   6.278  0.2335 -0.1035 -0.1243
  918YOPE   D2A13438   1.175   1.678   6.492 -0.3197 -0.1995 -0.1070
  918YOPE   C3A13439   1.572   1.740   6.762 -0.0890 -0.1885  0.1670
  918YOPE   C4A13440   1.642   1.503   7.166  0.0352 -0.0465  0.0440
  918YOPE   C1B13441   1.587   1.918   6.242 -0.0739 -0.1989 -0.0593
  918YOPE   C2B13442   1.826   2.102   6.587 -0.2880 -0.2582 -0.0635
  918YOPE   D3B13443   1.704   2.119   7.090  0.1146  0.1293 -0.1532
  918YOPE   C4B13444   1.818   2.271   7.528  0.1897 -0.1842 -0.0849
  919YOPE   NH313445   8.372   9.780   6.207  0.0484  0.0898  0.0426
  919YOPE   PO413446   8.379  10.216   6.315  0.2801  0.1230  0.2217
  919YOPE   GL113447   8.311  10.027   6.787 -0.0012 -0.2383  0.1697
  919YOPE   GL213448   8.484   9.789   6.714 -0.2130  0.3300 -0.0504
  919YOPE   C1A13449   8.337   9.921   7.221 -0.0550  0.0966 -0.0612
  919YOPE   D2A13450   8.461  10.017   7.642  0.0655 -0.2766  0.0448
  919YOPE   C3A13451   8.172   9.983   7.910  0.0032 -0.2394  0.2097
  919YOPE   C4A13452   7.933  10.139   8.294  0.0528 -0.1402  0.1474
  919YOPE   C1B13453   8.635   9.479   7.026  0.2046  0.1505  0.3787
  919YOPE   C2B13454   8.785   9.624   7.385  0.1209 -0.0533  0.0964
  919YOPE   D3B13455   8.894   9.643   7.839 -0.0605  0.0754  0.1425
  919YOPE   C4B13456   8.924   9.318   8.097  0.1141  0.0077  0.0771
  920YOPE   NH313457  10.728  11.620   6.223 -0.1936 -0.0697  0.5847
  920YOPE   PO413458  10.327  11.604   6.337  0.1385  0.2202 -0.0399
  920YOPE   GL113459  10.582  11.563   6.734 -0.0254 -0.0060  0.2443
  920YOPE   GL213460  10.905  11.416   6.709  0.0044  0.2914  0.2618
  920YOPE   C1A13461  10.716  11.790   7.131 -0.4593  0.0426  0.1705
  920YOPE   D2A13462  10.676  11.694   7.610 -0.0582 -0.1459 -0.3633
  920YOPE   C3A13463  10.775  11.888   7.996 -0.1358 -0.1032  0.4260
  920YOPE   C4A13464  10.853  12.262   8.264 -0.0598 -0.1177  0.1421
  920YOPE   C1B13465  11.058  11.443   7.146  0.0584 -0.1647 -0.1759
  920YOPE   C2B13466  11.241  11.498   7.548  0.0865  0.0002  0.1529
  920YOPE   D3B13467  11.364  11.478   7.946  0.1658 -0.1743 -0.2396
  920YOPE   C4B13468  11.058  11.408   8.376 -0.0824  0.1068 -0.0367
  921POPC   NC313469   3.799  14.871   6.288 -0.0005  0.0153  0.0371
  921POPC   PO413470   4.202  14.707   6.382 -0.4029  0.1165  0.1796
  921POPC   GL113471   3.926  14.575   6.754  0.2028 -0.2251  0.2973
  921POPC   GL213472   3.621  14.648   6.758 -0.1167  0.0072  0.2351
  921POPC   C1A13473   3.839  14.426   7.198  0.0809 -0.0176  0.0753
  921POPC   D2A13474   3.883  14.668   7.580  0.2065 -0.1861 -0.0143
  921POPC   C3A13475   4.176  14.979   7.716 -0.0125  0.2080  0.1138
  921POPC   C4A13476   4.155  15.358   7.733  0.1116  0.4216 -0.1107
  921POPC   C1B13477   3.514  14.881   7.127 -0.1862 -0.0242 -0.1034
  921POPC   C2B13478   3.385  14.744   7.546 -0.1433 -0.0483 -0.0099
  921POPC   C3B13479   3.369  14.962   8.036 -0.0516  0.5578  0.1077
  921POPC   C4B13480   3.106  15.135   8.172 -0.1680  0.2543 -0.1020
  922POPC   NC313481   5.514   3.691   5.776 -0.2898  0.0111  0.0791
  922POPC   PO413482   5.396   3.346   5.790 -0.2064 -0.0370  0.0927
  922POPC   GL113483   5.193   3.296   6.198 -0.2069  0.2705  0.0275
  922POPC   GL213484   5.362   3.519   6.443  0.0479 -0.3973  0.1418
  922POPC   C1A13485   5.008   3.138   6.652 -0.0921  0.1693 -0.1711
  922POPC   D2A13486   4.882   3.293   7.055  0.3197  0.1832  0.0050
  922POPC   C3A13487   4.684   3.379   7.400 -0.1648  0.0100  0.0020
  922POPC   C4A13488   4.565   3.640   7.814  0.2653 -0.2149  0.0413
  922POPC   C1B13489   5.264   3.497   6.859 -0.1410 -0.2337 -0.1171
  922POPC   C2B13490   4.969   3.782   6.995  0.0371  0.0832  0.1830
  922POPC   C3B13491   4.565   3.831   7.201  0.1180  0.3786 -0.1949
  922POPC   C4B13492   4.181   3.873   7.061 -0.1065  0.1566  0.1814
  923POPC   NC313493   1.945   7.062   5.676  0.3459  0.2715  0.5583
  923POPC   PO413494   2.034   6.616   5.543  0.2619 -0.0790 -0.0243
  923POPC   GL113495   1.758   6.593   5.961 -0.2279 -0.1265  0.3443
  923POPC   GL213496   2.102   6.739   6.087 -0.3009 -0.1553 -0.3323
  923POPC   C1A13497   1.701   6.425   6.392 -0.3463  0.2134 -0.0223
  923POPC   D2A13498   1.700   6.501   6.747 -0.0153  0.0313 -0.3126
  923POPC   C3A13499   1.842   6.590   7.076 -0.0543  0.2990  0.3504
  923POPC   C4A13500   1.880   6.617   7.542  0.0183 -0.1425 -0.1450
  923POPC   C1B13501   2.178   6.642   6.466  0.1122 -0.1193 -0.3867
  923POPC   C2B13502   2.306   6.654   6.913 -0.0130  0.2398 -0.1997
  923POPC   C3B13503   2.341   6.562   7.286  0.1672  0.0938 -0.0504
  923POPC   C4B13504   2.106   6.168   7.419 -0.0356 -0.1078  0.1537
  924POPC   NC313505   4.484  13.601   6.178 -0.0755 -0.1600 -0.1331
  924POPC   PO413506   4.925  13.494   6.127 -0.0841 -0.1339  0.1819
  924POPC   GL113507   4.948  13.511   6.620 -0.2436 -0.2800  0.0125
  924POPC   GL213508   4.644  13.396   6.652  0.1201 -0.3339  0.3320
  924POPC   C1A13509   4.943  13.603   7.018  0.2038 -0.0647  0.1806
  924POPC   D2A13510   4.813  13.752   7.426 -0.0353  0.5341 -0.1872
  924POPC   C3A13511   4.996  13.882   7.755 -0.2356  0.0307 -0.2280
  924POPC   C4A13512   5.035  13.928   8.148 -0.1140  0.3298 -0.3274
  924POPC   C1B13513   4.518  13.319   7.090  0.0797 -0.3102 -0.0294
  924POPC   C2B13514   4.504  13.120   7.499  0.0981  0.0487  0.0377
  924POPC   C3B13515   4.457  12.776   7.833  0.5336 -0.0517  0.0623
  924POPC   C4B13516   4.737  12.905   8.211 -0.1753  0.1588 -0.3635
  925POPC   NC313517   2.441  17.009   5.439  0.0492  0.0287  0.0361
  925POPC   PO413518   2.236  17.063   5.651  0.2054  0.1686 -0.2156
  925POPC   GL113519   2.264  17.034   6.067  0.2094 -0.2638  0.0851
  925POPC   GL213520   2.074  16.946   6.331  0.0652 -0.0958 -0.1313
  925POPC   C1A13521   2.550  17.281   6.341 -0.2017  0.1591 -0.0299
  925POPC   D2A13522   2.783  17.601   6.521  0.0322  0.0579  0.0290
  925POPC   C3A13523   2.558  18.068   6.555  0.0771  0.1051 -0.2129
  925POPC   C4A13524   2.644  18.445   6.601 -0.1060 -0.0996  0.1063
  925POPC   C1B13525   2.366  17.223   6.779  0.2123 -0.0755 -0.0421
  925POPC   C2B13526   2.474  17.722   6.932  0.4274 -0.0309 -0.0238
  925POPC   C3B13527   2.324  18.122   6.985  0.2547 -0.0416 -0.0506
  925POPC   C4B13528   2.268  18.277   7.336  0.2249  0.1208  0.1815
  926POPC   NC313529   7.102   5.583   6.293 -0.0168 -0.1252  0.2140
  926POPC   PO413530   7.492   5.478   6.215 -0.3073 -0.0952  0.0843
  926POPC   GL113531   7.492   5.341   6.625 -0.1173  0.5615  0.2356
  926POPC   GL213532   7.238   5.275   6.631 -0.2006  0.3911  0.2131
  926POPC   C1A13533   7.730   5.445   6.944  0.0336  0.0241  0.0311
  926POPC   D2A13534   8.025   5.328   7.094 -0.3740 -0.0180  0.0139
  926POPC   C3A13535   8.199   5.448   7.551  0.2710  0.0716 -0.2153
  926POPC   C4A13536   8.173   5.458   7.950 -0.1509  0.1429 -0.3376
  926POPC   C1B13537   7.319   5.168   7.066 -0.1616  0.2587 -0.0308
  926POPC   C2B13538   7.240   4.939   7.490 -0.0671 -0.1943 -0.0746
  926POPC   C3B13539   7.225   5.007   7.846 -0.0617 -0.5680 -0.0276
  926POPC   C4B13540   6.900   4.602   8.126  0.3737  0.1980  0.0350
  927POPC   NC313541  17.944   1.640   5.426 -0.2108  0.0419  0.1169
  927POPC   PO413542  17.477   1.724   5.325  0.0554  0.4265  0.1625
  927POPC   GL113543  17.371   1.511   5.609  0.0221 -0.1395 -0.0702
  927POPC   GL213544  17.630   1.236   5.629  0.1131 -0.3842 -0.2084
  927POPC   C1A13545  17.476   1.673   6.052 -0.0974  0.6670  0.1651
  927POPC   D2A13546  17.876   1.720   6.201  0.2972  0.0357  0.1366
  927POPC   C3A13547  17.950   1.450   6.480  0.5069  0.3222 -0.0120
  927POPC   C4A13548  18.033   1.156   6.758  0.1702  0.2998  0.0627
  927POPC   C1B13549  17.872   1.139   5.978 -0.4671 -0.1350  0.1728
  927POPC   C2B13550  17.730   0.945   6.336 -0.3268  0.0099 -0.0501
  927POPC   C3B13551  17.609   0.812   6.696 -0.1637 -0.0619 -0.0189
  927POPC   C4B13552  17.436   0.872   7.052  0.1586  0.1865  0.0144
  928POPC   NC313553   7.797   8.126   5.908  0.0712  0.0996  0.0488
  928POPC   PO413554   8.152   8.395   5.975  0.2862  0.2365 -0.0338
  928POPC   GL113555   7.998   8.375   6.347 -0.2409  0.1630  0.0408
  928POPC   GL213556   8.157   8.594   6.698 -0.3015  0.4149  0.0243
  928POPC   C1A13557   7.847   8.191   6.811 -0.0012  0.0429 -0.1208
  928POPC   D2A13558   7.445   8.468   7.129 -0.0264 -0.2912 -0.2702
  928POPC   C3A13559   7.134   8.497   6.928 -0.3717 -0.3001 -0.3645
  928POPC   C4A13560   6.989   8.499   6.480  0.0973  0.0478  0.2280
  928POPC   C1B13561   7.949   8.686   7.115  0.2194 -0.3398  0.2656
  928POPC   C2B13562   7.764   8.698   7.540 -0.0186 -0.1686  0.0795
  928POPC   C3B13563   7.527   8.825   8.017  0.1573 -0.0027 -0.3927
  928POPC   C4B13564   7.285   8.718   8.271 -0.3592  0.0414  0.1729
  929POPC   NC313565   3.848   8.124   5.789 -0.0265 -0.0095 -0.1317
  929POPC   PO413566   3.505   7.892   5.680 -0.0933 -0.1279  0.0354
  929POPC   GL113567   3.486   7.703   6.028 -0.2637 -0.0133 -0.0545
  929POPC   GL213568   3.456   7.293   5.935 -0.0195  0.0088 -0.0624
  929POPC   C1A13569   3.677   7.561   6.296  0.0699 -0.1133 -0.2342
  929POPC   D2A13570   3.694   7.294   6.589  0.1609  0.0572  0.2305
  929POPC   C3A13571   4.028   7.232   6.880  0.1405 -0.1373  0.0993
  929POPC   C4A13572   4.180   7.293   7.312  0.0725 -0.2796 -0.2380
  929POPC   C1B13573   3.226   7.314   6.332 -0.0119 -0.1403 -0.0490
  929POPC   C2B13574   2.876   7.298   6.464 -0.3368  0.1888  0.0678
  929POPC   C3B13575   2.830   7.655   6.684 -0.0496  0.0825 -0.2033
  929POPC   C4B13576   2.771   8.031   6.806  0.1159  0.0255  0.0901
  930POPC   NC313577  15.823   5.990   4.912  0.1213 -0.1949  0.2430
  930POPC   PO413578  15.479   5.899   5.223  0.1213  0.0817  0.1793
  930POPC   GL113579  15.597   6.044   5.613 -0.1546 -0.0444 -0.0973
  930POPC   GL213580  15.778   5.927   5.804  0.2512  0.1645 -0.1069
  930POPC   C1A13581  15.417   6.132   6.065 -0.3310  0.0613  0.1382
  930POPC   D2A13582  15.436   6.056   6.451 -0.0228 -0.2285  0.0460
  930POPC   C3A13583  15.145   6.276   6.791  0.3892  0.0201 -0.0209
  930POPC   C4A13584  15.091   6.116   7.204  0.1460  0.0072 -0.2685
  930POPC   C1B13585  15.858   5.816   6.171 -0.3013 -0.2109 -0.4811
  930POPC   C2B13586  16.244   5.835   6.556  0.3077 -0.0393  0.3684
  930POPC   C3B13587  16.318   5.977   6.881 -0.0335  0.1110 -0.2649
  930POPC   C4B13588  16.376   6.026   7.255  0.0115 -0.2244  0.2106
  931POPC   NC313589   3.808  17.915   5.632 -0.1500 -0.1964 -0.3509
  931POPC   PO413590   3.832  17.866   6.143  0.0883 -0.2090 -0.0116
  931POPC   GL113591   3.797  17.706   6.591  0.3074 -0.0135  0.3003
  931POPC   GL213592   4.076  17.828   6.641 -0.0214 -0.2114  0.0311
  931POPC   C1A13593   3.670  17.739   7.016 -0.4435 -0.0816 -0.0708
  931POPC   D2A13594   3.822  17.757   7.489  0.0523 -0.2847  0.0211
  931POPC   C3A13595   3.892  17.302   7.733  0.0290 -0.2329  0.2185
  931POPC   C4A13596   4.007  17.356   8.133  0.1508 -0.0748  0.1200
  931POPC   C1B13597   4.270  17.376   6.916 -0.2199 -0.0289 -0.2031
  931POPC   C2B13598   4.158  17.410   7.367 -0.2945 -0.0588 -0.2697
  931POPC   C3B13599   4.360  17.526   7.856  0.4366  0.0561 -0.0816
  931POPC   C4B13600   4.182  17.827   8.275  0.0269 -0.0010 -0.2356
  932POPC   NC313601  17.679   3.050   5.613 -0.0041  0.0056 -0.0383
  932POPC   PO413602  17.359   3.270   5.613  0.0118 -0.0149 -0.0770
  932POPC   GL113603  17.332   3.050   5.980 -0.2948 -0.0917 -0.0463
  932POPC   GL213604  17.276   3.277   6.174 -0.3346  0.1682 -0.0511
  932POPC   C1A13605  17.344   2.638   6.189 -0.1712 -0.0032 -0.0594
  932POPC   D2A13606  17.322   2.263   6.416  0.4088 -0.0639  0.0273
  932POPC   C3A13607  16.964   2.210   6.561 -0.0192  0.3006  0.0782
  932POPC   C4A13608  16.670   2.198   6.840 -0.0600 -0.2154  0.1987
  932POPC   C1B13609  17.231   3.293   6.585  0.2642  0.1986  0.1465
  932POPC   C2B13610  17.344   3.338   7.094  0.3609 -0.1275  0.1946
  932POPC   C3B13611  17.543   3.117   7.477 -0.1394 -0.0037  0.0803
  932POPC   C4B13612  17.955   3.074   7.499 -0.0166 -0.0575 -0.2079
  933POPC   NC313613  11.730   9.731   6.311 -0.1063  0.0826  0.0242
  933POPC   PO413614  11.633   9.306   6.486 -0.0749  0.1177  0.0322
  933POPC   GL113615  11.316   9.376   6.901 -0.3765  0.1306  0.0174
  933POPC   GL213616  11.380   9.498   7.209  0.0668  0.0020  0.2479
  933POPC   C1A13617  10.934   9.721   7.109 -0.0481  0.2139  0.2317
  933POPC   D2A13618  10.796   9.808   7.489 -0.4094  0.2537 -0.0645
  933POPC   C3A13619  10.751   9.562   7.875  0.2628 -0.0404 -0.0474
  933POPC   C4A13620  10.646   9.364   8.226 -0.2308  0.1694 -0.2258
  933POPC   C1B13621  11.601   9.603   7.593  0.2116 -0.0367 -0.0212
  933POPC   C2B13622  11.763   9.664   7.952  0.0325 -0.4061  0.0345
  933POPC   C3B13623  11.957   9.756   8.212 -0.1187  0.0022  0.2871
  933POPC   C4B13624  12.386   9.717   8.366  0.2930 -0.4049 -0.1866
  934POPC   NC313625   1.874  17.418   5.842  0.0941  0.0773  0.1620
  934POPC   PO413626   2.000  17.676   5.647  0.1498 -0.1471 -0.4947
  934POPC   GL113627   2.164  17.854   6.002  0.1116  0.0356 -0.3470
  934POPC   GL213628   2.211  18.115   6.098 -0.2867 -0.1881 -0.0375
  934POPC   C1A13629   2.057  17.920   6.532 -0.0647  0.0481 -0.4179
  934POPC   D2A13630   1.914  17.748   7.117  0.0303  0.0548 -0.2286
  934POPC   C3A13631   2.145  17.574   7.319 -0.0276 -0.2044 -0.2285
  934POPC   C4A13632   2.176  17.397   7.745  0.0772 -0.2769  0.1533
  934POPC   C1B13633   2.183  18.412   6.364  0.3152  0.1295 -0.0165
  934POPC   C2B13634   2.287  18.689   6.779  0.0193  0.1764  0.3977
  934POPC   C3B13635   2.129  18.741   7.142  0.1896  0.1729 -0.0583
  934POPC   C4B13636   2.072  18.615   7.565  0.1693  0.1216 -0.1567
  935POPC   NC313637  14.773  15.673   6.121  0.4035  0.1769  0.1181
  935POPC   PO413638  14.457  15.440   6.107  0.1111  0.2269 -0.1736
  935POPC   GL113639  14.280  15.321   6.473 -0.1092  0.3234 -0.0966
  935POPC   GL213640  14.304  15.020   6.695  0.0076 -0.0233  0.2678
  935POPC   C1A13641  14.243  15.410   6.920  0.1989  0.1670  0.2497
  935POPC   D2A13642  14.162  15.175   7.292  0.0647 -0.0830 -0.0571
  935POPC   C3A13643  14.078  15.096   7.655 -0.1227 -0.2310  0.1985
  935POPC   C4A13644  14.060  15.423   7.917  0.1195 -0.1175 -0.0209
  935POPC   C1B13645  14.625  15.042   7.000  0.3378  0.2549 -0.1012
  935POPC   C2B13646  14.949  14.984   7.177 -0.1869 -0.0007 -0.0691
  935POPC   C3B13647  15.124  14.603   7.394  0.1346 -0.0037  0.1068
  935POPC   C4B13648  15.441  14.565   7.656 -0.1354  0.0249  0.2965
  936POPC   NC313649   4.408   3.825   5.765  0.1269 -0.2205  0.1548
  936POPC   PO413650   4.434   3.296   5.665 -0.2382 -0.2109 -0.1474
  936POPC   GL113651   4.605   3.220   6.144  0.1937  0.0577  0.2185
  936POPC   GL213652   4.599   2.825   6.196  0.0702 -0.0984  0.0730
  936POPC   C1A13653   4.527   3.242   6.438  0.1527  0.1218  0.0984
  936POPC   D2A13654   4.459   3.432   6.841  0.0031 -0.0863 -0.1325
  936POPC   C3A13655   4.323   3.125   7.106 -0.1470 -0.0236  0.3309
  936POPC   C4A13656   4.248   3.103   7.557 -0.1687  0.0266 -0.1169
  936POPC   C1B13657   4.627   2.412   6.240 -0.1742 -0.0541 -0.1961
  936POPC   C2B13658   4.354   2.222   6.479  0.2589 -0.0868 -0.4407
  936POPC   C3B13659   4.157   2.064   6.728  0.1373 -0.1819 -0.3980
  936POPC   C4B13660   4.260   2.088   7.177 -0.0202 -0.0863 -0.2170
  937POPC   NC313661  14.662  15.031   6.073  0.0291  0.2190 -0.2208
  937POPC   PO413662  15.073  15.094   5.934  0.1291  0.1862  0.2569
  937POPC   GL113663  15.066  15.228   6.303  0.0338  0.1333 -0.0838
  937POPC   GL213664  14.774  15.180   6.548  0.1618 -0.0732  0.2770
  937POPC   C1A13665  15.163  15.070   6.756 -0.0135 -0.2304  0.1510
  937POPC   D2A13666  15.401  15.103   7.181 -0.1768 -0.2380 -0.3373
  937POPC   C3A13667  15.234  15.060   7.685  0.0263 -0.0106 -0.0581
  937POPC   C4A13668  15.190  15.166   8.049  0.0507 -0.0019 -0.2522
  937POPC   C1B13669  14.660  15.497   6.772  0.1623  0.0892  0.0188
  937POPC   C2B13670  14.568  15.786   6.983  0.4046  0.1671 -0.0604
  937POPC   C3B13671  14.167  15.949   6.997  0.2065  0.0483 -0.0971
  937POPC   C4B13672  13.758  15.948   6.722  0.0589 -0.3104 -0.0956
  938POPC   NC313673  13.564   3.158   5.667 -0.1111  0.0294  0.1017
  938POPC   PO413674  13.909   3.129   6.031  0.0245 -0.1790  0.0560
  938POPC   GL113675  14.185   3.165   6.456 -0.2178  0.0324  0.2418
  938POPC   GL213676  13.962   2.919   6.466  0.2287  0.1239 -0.2439
  938POPC   C1A13677  14.355   3.294   6.864 -0.1691  0.1945 -0.3536
  938POPC   D2A13678  14.534   3.323   7.290 -0.3572 -0.0495 -0.0376
  938POPC   C3A13679  14.320   3.516   7.591 -0.0494  0.1018  0.0609
  938POPC   C4A13680  14.414   3.907   7.743 -0.2822 -0.1541 -0.0937
  938POPC   C1B13681  14.034   2.768   6.898  0.0207  0.1081 -0.1660
  938POPC   C2B13682  14.299   2.839   7.265  0.0803  0.2037  0.0344
  938POPC   C3B13683  14.592   2.925   7.620  0.0859  0.0740 -0.3645
  938POPC   C4B13684  14.944   3.175   7.531 -0.3472 -0.0701  0.0901
  939POPC   NC313685  12.346  14.276   6.344  0.1748  0.0850  0.0277
  939POPC   PO413686  11.862  14.215   6.437  0.0161 -0.1546  0.1624
  939POPC   GL113687  12.094  14.452   6.738 -0.1079  0.0251  0.0353
  939POPC   GL213688  12.218  14.226   6.845 -0.1058 -0.0787  0.0753
  939POPC   C1A13689  12.338  14.598   7.223 -0.1017 -0.2463 -0.0736
  939POPC   D2A13690  12.609  14.624   7.679  0.1945  0.2580  0.3337
  939POPC   C3A13691  12.352  14.658   8.007  0.0580  0.1604 -0.1830
  939POPC   C4A13692  11.970  14.579   8.210  0.0689 -0.0882 -0.0521
  939POPC   C1B13693  12.293  14.075   7.263 -0.1010  0.5367  0.2101
  939POPC   C2B13694  12.417  13.804   7.592  0.0194 -0.0116  0.2868
  939POPC   C3B13695  12.462  13.705   8.027 -0.1605  0.1089  0.0306
  939POPC   C4B13696  12.568  13.439   8.250  0.0100  0.0821  0.0913
  940POPC   NC313697   2.144   1.043   5.605 -0.2573 -0.2025 -0.0313
  940POPC   PO413698   2.497   0.966   5.602 -0.4597  0.0398 -0.2306
  940POPC   GL113699   2.429   0.813   5.977 -0.0966  0.0398  0.0084
  940POPC   GL213700   2.703   1.059   6.065 -0.0386 -0.2587  0.1320
  940POPC   C1A13701   2.450   0.790   6.420  0.0496 -0.2371  0.1393
  940POPC   D2A13702   2.441   1.004   6.981 -0.0977  0.1058 -0.0788
  940POPC   C3A13703   2.587   0.896   7.309  0.0602  0.2411 -0.2099
  940POPC   C4A13704   2.685   1.291   7.493 -0.2670  0.0353  0.2166
  940POPC   C1B13705   2.859   1.110   6.523  0.0562 -0.0695  0.0249
  940POPC   C2B13706   2.807   0.742   6.794 -0.0920  0.1947 -0.2787
  940POPC   C3B13707   2.678   0.406   7.106  0.1764  0.3735  0.4438
  940POPC   C4B13708   2.675   0.404   7.559  0.2786 -0.0330  0.4516
  941POPC   NC313709   1.662  18.119   5.990 -0.0352 -0.1026  0.2902
  941POPC   PO413710   1.216  18.065   6.011 -0.0724  0.0293 -0.1273
  941POPC   GL113711   1.180  18.426   6.369 -0.0090 -0.0664  0.3097
  941POPC   GL213712   0.862  18.361   6.405 -0.0357 -0.0916  0.1656
  941POPC   C1A13713   1.409  18.688   6.716  0.0697 -0.6044 -0.0630
  941POPC   D2A13714   1.396  18.794   7.091 -0.0195  0.0498  0.0908
  941POPC   C3A13715   1.657  18.836   7.416  0.2493  0.0165 -0.2063
  941POPC   C4A13716   1.851  18.908   7.911  0.1240  0.1099 -0.2688
  941POPC   C1B13717   0.664  18.611   6.507  0.0385 -0.1711  0.3132
  941POPC   C2B13718   0.524  18.603   6.929  0.0774  0.1576  0.0801
  941POPC   C3B13719   0.189  18.611   7.295 -0.1448  0.1727 -0.1119
  941POPC   C4B13720  -0.157  18.734   7.533 -0.0091  0.0036  0.1632
  942POPC   NC313721  12.331  16.183   6.100 -0.0901  0.0359 -0.0325
  942POPC   PO413722  12.473  16.072   6.433  0.2420 -0.2848  0.2537
  942POPC   GL113723  12.601  16.093   6.796 -0.0255  0.2537  0.1245
  942POPC   GL213724  12.966  15.923   6.797  0.0939 -0.2211 -0.0671
  942POPC   C1A13725  12.561  16.013   7.106  0.1846  0.0512 -0.3169
  942POPC   D2A13726  12.273  15.833   7.488 -0.2248 -0.1205  0.1826
  942POPC   C3A13727  12.179  15.426   7.533  0.0333 -0.2052 -0.2214
  942POPC   C4A13728  11.969  15.313   7.329  0.1163 -0.1026 -0.1343
  942POPC   C1B13729  13.050  16.125   7.271 -0.1412  0.0835  0.2431
  942POPC   C2B13730  13.367  16.368   7.460 -0.0253 -0.0995  0.1582
  942POPC   C3B13731  13.455  16.498   7.897 -0.0822  0.0575 -0.2237
  942POPC   C4B13732  13.637  16.876   8.085  0.0914 -0.3336 -0.0372
  943POPC   NC313733  15.445  16.228   5.856  0.0700 -0.0525  0.0208
  943POPC   PO413734  15.094  16.046   6.112 -0.0793  0.1276 -0.1792
  943POPC   GL113735  15.338  16.089   6.287 -0.3439 -0.1322 -0.2154
  943POPC   GL213736  15.531  15.809   6.324  0.2404  0.0733  0.0982
  943POPC   C1A13737  15.622  16.379   6.534 -0.1542  0.0034  0.1194
  943POPC   D2A13738  15.581  16.676   6.887 -0.1114  0.4213  0.0473
  943POPC   C3A13739  15.479  16.577   7.308  0.0250  0.3151  0.0437
  943POPC   C4A13740  15.767  16.352   7.579 -0.1658  0.1785  0.3184
  943POPC   C1B13741  15.667  15.857   6.720  0.1471 -0.2818  0.0730
  943POPC   C2B13742  15.624  16.059   7.063 -0.1169  0.3022  0.0963
  943POPC   C3B13743  15.377  16.076   7.417 -0.1003  0.5013 -0.2083
  943POPC   C4B13744  14.967  16.062   7.532 -0.3607  0.0486 -0.1786
  944POPC   NC313745   8.492   2.116   5.633 -0.2483  0.2000 -0.1827
  944POPC   PO413746   8.538   1.794   5.937  0.0419 -0.1937  0.0964
  944POPC   GL113747   8.480   1.560   6.307  0.2473  0.0988 -0.0734
  944POPC   GL213748   8.782   1.562   6.423 -0.0171 -0.0876  0.4523
  944POPC   C1A13749   8.255   1.569   6.783 -0.1905 -0.2815 -0.0665
  944POPC   D2A13750   8.083   1.618   7.134  0.1893 -0.2694  0.0252
  944POPC   C3A13751   8.282   1.660   7.517  0.0426 -0.1604 -0.0593
  944POPC   C4A13752   8.543   1.955   7.713  0.2124  0.2910  0.0853
  944POPC   C1B13753   8.699   1.325   6.762  0.0027 -0.0673 -0.0380
  944POPC   C2B13754   8.551   1.362   7.168  0.0242 -0.1992 -0.0484
  944POPC   C3B13755   8.506   1.244   7.631  0.1025 -0.2263  0.0762
  944POPC   C4B13756   8.574   1.156   8.054 -0.1462 -0.0280 -0.0095
  945POPC   NC313757  12.944   0.249   5.856 -0.0561 -0.0728  0.5543
  945POPC   PO413758  13.223   0.540   6.092  0.1999 -0.2195 -0.5789
  945POPC   GL113759  13.267   0.781   6.475 -0.3249 -0.0598  0.0157
  945POPC   GL213760  13.289   1.148   6.502  0.0137 -0.2281  0.1103
  945POPC   C1A13761  13.460   0.608   6.797  0.5257 -0.2999  0.1008
  945POPC   D2A13762  13.627   0.489   7.128 -0.0893  0.0850 -0.3127
  945POPC   C3A13763  13.496   0.660   7.553  0.2166  0.2597 -0.1909
  945POPC   C4A13764  13.671   0.947   7.876  0.0050  0.0950 -0.0678
  945POPC   C1B13765  13.521   1.314   6.827  0.0346 -0.2123 -0.0942
  945POPC   C2B13766  13.586   1.600   7.164 -0.0755  0.3947 -0.3163
  945POPC   C3B13767  13.669   1.730   7.565 -0.0817 -0.0340  0.2878
  945POPC   C4B13768  13.714   1.463   7.904 -0.2288 -0.0356  0.0956
  946POPC   NC313769   2.989  14.526   6.067 -0.0105 -0.0377  0.0776
  946POPC   PO413770   2.555  14.618   6.087 -0.0853  0.0168  0.0843
  946POPC   GL113771   2.650  14.420   6.484 -0.0959 -0.0996  0.3722
  946POPC   GL213772   2.484  14.128   6.609 -0.1609  0.2129 -0.1097
  946POPC   C1A13773   2.576  14.631   6.839 -0.1251 -0.3259  0.1836
  946POPC   D2A13774   2.538  14.953   7.201 -0.0335  0.0747 -0.0727
  946POPC   C3A13775   2.279  15.029   7.580  0.2816  0.4067  0.1722
  946POPC   C4A13776   2.225  15.334   7.690 -0.2101  0.0258  0.1282
  946POPC   C1B13777   2.671  14.147   7.018  0.3188  0.2661  0.1035
  946POPC   C2B13778   2.617  14.329   7.382 -0.1044 -0.1434  0.3260
  946POPC   C3B13779   2.579  14.662   7.649  0.1674  0.1596 -0.2595
  946POPC   C4B13780   2.943  14.871   7.737  0.1143 -0.0277  0.0978
  947POPC   NC313781   5.212  17.684   6.047 -0.0675 -0.0217  0.1216
  947POPC   PO413782   5.396  17.886   6.390  0.1965  0.0422 -0.0033
  947POPC   GL113783   5.425  17.764   6.822  0.0267 -0.1479 -0.2362
  947POPC   GL213784   5.617  17.534   6.857  0.2006 -0.0670 -0.0737
  947POPC   C1A13785   5.080  17.543   7.072  0.0151  0.2158 -0.1625
  947POPC   D2A13786   4.691  17.515   7.262 -0.1456 -0.0839 -0.0108
  947POPC   C3A13787   4.598  17.265   7.506 -0.0063 -0.0301 -0.5243
  947POPC   C4A13788   4.634  16.809   7.498 -0.0539 -0.3196  0.0337
  947POPC   C1B13789   5.968  17.315   7.157  0.0670  0.0273  0.1381
  947POPC   C2B13790   5.936  17.178   7.506  0.2203 -0.0038 -0.0144
  947POPC   C3B13791   5.661  17.393   7.739  0.2349  0.2685  0.0023
  947POPC   C4B13792   5.332  17.452   7.877  0.1280  0.0011 -0.1588
  948POPC   NC313793   8.245   8.681   5.561  0.2215  0.0930  0.0798
  948POPC   PO413794   7.805   8.758   5.717 -0.0982  0.0079 -0.1980
  948POPC   GL113795   7.606   8.611   6.177  0.1513 -0.1507  0.2713
  948POPC   GL213796   7.674   8.817   6.445  0.0293 -0.3349  0.3683
  948POPC   C1A13797   7.479   8.415   6.531  0.1385  0.1162  0.0162
  948POPC   D2A13798   7.329   8.085   6.726 -0.0938  0.0048 -0.2106
  948POPC   C3A13799   7.115   7.730   6.674  0.2509 -0.4052 -0.3074
  948POPC   C4A13800   7.330   7.398   6.707 -0.0843 -0.0883  0.0303
  948POPC   C1B13801   7.345   8.992   6.682 -0.0136  0.0050 -0.2617
  948POPC   C2B13802   7.291   8.935   7.133  0.1559  0.0362  0.0025
  948POPC   C3B13803   7.328   8.984   7.577 -0.2249  0.1102 -0.3134
  948POPC   C4B13804   7.307   9.375   7.915 -0.2564  0.2992  0.2911
  949POPC   NC313805   7.158   2.202   6.012  0.3762 -0.0057  0.3330
  949POPC   PO413806   6.816   2.419   6.108 -0.3299  0.1217 -0.2453
  949POPC   GL113807   6.863   2.308   6.531  0.0184  0.0667  0.2735
  949POPC   GL213808   6.634   2.530   6.688  0.0995  0.3619  0.0202
  949POPC   C1A13809   7.108   2.200   6.865 -0.0677  0.1243  0.0943
  949POPC   D2A13810   6.939   2.129   7.381 -0.0950 -0.0612  0.1866
  949POPC   C3A13811   6.612   2.420   7.542 -0.2212  0.0192  0.1430
  949POPC   C4A13812   6.402   2.373   7.965 -0.0882  0.1065 -0.0078
  949POPC   C1B13813   6.768   2.440   7.055 -0.0620 -0.0772 -0.4708
  949POPC   C2B13814   7.115   2.639   7.314 -0.1631 -0.0663  0.0360
  949POPC   C3B13815   7.434   2.646   7.685 -0.0289 -0.0982 -0.2066
  949POPC   C4B13816   7.313   2.720   8.110  0.0881 -0.1819  0.2403
  950POPC   NC313817   2.290   8.887   5.881 -0.2433  0.2142  0.1787
  950POPC   PO413818   1.936   9.131   5.843  0.0456 -0.0188  0.0290
  950POPC   GL113819   1.992   9.177   6.278  0.0628 -0.1537  0.1531
  950POPC   GL213820   2.148   8.924   6.364  0.0522 -0.2601  0.4903
  950POPC   C1A13821   2.233   9.362   6.679 -0.0631  0.0149  0.1852
  950POPC   D2A13822   2.202   9.345   7.141 -0.2452  0.1707  0.0934
  950POPC   C3A13823   2.156   9.726   7.409 -0.0281  0.0785  0.1058
  950POPC   C4A13824   2.037   9.758   7.817 -0.1283 -0.0840 -0.1747
  950POPC   C1B13825   1.968   8.946   6.699  0.1995 -0.1553  0.0198
  950POPC   C2B13826   1.830   8.951   7.185  0.0431  0.2510 -0.0875
  950POPC   C3B13827   1.659   8.919   7.610  0.2329 -0.2413  0.3048
  950POPC   C4B13828   1.454   9.031   7.982 -0.2899  0.0208 -0.1147
  951POPC   NC313829   0.172   7.678   4.940 -0.3400 -0.0823  0.1463
  951POPC   PO413830   0.273   7.321   5.241 -0.1601  0.0757  0.1928
  951POPC   GL113831   0.096   7.318   5.716  0.0793 -0.1858 -0.2216
  951POPC   GL213832  -0.139   7.341   5.864  0.2500  0.0308  0.1038
  951POPC   C1A13833   0.322   7.237   6.053  0.4198 -0.2313 -0.0751
  951POPC   D2A13834   0.391   7.251   6.504 -0.1989 -0.0561 -0.2663
  951POPC   C3A13835   0.472   7.169   6.894  0.1691  0.2388 -0.0719
  951POPC   C4A13836   0.208   7.039   7.136 -0.2002 -0.0061  0.1657
  951POPC   C1B13837  -0.110   7.334   6.304 -0.0601 -0.1106  0.0549
  951POPC   C2B13838   0.015   7.286   6.728 -0.0950  0.0399  0.1238
  951POPC   C3B13839  -0.289   7.081   7.004 -0.0136  0.0107  0.1284
  951POPC   C4B13840  -0.699   6.956   7.020 -0.0683  0.0853  0.2680
  952POPC   NC313841  10.743  12.429   6.185  0.1364 -0.2026  0.0521
  952POPC   PO413842  10.221  12.488   6.266 -0.0922 -0.0317 -0.0549
  952POPC   GL113843  10.172  12.456   6.812  0.2734 -0.4092  0.0651
  952POPC   GL213844  10.156  12.235   7.018  0.0628 -0.0097 -0.2097
  952POPC   C1A13845  10.306  12.719   7.164  0.1093 -0.0558  0.2078
  952POPC   D2A13846  10.416  12.913   7.466  0.1478  0.3012  0.4726
  952POPC   C3A13847  10.407  12.960   7.786 -0.0962 -0.1336 -0.0105
  952POPC   C4A13848  10.386  12.954   8.248  0.2216 -0.0439 -0.2425
  952POPC   C1B13849  10.343  11.979   7.311 -0.1954  0.1968  0.1035
  952POPC   C2B13850  10.157  12.006   7.852  0.2218 -0.1230  0.1627
  952POPC   C3B13851  10.348  12.037   8.298 -0.1141 -0.1273  0.0458
  952POPC   C4B13852  10.675  11.924   8.573 -0.0283  0.1395  0.2061
  953POPC   NC313853  12.323   3.295   5.902  0.3675  0.1094 -0.0460
  953POPC   PO413854  12.664   3.078   5.831  0.0049  0.1773 -0.1370
  953POPC   GL113855  12.626   2.995   6.285  0.1823 -0.1405  0.1130
  953POPC   GL213856  12.931   3.072   6.443 -0.2832 -0.1362 -0.2626
  953POPC   C1A13857  12.564   2.871   6.763  0.1340  0.2779 -0.0744
  953POPC   D2A13858  12.368   2.739   7.209 -0.1943  0.4354  0.1900
  953POPC   C3A13859  12.348   2.744   7.699  0.0315  0.1018 -0.0944
  953POPC   C4A13860  12.246   3.046   8.008  0.3596 -0.1600  0.0909
  953POPC   C1B13861  13.048   3.088   6.897  0.1243  0.0571  0.1086
  953POPC   C2B13862  12.897   2.968   7.212  0.1120  0.2599  0.2377
  953POPC   C3B13863  12.828   2.589   7.409  0.3084  0.1637  0.2904
  953POPC   C4B13864  12.894   2.181   7.538 -0.0922 -0.0615  0.0745
  954POPC   NC313865   3.051   8.007   5.446  0.0826  0.1518  0.0730
  954POPC   PO413866   3.109   7.566   5.606  0.0249 -0.0481 -0.1894
  954POPC   GL113867   2.954   7.699   6.006 -0.0359 -0.1129 -0.1695
  954POPC   GL213868   2.629   7.558   6.092 -0.1235 -0.0458  0.2441
  954POPC   C1A13869   3.209   7.864   6.427 -0.2638 -0.0127 -0.3231
  954POPC   D2A13870   3.529   7.806   6.665  0.0370  0.3064 -0.1596
  954POPC   C3A13871   3.662   7.527   7.024  0.2607  0.2215 -0.0382
  954POPC   C4A13872   3.571   7.464   7.432  0.0313 -0.0860 -0.0119
  954POPC   C1B13873   2.364   7.484   6.435  0.1258 -0.0352  0.3525
  954POPC   C2B13874   2.257   7.628   6.810  0.2074  0.1080 -0.2906
  954POPC   C3B13875   2.383   7.522   7.226 -0.0928  0.1081  0.0762
  954POPC   C4B13876   2.590   7.283   7.583 -0.0212 -0.3375 -0.0081
  955POPC   NC313877   5.271  14.229   6.087 -0.0707 -0.0599  0.0613
  955POPC   PO413878   4.865  14.459   6.235 -0.3645 -0.0748 -0.2010
  955POPC   GL113879   4.649  14.509   6.594 -0.1395 -0.2751 -0.0601
  955POPC   GL213880   4.835  14.656   6.868 -0.1680  0.0283 -0.1359
  955POPC   C1A13881   4.340  14.364   6.925 -0.1789 -0.0701  0.2095
  955POPC   D2A13882   4.292  14.107   7.363 -0.1159 -0.0509  0.2942
  955POPC   C3A13883   4.463  14.045   7.755  0.0496  0.0051  0.3333
  955POPC   C4A13884   4.574  14.149   8.138  0.0459 -0.1346 -0.1478
  955POPC   C1B13885   5.199  14.688   7.200  0.1733  0.0861  0.1841
  955POPC   C2B13886   5.270  14.743   7.579  0.0119 -0.0729  0.0394
  955POPC   C3B13887   5.070  15.046   7.849  0.1799  0.2380  0.0582
  955POPC   C4B13888   5.049  15.382   8.118 -0.2224 -0.1518  0.0116
  956POPC   NC313889   6.579   8.285   5.681  0.2331 -0.1023  0.1711
  956POPC   PO413890   6.401   7.956   5.795  0.2649 -0.2062 -0.0342
  956POPC   GL113891   6.167   7.963   6.186 -0.1122 -0.0288 -0.1133
  956POPC   GL213892   5.867   7.932   6.416 -0.1824  0.3125  0.1536
  956POPC   C1A13893   6.397   7.856   6.578 -0.0127  0.0539  0.0606
  956POPC   D2A13894   6.296   7.906   7.100 -0.0407  0.0064 -0.1500
  956POPC   C3A13895   5.830   8.103   7.298 -0.2138  0.0837  0.3831
  956POPC   C4A13896   5.569   8.391   7.672  0.0566 -0.0622  0.0356
  956POPC   C1B13897   5.808   7.874   6.821  0.1394 -0.0697 -0.0285
  956POPC   C2B13898   5.678   7.572   7.166  0.2777  0.1777 -0.1305
  956POPC   C3B13899   5.476   7.261   7.502  0.0293 -0.1467  0.0492
  956POPC   C4B13900   5.617   7.128   7.917  0.1320 -0.0609  0.3480
  957POPC   NC313901   4.634  12.039   6.437  0.0115  0.0205  0.0343
  957POPC   PO413902   5.087  11.976   6.289 -0.3111 -0.0224 -0.0210
  957POPC   GL113903   5.385  11.767   6.627 -0.0386 -0.2017 -0.0317
  957POPC   GL213904   5.288  11.415   6.680  0.1345  0.0864 -0.3614
  957POPC   C1A13905   5.770  11.578   6.580 -0.2440  0.1735 -0.1104
  957POPC   D2A13906   6.093  11.553   6.452 -0.0648  0.2806 -0.1307
  957POPC   C3A13907   6.257  11.389   6.772 -0.1812  0.2005  0.3197
  957POPC   C4A13908   6.554  11.369   7.033  0.1472 -0.0889 -0.1056
  957POPC   C1B13909   5.175  11.381   7.045 -0.0924 -0.3309 -0.0555
  957POPC   C2B13910   5.234  11.572   7.519  0.0373 -0.2364  0.0444
  957POPC   C3B13911   5.047  11.415   7.993 -0.0361  0.0535  0.1558
  957POPC   C4B13912   5.117  11.385   8.436  0.0623 -0.1321 -0.3977
  958POPC   NC313913   1.284  11.794   6.193 -0.0036  0.0040  0.2699
  958POPC   PO413914   0.833  11.890   6.219 -0.0985  0.2062 -0.3474
  958POPC   GL113915   0.920  11.550   6.507  0.1669 -0.0934 -0.0559
  958POPC   GL213916   0.851  11.294   6.484  0.1061  0.0132  0.2331
  958POPC   C1A13917   0.822  11.407   6.981 -0.0639 -0.0930 -0.0015
  958POPC   D2A13918   0.954  11.329   7.372  0.1485  0.0950 -0.0547
  958POPC   C3A13919   0.806  11.301   7.789  0.0107 -0.2018 -0.4094
  958POPC   C4A13920   0.933  11.539   8.164  0.0895  0.4845  0.1981
  958POPC   C1B13921   0.840  10.910   6.735 -0.0796  0.0944  0.1778
  958POPC   C2B13922   0.748  10.856   7.153 -0.1747 -0.1264  0.1114
  958POPC   C3B13923   0.685  10.962   7.490  0.3700  0.2586 -0.1973
  958POPC   C4B13924   0.508  10.933   7.788  0.0196  0.2004 -0.3829
  959POPC   NC313925  11.583  13.721   6.307  0.1528 -0.1820  0.0623
  959POPC   PO413926  11.295  13.490   6.183 -0.1784 -0.2708  0.2387
  959POPC   GL113927  11.400  13.276   6.624  0.2224 -0.0956 -0.1239
  959POPC   GL213928  11.641  13.465   6.716  0.5519 -0.1470  0.3577
  959POPC   C1A13929  11.426  13.517   7.121 -0.2498  0.2586 -0.1452
  959POPC   D2A13930  11.589  13.410   7.565  0.0471  0.0885 -0.3779
  959POPC   C3A13931  11.325  13.258   7.808 -0.3323 -0.1997 -0.1339
  959POPC   C4A13932  11.247  13.177   8.270  0.1806 -0.3058 -0.0895
  959POPC   C1B13933  11.942  13.144   6.541  0.1461 -0.0806  0.0394
  959POPC   C2B13934  11.836  12.692   6.499 -0.3524  0.4506  0.0500
  959POPC   C3B13935  12.018  12.286   6.731 -0.0190  0.1074 -0.1127
  959POPC   C4B13936  12.227  12.421   7.135  0.2404 -0.2197 -0.1096
  960POPC   NC313937  13.108   4.312   6.242  0.0041 -0.1067 -0.0201
  960POPC   PO413938  13.425   4.368   5.895  0.0421  0.1504 -0.1203
  960POPC   GL113939  13.551   4.479   6.326  0.0807  0.0275 -0.0377
  960POPC   GL213940  13.836   4.607   6.383  0.0101  0.0909  0.1752
  960POPC   C1A13941  13.585   4.288   6.760 -0.4392 -0.0337  0.2486
  960POPC   D2A13942  13.812   4.375   7.142  0.0127  0.0429 -0.2489
  960POPC   C3A13943  13.867   4.659   7.544 -0.1141 -0.2581 -0.0356
  960POPC   C4A13944  13.777   4.988   7.898 -0.2783  0.1434 -0.0990
  960POPC   C1B13945  13.959   4.759   6.822  0.1186  0.0001 -0.2190
  960POPC   C2B13946  14.303   4.806   7.104  0.1517  0.0163  0.3011
  960POPC   C3B13947  14.677   4.599   7.283  0.0983  0.1213 -0.2318
  960POPC   C4B13948  14.783   4.191   7.271  0.1726 -0.0312 -0.1006
  961YOPC   NC313949   1.140   0.384   5.885  0.1095  0.1932  0.0778
  961YOPC   PO413950   0.671   0.257   5.928  0.3074 -0.1315 -0.0454
  961YOPC   GL113951   0.357   0.136   6.150  0.0958 -0.3388  0.0305
  961YOPC   GL213952  -0.080   0.198   6.030  0.1525  0.1343 -0.0227
  961YOPC   C1A13953   0.204   0.405   6.405  0.0171  0.1735 -0.4184
  961YOPC   D2A13954   0.100   0.719   6.762 -0.0757  0.1101 -0.1342
  961YOPC   C3A13955  -0.312   0.647   7.076  0.0090 -0.3147 -0.1127
  961YOPC   C4A13956  -0.419   0.968   7.459  0.1472 -0.1453 -0.0524
  961YOPC   C1B13957  -0.393   0.368   6.294  0.1159  0.2534  0.0371
  961YOPC   C2B13958  -0.609   0.315   6.728 -0.1984 -0.2124  0.1284
  961YOPC   D3B13959  -0.553   0.301   7.301  0.0406  0.0550 -0.0407
  961YOPC   C4B13960  -0.664   0.491   7.733 -0.4598  0.0267 -0.1684
  962YOPC   NC313961   0.274   3.017   5.482 -0.3072  0.1590 -0.4335
  962YOPC   PO413962  -0.036   3.131   5.710  0.2659 -0.0719  0.2661
  962YOPC   GL113963   0.075   3.243   6.050  0.0163 -0.0884  0.0569
  962YOPC   GL213964   0.407   3.442   5.935 -0.0813  0.2848 -0.0667
  962YOPC   C1A13965   0.109   3.053   6.425 -0.0991 -0.1977 -0.0801
  962YOPC   D2A13966  -0.079   2.761   6.696  0.0294  0.0130 -0.1039
  962YOPC   C3A13967  -0.094   2.730   7.110 -0.2442  0.0922  0.0137
  962YOPC   C4A13968  -0.221   2.575   7.516 -0.2696  0.2483 -0.2149
  962YOPC   C1B13969   0.173   3.817   5.904 -0.1624  0.0168 -0.0114
  962YOPC   C2B13970   0.055   4.120   6.256 -0.1955  0.0193  0.1024
  962YOPC   D3B13971  -0.301   4.126   6.550  0.0496 -0.0579  0.4460
  962YOPC   C4B13972  -0.240   3.938   6.948 -0.0010 -0.1293 -0.0235
  963YOPC   NC313973  17.983  10.439   5.751 -0.0822 -0.1117 -0.1701
  963YOPC   PO413974  17.696  10.213   6.122  0.0819  0.0555 -0.1545
  963YOPC   GL113975  17.417  10.362   6.460  0.0436 -0.0008 -0.3328
  963YOPC   GL213976  17.634  10.473   6.737  0.0996  0.2966 -0.0071
  963YOPC   C1A13977  17.400  10.017   6.920  0.0636  0.3035 -0.0471
  963YOPC   D2A13978  17.327  10.022   7.393 -0.1084 -0.6375  0.2541
  963YOPC   C3A13979  17.387   9.658   7.551  0.2438  0.0668 -0.3187
  963YOPC   C4A13980  17.233   9.196   7.610  0.2127 -0.0080  0.2907
  963YOPC   C1B13981  17.453  10.855   6.971 -0.0406 -0.1837 -0.1022
  963YOPC   C2B13982  17.439  10.984   7.393 -0.1140  0.2508  0.0409
  963YOPC   D3B13983  17.699  10.795   7.647 -0.0827  0.2682  0.0593
  963YOPC   C4B13984  17.717  10.749   8.103  0.0296 -0.0145  0.1817
  964YOPC   NC313985  12.635  10.939   5.500 -0.1055  0.1611 -0.1049
  964YOPC   PO413986  12.567  11.178   5.948  0.2112 -0.4631  0.1741
  964YOPC   GL113987  12.403  11.188   6.352 -0.0608 -0.1085  0.1050
  964YOPC   GL213988  12.583  11.391   6.481  0.1840  0.0514 -0.1314
  964YOPC   C1A13989  12.162  10.939   6.646 -0.1697 -0.0040  0.2275
  964YOPC   D2A13990  12.316  10.741   6.972  0.0198  0.0144 -0.0875
  964YOPC   C3A13991  12.462  10.709   7.324 -0.1543  0.1908  0.2977
  964YOPC   C4A13992  12.658  10.734   7.763 -0.0880 -0.2240 -0.1993
  964YOPC   C1B13993  12.404  11.356   6.867 -0.1319  0.3443  0.0186
  964YOPC   C2B13994  12.407  11.213   7.377  0.1514  0.2181  0.2068
  964YOPC   D3B13995  12.625  11.475   7.684 -0.1563 -0.0882 -0.1009
  964YOPC   C4B13996  12.807  11.539   8.065  0.1144  0.0241 -0.1040
  965YOPC   NC313997   6.580  14.992   5.999  0.2210 -0.0576 -0.4305
  965YOPC   PO413998   6.820  15.144   6.351  0.1847 -0.1705 -0.0269
  965YOPC   GL113999   6.978  15.003   6.707 -0.1160  0.2386  0.2314
  965YOPC   GL214000   7.313  15.050   6.817 -0.0290 -0.0422  0.4137
  965YOPC   C1A14001   7.044  15.071   7.264  0.2916  0.3387 -0.0599
  965YOPC   D2A14002   7.190  15.060   7.666  0.0463  0.1008  0.0909
  965YOPC   C3A14003   7.457  14.770   7.674  0.0105  0.1573 -0.0884
  965YOPC   C4A14004   7.903  14.687   7.882  0.0610 -0.0173  0.0423
  965YOPC   C1B14005   7.568  15.069   7.241 -0.2396 -0.1560 -0.0347
  965YOPC   C2B14006   7.726  15.204   7.601 -0.2929  0.0491  0.2765
  965YOPC   D3B14007   7.691  15.150   7.983 -0.2075  0.0902 -0.1166
  965YOPC   C4B14008   7.735  15.157   8.349  0.7230  0.2355 -0.0948
  966YOPC   NC314009   1.280  16.073   5.562  0.1252 -0.2112 -0.2955
  966YOPC   PO414010   1.652  15.981   5.701  0.0199 -0.0035  0.0068
  966YOPC   GL114011   1.547  16.183   6.041 -0.1520  0.0215 -0.0991
  966YOPC   GL214012   1.712  16.001   6.317 -0.4025  0.0133 -0.0546
  966YOPC   C1A14013   1.233  16.272   6.239  0.4144 -0.0854  0.3413
  966YOPC   D2A14014   1.106  16.311   6.643  0.0109  0.1232  0.1155
  966YOPC   C3A14015   1.105  16.540   7.005  0.1355  0.0910 -0.1099
  966YOPC   C4A14016   0.946  16.433   7.448  0.1164 -0.0185 -0.1884
  966YOPC   C1B14017   1.532  16.077   6.676  0.1005  0.0099 -0.0725
  966YOPC   C2B14018   1.244  16.055   7.021  0.0566  0.1007 -0.0758
  966YOPC   D3B14019   1.347  16.048   7.458 -0.0661 -0.0946  0.1686
  966YOPC   C4B14020   1.074  16.168   7.854  0.1370  0.0041  0.0941
  967YOPC   NC314021   6.444   7.224   6.311 -0.1958  0.1587 -0.0010
  967YOPC   PO414022   6.859   7.114   6.242 -0.0442  0.0644 -0.0157
  967YOPC   GL114023   7.061   7.027   6.561  0.2884 -0.1871  0.1595
  967YOPC   GL214024   7.224   6.728   6.542 -0.2652 -0.0033 -0.4090
  967YOPC   C1A14025   6.905   7.139   7.013  0.3020  0.1294 -0.0523
  967YOPC   D2A14026   6.832   7.546   7.183 -0.0886 -0.0131  0.0383
  967YOPC   C3A14027   6.784   7.570   7.621  0.0986 -0.0869  0.1786
  967YOPC   C4A14028   6.706   7.663   8.028 -0.3077  0.1600 -0.3684
  967YOPC   C1B14029   7.165   6.489   6.936  0.2039  0.1303 -0.0332
  967YOPC   C2B14030   7.125   6.608   7.394 -0.2401  0.0043 -0.1424
  967YOPC   D3B14031   6.908   7.052   7.533  0.3564 -0.0762 -0.2928
  967YOPC   C4B14032   6.490   7.131   7.285  0.1158 -0.0124 -0.4063
  968YOPC   NC314033  15.042  10.452   5.585  0.2125  0.2918 -0.0478
  968YOPC   PO414034  15.052  10.783   5.971  0.0606 -0.4282  0.2545
  968YOPC   GL114035  15.259  10.550   6.348  0.5594 -0.0797  0.0586
  968YOPC   GL214036  15.353  10.703   6.708  0.0872 -0.0096 -0.3298
  968YOPC   C1A14037  15.193  10.216   6.543 -0.2312 -0.1112  0.0373
  968YOPC   D2A14038  14.939  10.011   6.780  0.3965  0.0728  0.2081
  968YOPC   C3A14039  14.547  10.132   6.653 -0.2553 -0.1284 -0.1072
  968YOPC   C4A14040  14.393  10.599   6.662  0.0761  0.3007 -0.1491
  968YOPC   C1B14041  15.411  10.496   6.992 -0.2488  0.1066  0.1206
  968YOPC   C2B14042  15.832  10.449   7.264  0.0007  0.0023  0.1111
  968YOPC   D3B14043  16.054  10.396   6.972  0.3360  0.0904  0.0149
  968YOPC   C4B14044  15.870  10.170   6.658 -0.0039 -0.0359  0.2642
  969YOPC   NC314045  16.076   0.351   5.437  0.1604 -0.2452 -0.0336
  969YOPC   PO414046  16.354   0.139   5.725 -0.0731 -0.1707  0.1538
  969YOPC   GL114047  16.763   0.009   5.905 -0.0418  0.1100  0.0531
  969YOPC   GL214048  16.827   0.214   6.124  0.5487 -0.0493  0.1757
  969YOPC   C1A14049  17.166  -0.162   6.227  0.0360  0.3104 -0.1260
  969YOPC   D2A14050  17.576  -0.134   6.436  0.2809  0.2274  0.2327
  969YOPC   C3A14051  17.720  -0.439   6.670 -0.0316 -0.1876 -0.0257
  969YOPC   C4A14052  17.885  -0.499   7.117  0.1764 -0.1083  0.2183
  969YOPC   C1B14053  16.701   0.547   6.379  0.0253 -0.1589  0.0869
  969YOPC   C2B14054  16.563   0.828   6.720 -0.3780  0.0792 -0.1203
  969YOPC   D3B14055  16.732   0.841   7.116  0.0096  0.0210  0.2381
  969YOPC   C4B14056  16.893   1.245   7.371 -0.1855 -0.1038 -0.2096
  970YOPC   NC314057   8.068  14.423   5.809  0.1593  0.1826 -0.2955
  970YOPC   PO414058   8.020  13.943   5.865 -0.0241 -0.0762  0.1553
  970YOPC   GL114059   8.195  13.798   6.261 -0.0284  0.1632 -0.0428
  970YOPC   GL214060   7.982  13.496   6.320 -0.2254  0.0018  0.0274
  970YOPC   C1A14061   8.413  14.039   6.576  0.1676  0.0459  0.1538
  970YOPC   D2A14062   8.472  13.884   7.001 -0.1184  0.1182 -0.0393
  970YOPC   C3A14063   8.347  14.135   7.395 -0.0581 -0.2980  0.2135
  970YOPC   C4A14064   8.222  14.448   7.610  0.0885 -0.1006 -0.1670
  970YOPC   C1B14065   8.301  13.543   6.644  0.0743 -0.0317 -0.2603
  970YOPC   C2B14066   8.783  13.650   6.680 -0.0621 -0.0958 -0.5384
  970YOPC   D3B14067   9.151  13.505   6.809  0.1990  0.2145 -0.1181
  970YOPC   C4B14068   9.516  13.688   6.942  0.1585  0.0913  0.1748
  971YOPC   NC314069   6.816   6.591   6.368  0.2795 -0.1259  0.1396
  971YOPC   PO414070   6.888   6.047   6.395  0.0740 -0.1668 -0.1557
  971YOPC   GL114071   7.320   6.079   6.628 -0.2314 -0.0105 -0.0559
  971YOPC   GL214072   7.359   5.795   6.676 -0.0084  0.5186 -0.1975
  971YOPC   C1A14073   7.862   5.957   6.822  0.1327  0.1327 -0.1823
  971YOPC   D2A14074   8.102   6.232   6.962  0.1862  0.2282  0.1138
  971YOPC   C3A14075   8.077   6.726   6.866  0.1373  0.0271 -0.0071
  971YOPC   C4A14076   8.263   7.148   6.821  0.0081 -0.2953  0.1383
  971YOPC   C1B14077   7.423   5.801   7.095 -0.0365  0.0972  0.1033
  971YOPC   C2B14078   7.827   5.918   7.328 -0.3308 -0.3126 -0.0346
  971YOPC   D3B14079   7.843   5.790   7.721 -0.2840  0.1553  0.3115
  971YOPC   C4B14080   7.657   5.455   8.010  0.4105  0.1414  0.1214
  972YOPC   NC314081   9.899   2.709   5.890 -0.1723  0.1535 -0.2131
  972YOPC   PO414082   9.474   2.703   6.056  0.2274  0.2002  0.0910
  972YOPC   GL114083   9.512   2.863   6.466 -0.0354  0.0265  0.0709
  972YOPC   GL214084   9.711   2.868   6.732  0.2512 -0.3326 -0.2039
  972YOPC   C1A14085   9.189   3.093   6.651 -0.0224  0.3115 -0.2694
  972YOPC   D2A14086   9.024   3.225   7.046  0.1681  0.0728  0.3456
  972YOPC   C3A14087   8.554   3.157   6.964 -0.0385  0.1203 -0.5630
  972YOPC   C4A14088   8.210   3.147   6.861  0.0651  0.0870  0.1216
  972YOPC   C1B14089   9.578   2.909   7.131  0.1390 -0.1647 -0.0332
  972YOPC   C2B14090   9.210   2.876   7.338  0.0383  0.2151  0.0616
  972YOPC   D3B14091   9.127   2.703   7.701 -0.0300 -0.2216 -0.0315
  972YOPC   C4B14092   8.835   2.352   7.747 -0.0730  0.0181 -0.0239
  973YOPC   NC314093   6.505   3.284   5.753 -0.1875  0.1034 -0.0952
  973YOPC   PO414094   6.760   3.498   6.077 -0.0837  0.0274  0.3311
  973YOPC   GL114095   6.520   3.517   6.549  0.1065  0.3968 -0.0867
  973YOPC   GL214096   6.770   3.489   6.862  0.1528  0.0490 -0.0837
  973YOPC   C1A14097   6.250   3.892   6.825  0.2059 -0.3631  0.3768
  973YOPC   D2A14098   6.410   4.252   7.077 -0.0303 -0.2230  0.0909
  973YOPC   C3A14099   6.786   4.274   7.212 -0.1285 -0.1888  0.0342
  973YOPC   C4A14100   7.119   4.596   7.171  0.1832  0.2986 -0.1050
  973YOPC   C1B14101   7.189   3.605   6.963  0.1473 -0.2851 -0.0836
  973YOPC   C2B14102   7.563   3.673   7.128 -0.0691 -0.2328 -0.0805
  973YOPC   D3B14103   7.582   3.552   7.577  0.0676 -0.0017 -0.0164
  973YOPC   C4B14104   7.846   3.551   7.804 -0.2887 -0.0378 -0.0477
  974YOPC   NC314105   3.401  12.502   5.806 -0.0785  0.1986  0.0979
  974YOPC   PO414106   2.996  12.321   6.124  0.0119  0.2553 -0.0077
  974YOPC   GL114107   2.887  12.380   6.560 -0.1097 -0.1596  0.1699
  974YOPC   GL214108   2.888  12.123   6.818 -0.0026 -0.0927  0.1419
  974YOPC   C1A14109   2.949  12.632   6.962 -0.3790  0.1323  0.1933
  974YOPC   D2A14110   2.822  12.697   7.371  0.0011  0.1965  0.0485
  974YOPC   C3A14111   2.441  12.507   7.664  0.0645  0.0613 -0.2001
  974YOPC   C4A14112   2.198  12.327   7.943  0.1496  0.0384 -0.0391
  974YOPC   C1B14113   2.366  12.088   6.801  0.0466  0.1108  0.2941
  974YOPC   C2B14114   1.888  12.014   6.910 -0.0419  0.1400 -0.0355
  974YOPC   D3B14115   1.754  11.860   7.250  0.1538 -0.2166  0.2790
  974YOPC   C4B14116   1.813  11.504   7.614  0.0756  0.1787 -0.2999
  975YOPC   NC314117   2.369   5.365   5.436 -0.0513 -0.3391 -0.0827
  975YOPC   PO414118   1.873   5.429   5.524  0.0384  0.2729  0.1405
  975YOPC   GL114119   1.819   5.303   5.912 -0.4156 -0.0150 -0.1337
  975YOPC   GL214120   1.653   5.465   6.076  0.2519 -0.1383  0.1437
  975YOPC   C1A14121   1.914   5.114   6.312 -0.3312 -0.0829  0.2234
  975YOPC   D2A14122   2.324   5.233   6.426 -0.3021  0.0946 -0.2049
  975YOPC   C3A14123   2.412   5.053   6.775  0.2477  0.1451  0.4068
  975YOPC   C4A14124   2.446   5.237   7.152  0.2354  0.2063 -0.1450
  975YOPC   C1B14125   1.384   5.211   6.282 -0.1152 -0.1748 -0.1053
  975YOPC   C2B14126   1.377   5.021   6.651  0.3762 -0.1181 -0.0736
  975YOPC   D3B14127   1.692   4.905   6.720  0.2127  0.1665  0.2727
  975YOPC   C4B14128   1.749   4.543   6.999 -0.0569  0.2429 -0.0400
  976YOPC   NC314129   8.414   4.415   6.223 -0.0120  0.0139  0.0642
  976YOPC   PO414130   8.745   4.305   6.011  0.0424  0.1706  0.0385
  976YOPC   GL114131   8.821   4.250   6.436 -0.1616  0.0863  0.2126
  976YOPC   GL214132   8.759   4.561   6.627 -0.3660  0.0035 -0.0809
  976YOPC   C1A14133   8.930   4.125   6.824  0.0471  0.0047 -0.2309
  976YOPC   D2A14134   9.099   3.755   6.908 -0.0121 -0.1123 -0.2838
  976YOPC   C3A14135   8.862   3.486   6.640  0.2010 -0.3214 -0.0519
  976YOPC   C4A14136   8.433   3.384   6.446  0.1353  0.0948 -0.2266
  976YOPC   C1B14137   8.855   4.828   7.001 -0.0546  0.1176 -0.1037
  976YOPC   C2B14138   9.001   5.228   7.043 -0.0135 -0.0659  0.1313
  976YOPC   D3B14139   9.349   5.201   6.860 -0.1477  0.0921 -0.2069
  976YOPC   C4B14140   9.560   5.243   6.517  0.0318 -0.2431 -0.2141
  977YOPC   NC314141   0.761  13.658   6.134 -0.0759 -0.2229  0.0134
  977YOPC   PO414142   1.121  14.006   6.376  0.2503  0.2332 -0.0766
  977YOPC   GL114143   0.916  14.021   6.716 -0.0257 -0.0067  0.2301
  977YOPC   GL214144   0.681  13.841   6.711 -0.2191 -0.0264  0.0013
  977YOPC   C1A14145   1.113  14.217   7.087  0.2624  0.0056 -0.1424
  977YOPC   D2A14146   1.241  14.218   7.521 -0.2621 -0.0939 -0.3076
  977YOPC   C3A14147   1.062  14.264   7.977 -0.2528  0.2067  0.0555
  977YOPC   C4A14148   1.372  14.108   8.326  0.1886  0.0788 -0.2047
  977YOPC   C1B14149   0.555  13.805   7.020 -0.0727 -0.2387 -0.1046
  977YOPC   C2B14150   0.292  13.888   7.316  0.0098  0.1628  0.0955
  977YOPC   D3B14151   0.203  14.218   7.521 -0.1998 -0.1912 -0.2270
  977YOPC   C4B14152  -0.026  14.436   7.825  0.0702  0.1238 -0.4710
  978YOPC   NC314153  15.272   2.599   4.801 -0.0310 -0.1274 -0.0973
  978YOPC   PO414154  15.502   2.764   5.183  0.1449 -0.1526 -0.3402
  978YOPC   GL114155  15.691   2.743   5.681  0.1100 -0.1309 -0.0796
  978YOPC   GL214156  15.844   2.441   5.599 -0.4669 -0.0646  0.0692
  978YOPC   C1A14157  15.756   2.973   6.108  0.0668 -0.2144  0.1948
  978YOPC   D2A14158  15.602   2.944   6.526 -0.3640  0.1517  0.1228
  978YOPC   C3A14159  15.799   2.799   6.966  0.3062  0.0173  0.1046
  978YOPC   C4A14160  15.799   2.421   7.205 -0.1141  0.4299  0.1897
  978YOPC   C1B14161  15.900   2.389   6.109 -0.1601 -0.0493  0.2108
  978YOPC   C2B14162  15.958   2.462   6.508 -0.1140  0.0918 -0.0691
  978YOPC   D3B14163  16.094   2.166   6.772  0.0655 -0.0925 -0.0547
  978YOPC   C4B14164  16.135   2.027   7.216 -0.0324 -0.1205 -0.1290
  979YOPC   NC314165   4.909   3.073   5.744  0.3266 -0.2836  0.0068
  979YOPC   PO414166   5.135   2.625   5.713 -0.1027 -0.1158 -0.1071
  979YOPC   GL114167   5.072   2.737   6.169  0.2215  0.0828 -0.0689
  979YOPC   GL214168   5.309   2.673   6.307 -0.2067 -0.0221  0.1415
  979YOPC   C1A14169   4.781   2.661   6.640 -0.3676 -0.2282  0.1913
  979YOPC   D2A14170   4.732   2.803   7.146  0.2414 -0.3354 -0.0973
  979YOPC   C3A14171   4.921   2.844   7.554  0.3510 -0.0278 -0.2225
  979YOPC   C4A14172   5.407   2.731   7.789 -0.1752 -0.1619 -0.1793
  979YOPC   C1B14173   5.282   2.613   6.805 -0.2038 -0.0895 -0.0472
  979YOPC   C2B14174   5.221   2.691   7.202  0.1983 -0.0479  0.1608
  979YOPC   D3B14175   5.183   2.433   7.461  0.1870  0.2398 -0.2430
  979YOPC   C4B14176   5.142   2.212   7.819 -0.1434 -0.0510  0.0532
  980YOPC   NC314177  11.526  17.108   5.834 -0.1238  0.0976 -0.0062
  980YOPC   PO414178  11.306  17.217   6.169  0.2810 -0.0478 -0.3074
  980YOPC   GL114179  11.218  17.052   6.474 -0.1519 -0.0649 -0.2957
  980YOPC   GL214180  10.876  17.161   6.477  0.0714  0.1252  0.1598
  980YOPC   C1A14181  11.117  16.858   6.875 -0.0139  0.0823 -0.0374
  980YOPC   D2A14182  11.261  16.832   7.235  0.3292 -0.2702  0.1509
  980YOPC   C3A14183  11.031  16.720   7.565 -0.1442 -0.2414 -0.3083
  980YOPC   C4A14184  10.981  16.423   7.940 -0.1214  0.0072 -0.3080
  980YOPC   C1B14185  10.804  17.512   6.882  0.0724 -0.1252  0.0067
  980YOPC   C2B14186  10.763  17.658   7.220 -0.1677 -0.0192 -0.3930
  980YOPC   D3B14187  10.768  18.106   7.372 -0.2583  0.2671 -0.0278
  980YOPC   C4B14188  10.490  18.293   7.662 -0.0457  0.4412 -0.2354
  981YOPC   NC314189  13.872   0.386   5.997 -0.0320 -0.0773  0.1270
  981YOPC   PO414190  14.107   0.786   5.907  0.2780  0.2552  0.1391
  981YOPC   GL114191  14.375   0.982   6.263  0.0532  0.0823  0.0498
  981YOPC   GL214192  14.290   1.324   6.427 -0.3129  0.0267  0.1169
  981YOPC   C1A14193  14.375   0.731   6.620  0.0648 -0.1636  0.0033
  981YOPC   D2A14194  14.484   0.805   7.075  0.0054 -0.1950 -0.0308
  981YOPC   C3A14195  14.446   0.603   7.387  0.6133 -0.1155  0.0232
  981YOPC   C4A14196  14.540   0.675   7.800  0.0214  0.2865  0.2326
  981YOPC   C1B14197  14.316   1.255   6.948  0.0585 -0.1757 -0.0048
  981YOPC   C2B14198  14.418   1.281   7.327  0.0484  0.1257  0.0499
  981YOPC   D3B14199  14.226   1.098   7.778 -0.1720  0.1740  0.1488
  981YOPC   C4B14200  14.407   1.072   8.145 -0.0960  0.0532  0.1957
  982YOPC   NC314201  12.470  10.238   6.183  0.0666 -0.1171  0.0354
  982YOPC   PO414202  12.379   9.816   6.268  0.0203  0.0210  0.0030
  982YOPC   GL114203  12.219   9.872   6.649  0.0935  0.0416 -0.1713
  982YOPC   GL214204  12.379  10.138   6.772 -0.1805  0.1407 -0.0396
  982YOPC   C1A14205  11.980  10.106   7.048 -0.1243 -0.1830 -0.1896
  982YOPC   D2A14206  12.031  10.446   7.374  0.0186 -0.1565  0.0390
  982YOPC   C3A14207  11.966  10.856   7.381  0.3602  0.0471 -0.0316
  982YOPC   C4A14208  11.957  11.227   7.035  0.1225 -0.1233 -0.0248
  982YOPC   C1B14209  12.465  10.231   7.191 -0.1125 -0.1003  0.2488
  982YOPC   C2B14210  12.410  10.270   7.688 -0.2718 -0.1180 -0.0401
  982YOPC   D3B14211  12.104  10.639   7.851  0.0309 -0.0083 -0.1929
  982YOPC   C4B14212  11.797  10.935   7.905  0.1651  0.0846  0.0828
  983YOPC   NC314213  15.082  13.173   6.230 -0.1582  0.0775  0.1335
  983YOPC   PO414214  15.295  12.904   6.112 -0.4739 -0.0717 -0.1295
  983YOPC   GL114215  15.361  12.936   6.549  0.1538  0.2948 -0.1319
  983YOPC   GL214216  15.283  12.701   6.708 -0.2891 -0.2303  0.0825
  983YOPC   C1A14217  15.720  12.866   6.803  0.1319  0.0573 -0.0409
  983YOPC   D2A14218  15.734  12.769   7.218  0.1326 -0.2188  0.0681
  983YOPC   C3A14219  16.023  12.886   7.567  0.0978  0.1720 -0.1456
  983YOPC   C4A14220  16.452  13.125   7.728  0.0859 -0.0880 -0.0999
  983YOPC   C1B14221  15.213  12.616   7.136 -0.2770 -0.0809 -0.0737
  983YOPC   C2B14222  15.038  12.774   7.612  0.0805 -0.4312 -0.0699
  983YOPC   D3B14223  15.040  12.757   8.019 -0.2071 -0.0933 -0.0261
  983YOPC   C4B14224  15.162  12.663   8.434 -0.0769 -0.1303 -0.0988
  984YOPC   NC314225   5.465  15.201   6.240 -0.1794  0.1859 -0.0306
  984YOPC   PO414226   5.761  15.484   6.185  0.1363  0.2470 -0.0334
  984YOPC   GL114227   5.810  15.358   6.566 -0.1283  0.1421  0.1102
  984YOPC   GL214228   5.546  15.390   6.711  0.0246 -0.0352 -0.3497
  984YOPC   C1A14229   5.998  15.573   6.986  0.0560 -0.0857  0.1741
  984YOPC   D2A14230   6.013  16.038   7.116 -0.1930  0.0440  0.2553
  984YOPC   C3A14231   6.050  16.123   7.443  0.0585 -0.2368  0.3862
  984YOPC   C4A14232   6.042  15.966   7.843  0.1414  0.0122 -0.0341
  984YOPC   C1B14233   5.513  15.564   7.064 -0.0682 -0.0048  0.0717
  984YOPC   C2B14234   5.507  15.977   7.258  0.2189  0.0473  0.2374
  984YOPC   D3B14235   5.583  16.062   7.577 -0.0569  0.2116  0.2350
  984YOPC   C4B14236   5.607  15.823   7.989  0.1776 -0.0299  0.3507
  985YOPC   NC314237   2.526   3.513   5.647  0.2672  0.0443 -0.0456
  985YOPC   PO414238   2.322   3.213   5.458  0.0908 -0.2711 -0.1238
  985YOPC   GL114239   2.268   3.162   5.879  0.5639 -0.2904  0.0441
  985YOPC   GL214240   2.201   3.416   6.087 -0.1690  0.0058  0.2511
  985YOPC   C1A14241   2.039   2.934   6.191 -0.3311 -0.0392 -0.1052
  985YOPC   D2A14242   2.024   2.628   6.502 -0.3184 -0.1458  0.0716
  985YOPC   C3A14243   1.754   2.636   6.774  0.0144  0.0233 -0.5404
  985YOPC   C4A14244   1.318   2.780   6.778  0.1181 -0.2267 -0.1801
  985YOPC   C1B14245   2.306   3.232   6.515  0.4465 -0.1410 -0.3123
  985YOPC   C2B14246   2.084   3.014   6.870  0.0297 -0.0389 -0.3536
  985YOPC   D3B14247   2.018   3.284   7.259  0.1648  0.0661 -0.1075
  985YOPC   C4B14248   2.238   3.252   7.651  0.1727 -0.1520  0.2050
  986YOPC   NC314249   6.900   9.417   6.090 -0.0728  0.0838  0.0615
  986YOPC   PO414250   6.328   9.261   6.276  0.1517  0.0052 -0.0981
  986YOPC   GL114251   6.143   9.451   6.710 -0.0239 -0.2826  0.2006
  986YOPC   GL214252   5.892   9.589   6.884 -0.0787  0.1091 -0.2415
  986YOPC   C1A14253   6.125   9.200   7.121  0.0399 -0.1395 -0.3244
  986YOPC   D2A14254   5.962   9.041   7.482 -0.3130 -0.0436 -0.0759
  986YOPC   C3A14255   5.878   9.002   7.877  0.1444  0.0701  0.1310
  986YOPC   C4A14256   5.889   9.045   8.292 -0.1690 -0.0908  0.0797
  986YOPC   C1B14257   5.673   9.604   7.188 -0.0965  0.2427  0.0676
  986YOPC   C2B14258   5.750   9.436   7.643  0.0203  0.0670 -0.0528
  986YOPC   D3B14259   5.496   9.495   7.957 -0.0709  0.3149 -0.1655
  986YOPC   C4B14260   5.327   9.812   8.348  0.1669  0.2946 -0.3014
  987YOPC   NC314261   4.660  14.925   6.175  0.0350  0.1219 -0.2165
  987YOPC   PO414262   4.622  15.124   6.604  0.0563  0.1765  0.0899
  987YOPC   GL114263   4.273  14.903   6.867 -0.1885 -0.0786 -0.0614
  987YOPC   GL214264   3.892  15.080   6.799 -0.1644 -0.0144 -0.4686
  987YOPC   C1A14265   4.234  14.781   7.217  0.0271  0.1108 -0.1775
  987YOPC   D2A14266   4.407  14.522   7.579 -0.2241  0.1074  0.0622
  987YOPC   C3A14267   4.175  14.459   7.990  0.2766 -0.1652  0.3884
  987YOPC   C4A14268   4.006  14.435   8.431 -0.1499  0.4297 -0.1917
  987YOPC   C1B14269   3.924  15.145   7.280 -0.2976 -0.3056 -0.3135
  987YOPC   C2B14270   3.680  15.127   7.610  0.1397 -0.0294 -0.1442
  987YOPC   D3B14271   3.775  15.185   8.035 -0.2502 -0.1795 -0.3088
  987YOPC   C4B14272   3.631  15.385   8.397 -0.3383  0.0003 -0.2318
  988YOPC   NC314273   6.138   6.496   5.909 -0.1708  0.0122  0.3631
  988YOPC   PO414274   6.401   6.234   6.167 -0.2025  0.2149 -0.0843
  988YOPC   GL114275   6.472   6.308   6.660  0.0424 -0.0372  0.2176
  988YOPC   GL214276   6.655   6.166   6.858 -0.0373 -0.0396  0.1805
  988YOPC   C1A14277   6.220   6.255   7.021  0.2765 -0.0387 -0.0551
  988YOPC   D2A14278   5.946   5.909   7.324 -0.0943  0.0729  0.2600
  988YOPC   C3A14279   6.143   5.586   7.566  0.3861 -0.0867 -0.1204
  988YOPC   C4A14280   6.359   5.204   7.509  0.0647  0.1314  0.0047
  988YOPC   C1B14281   6.924   6.154   7.267 -0.0327 -0.3427 -0.0636
  988YOPC   C2B14282   7.322   6.121   7.486  0.1130  0.0371  0.0018
  988YOPC   D3B14283   7.345   5.740   7.636  0.0215  0.1764  0.0938
  988YOPC   C4B14284   7.118   5.560   7.962  0.1319 -0.2449  0.0840
  989YOPC   NC314285  11.775  17.996   6.193  0.0381  0.2738  0.1589
  989YOPC   PO414286  12.095  17.628   6.266  0.0016  0.3432  0.1492
  989YOPC   GL114287  12.047  17.761   6.679 -0.2162  0.1436 -0.0822
  989YOPC   GL214288  11.790  17.902   6.647  0.0662 -0.1383  0.0400
  989YOPC   C1A14289  12.107  17.911   7.044 -0.4104  0.1528  0.1030
  989YOPC   D2A14290  12.108  17.944   7.494  0.0606 -0.0228 -0.4447
  989YOPC   C3A14291  11.826  17.936   7.758 -0.1791  0.0795  0.0376
  989YOPC   C4A14292  11.455  18.051   7.941 -0.1703 -0.0228  0.1573
  989YOPC   C1B14293  11.616  17.846   6.966  0.0426  0.0508  0.0542
  989YOPC   C2B14294  11.651  17.871   7.312 -0.0539 -0.2101  0.3174
  989YOPC   D3B14295  11.210  17.771   7.541 -0.1016  0.2801 -0.3343
  989YOPC   C4B14296  10.946  17.846   7.824 -0.5568  0.2947 -0.0332
  990YOPC   NC314297   9.581  16.540   6.063 -0.1049  0.0011  0.0291
  990YOPC   PO414298   9.258  16.310   5.867 -0.2500  0.0066  0.3322
  990YOPC   GL114299   9.163  16.487   6.333  0.2683 -0.0158  0.0208
  990YOPC   GL214300   9.324  16.500   6.539 -0.0763  0.3810 -0.2430
  990YOPC   C1A14301   9.229  16.970   6.594 -0.3113  0.1024 -0.2363
  990YOPC   D2A14302   9.327  17.138   6.997 -0.1115  0.0011  0.3245
  990YOPC   C3A14303   9.621  16.969   7.256  0.0067 -0.2042 -0.5219
  990YOPC   C4A14304   9.493  16.666   7.516 -0.0527 -0.1900 -0.0644
  990YOPC   C1B14305   9.175  16.189   6.868 -0.4080 -0.1563  0.0396
  990YOPC   C2B14306   9.095  16.216   7.308 -0.0153  0.2022  0.2952
  990YOPC   D3B14307   9.478  16.170   7.543 -0.1219  0.0638  0.1218
  990YOPC   C4B14308   9.377  16.253   8.003 -0.1428  0.0036 -0.0759
  991YOPC   NC314309   6.636   1.392   5.943 -0.3736 -0.2539 -0.0041
  991YOPC   PO414310   6.274   1.576   6.009  0.2466 -0.0004 -0.0523
  991YOPC   GL114311   6.364   1.563   6.454  0.0863 -0.0323  0.0847
  991YOPC   GL214312   6.418   1.226   6.491 -0.2070  0.0751  0.2440
  991YOPC   C1A14313   6.187   1.654   6.853  0.1361  0.0716  0.2096
  991YOPC   D2A14314   5.917   1.853   7.269  0.2528 -0.1383  0.1745
  991YOPC   C3A14315   5.804   1.652   7.717  0.0003 -0.1434  0.1707
  991YOPC   C4A14316   5.681   1.777   8.047 -0.0601  0.0830 -0.4431
  991YOPC   C1B14317   6.675   1.392   6.867 -0.0160 -0.0922  0.2566
  991YOPC   C2B14318   6.850   1.485   7.318 -0.1590 -0.2357 -0.0545
  991YOPC   D3B14319   6.772   1.458   7.710 -0.1527  0.0746  0.3849
  991YOPC   C4B14320   6.578   1.202   8.054 -0.1622  0.5371  0.1694
  992YOPC   NC314321   3.419   8.682   6.093 -0.0582  0.1019 -0.0208
  992YOPC   PO414322   3.151   8.740   5.837  0.0085 -0.2085  0.0393
  992YOPC   GL114323   2.935   8.738   6.241 -0.2388 -0.0417  0.1097
  992YOPC   GL214324   2.638   8.807   6.263 -0.0215 -0.4504 -0.4226
  992YOPC   C1A14325   3.057   8.567   6.691 -0.1254  0.1001  0.1179
  992YOPC   D2A14326   3.315   8.221   6.854 -0.0460  0.0199 -0.0149
  992YOPC   C3A14327   3.223   7.846   7.055 -0.0706  0.0021 -0.0548
  992YOPC   C4A14328   3.061   7.735   7.489  0.1890  0.1181  0.3820
  992YOPC   C1B14329   2.409   8.555   6.507 -0.0192  0.1163 -0.0064
  992YOPC   C2B14330   2.594   8.488   6.845  0.1232 -0.0368  0.0136
  992YOPC   D3B14331   2.950   8.352   7.174  0.0846 -0.1312 -0.1584
  992YOPC   C4B14332   3.065   8.228   7.548 -0.0794  0.0142  0.5063
  993YOPC   NC314333   5.627   8.837   5.737  0.0603 -0.4086  0.0279
  993YOPC   PO414334   5.489   8.685   6.053  0.3073  0.1677  0.0599
  993YOPC   GL114335   5.613   8.777   6.533  0.1237 -0.1601 -0.1235
  993YOPC   GL214336   5.758   9.168   6.617  0.0029  0.0967  0.0637
  993YOPC   C1A14337   5.256   8.788   6.836 -0.1418  0.0542  0.2145
  993YOPC   D2A14338   4.853   8.755   7.196 -0.4619 -0.1663  0.0577
  993YOPC   C3A14339   4.848   9.098   7.458  0.1230  0.2706  0.0266
  993YOPC   C4A14340   4.870   9.212   7.937 -0.2363 -0.1081 -0.0841
  993YOPC   C1B14341   5.745   8.957   6.999  0.5132  0.1003 -0.1657
  993YOPC   C2B14342   5.495   9.007   7.344 -0.0450 -0.0668  0.3874
  993YOPC   D3B14343   5.283   9.391   7.418  0.2581  0.3850  0.1135
  993YOPC   C4B14344   5.268   9.745   7.645 -0.0105 -0.1147  0.3622
  994YOPC   NC314345  16.024   0.848   5.568 -0.2616  0.2301 -0.1553
  994YOPC   PO414346  15.684   0.592   5.650 -0.2165 -0.0090  0.1587
  994YOPC   GL114347  15.764   0.782   6.076 -0.2411 -0.0783 -0.3636
  994YOPC   GL214348  15.847   0.474   6.250 -0.0714 -0.0009  0.3481
  994YOPC   C1A14349  16.216   0.943   6.294  0.0190  0.3419  0.4044
  994YOPC   D2A14350  16.224   1.269   6.672  0.1380  0.0062 -0.0561
  994YOPC   C3A14351  16.566   1.349   6.948 -0.0572 -0.1836 -0.1305
  994YOPC   C4A14352  17.026   1.258   6.892  0.2031 -0.1159 -0.1565
  994YOPC   C1B14353  16.157   0.328   6.584 -0.1340  0.0899 -0.0256
  994YOPC   C2B14354  16.229  -0.052   6.871 -0.2267  0.0526  0.2143
  994YOPC   D3B14355  16.339  -0.196   7.179 -0.3532  0.1327  0.1686
  994YOPC   C4B14356  16.326  -0.282   7.709 -0.0931  0.2644 -0.1583
  995YOPC   NC314357  16.802   0.939   5.267  0.0610  0.0914  0.2271
  995YOPC   PO414358  16.438   1.171   5.298 -0.0517  0.2394  0.0884
  995YOPC   GL114359  16.508   1.120   5.709 -0.0685 -0.1482  0.3482
  995YOPC   GL214360  16.344   1.145   5.804 -0.0527 -0.0715 -0.1771
  995YOPC   C1A14361  16.711   0.857   6.009  0.0198 -0.2182  0.0984
  995YOPC   D2A14362  16.919   1.001   6.359  0.1260  0.2017  0.1274
  995YOPC   C3A14363  17.022   0.715   6.749 -0.0960 -0.2364 -0.1076
  995YOPC   C4A14364  17.204   0.411   7.010  0.0456  0.0006  0.2796
  995YOPC   C1B14365  16.288   1.423   6.154  0.0032  0.1990  0.2678
  995YOPC   C2B14366  15.977   1.624   6.449 -0.2357  0.2638 -0.1439
  995YOPC   D3B14367  15.617   1.701   6.695 -0.0221  0.0863 -0.0714
  995YOPC   C4B14368  15.605   1.874   7.070  0.0993 -0.0379  0.1360
  996YOPC   NC314369  14.610  10.848   6.095 -0.2656 -0.1111  0.0759
  996YOPC   PO414370  14.208  10.911   5.946  0.1585 -0.2422 -0.0337
  996YOPC   GL114371  14.068  11.171   6.231 -0.3589 -0.0808 -0.1209
  996YOPC   GL214372  14.337  11.023   6.479 -0.1277  0.4585  0.2515
  996YOPC   C1A14373  13.910  11.231   6.602  0.0013 -0.0806  0.1116
  996YOPC   D2A14374  13.967  11.022   7.013  0.4638  0.1895 -0.5115
  996YOPC   C3A14375  14.161  11.104   7.400 -0.1727  0.0836 -0.0537
  996YOPC   C4A14376  14.139  11.356   7.822  0.3663  0.0463 -0.1093
  996YOPC   C1B14377  14.485  10.988   6.954 -0.0322  0.0347 -0.1015
  996YOPC   C2B14378  14.303  10.686   7.317 -0.0232 -0.0642 -0.0150
  996YOPC   D3B14379  14.232  10.736   7.778 -0.1553 -0.3079 -0.1843
  996YOPC   C4B14380  14.202  10.647   8.202 -0.0539 -0.1008  0.3688
  997YOPC   NC314381  17.390  14.318   5.914  0.0451 -0.1637 -0.2940
  997YOPC   PO414382  17.619  13.940   5.889  0.0870  0.0163  0.1827
  997YOPC   GL114383  17.659  14.104   6.285  0.0145  0.1293 -0.2273
  997YOPC   GL214384  17.926  14.120   6.417  0.0411  0.0150 -0.0313
  997YOPC   C1A14385  17.374  14.043   6.722 -0.2988  0.0849  0.1041
  997YOPC   D2A14386  16.834  14.128   6.704  0.3187 -0.2043 -0.0526
  997YOPC   C3A14387  16.488  14.336   6.832 -0.1554  0.2440 -0.2847
  997YOPC   C4A14388  16.442  14.350   7.274  0.0564 -0.1951  0.0935
  997YOPC   C1B14389  17.837  14.443   6.680  0.0638  0.1857  0.1137
  997YOPC   C2B14390  17.595  14.498   6.979 -0.4091  0.0867  0.4547
  997YOPC   D3B14391  17.180  14.343   7.064 -0.0319  0.1216 -0.2466
  997YOPC   C4B14392  16.900  14.559   7.212 -0.1226  0.1222  0.1112
  998YOPC   NC314393  13.214   8.483   5.482  0.2898 -0.1383  0.0835
  998YOPC   PO414394  13.572   8.730   5.656 -0.0585  0.0137 -0.1486
  998YOPC   GL114395  13.699   8.589   6.045  0.0370  0.0448 -0.0110
  998YOPC   GL214396  13.516   8.798   6.245 -0.0591  0.3426  0.2158
  998YOPC   C1A14397  13.855   8.217   6.307  0.0421 -0.0365  0.1139
  998YOPC   D2A14398  13.952   7.861   6.341 -0.1436 -0.0652 -0.1587
  998YOPC   C3A14399  14.146   7.961   6.744  0.0884 -0.2077  0.0227
  998YOPC   C4A14400  13.878   8.099   7.179 -0.1006  0.0810  0.0611
  998YOPC   C1B14401  13.710   8.756   6.624 -0.2203  0.1055  0.0488
  998YOPC   C2B14402  13.911   8.772   7.097  0.0950 -0.0070 -0.1440
  998YOPC   D3B14403  13.762   8.517   7.474  0.0226  0.2089 -0.1082
  998YOPC   C4B14404  13.739   8.383   7.916 -0.1560  0.1956  0.3867
  999YOPC   NC314405  12.719  12.374   5.726 -0.2205 -0.1440 -0.0910
  999YOPC   PO414406  13.109  12.292   5.877  0.4391  0.3698  0.2411
  999YOPC   GL114407  12.888  12.282   6.228  0.0178 -0.1330 -0.2231
  999YOPC   GL214408  12.600  12.364   6.196  0.0173 -0.0876  0.1704
  999YOPC   C1A14409  13.002  12.123   6.636 -0.0297  0.1595 -0.0373
  999YOPC   D2A14410  12.987  12.056   7.074  0.3046 -0.2627 -0.0989
  999YOPC   C3A14411  13.147  12.302   7.396 -0.0459 -0.1292  0.1402
  999YOPC   C4A14412  12.912  12.530   7.698 -0.0836  0.0307  0.1865
  999YOPC   C1B14413  12.440  12.445   6.583  0.2208  0.0060 -0.0551
  999YOPC   C2B14414  12.304  12.765   6.713  0.0366  0.1559 -0.0836
  999YOPC   D3B14415  12.144  12.986   7.100  0.0465  0.2798  0.0621
  999YOPC   C4B14416  11.771  13.162   7.138  0.1009  0.0566 -0.3799
 1000YOPC   NC314417   2.520   6.129   5.083 -0.2601  0.0712 -0.2862
 1000YOPC   PO414418   2.543   5.857   5.446 -0.3350 -0.1828 -0.1169
 1000YOPC   GL114419   2.646   5.851   5.780  0.0593 -0.2827 -0.1822
 1000YOPC   GL214420   2.813   6.144   5.747 -0.1702 -0.1743 -0.0544
 1000YOPC   C1A14421   2.639   5.660   6.191 -0.1315 -0.3463 -0.1339
 1000YOPC   D2A14422   2.432   5.666   6.555 -0.0327 -0.0240  0.0184
 1000YOPC   C3A14423   2.504   5.766   6.883  0.0396 -0.1703 -0.0772
 1000YOPC   C4A14424   2.384   5.783   7.246  0.1594  0.3860 -0.0446
 1000YOPC   C1B14425   2.984   6.076   6.030 -0.2204  0.1899 -0.2891
 1000YOPC   C2B14426   3.092   5.824   6.354  0.0514  0.2193  0.2803
 1000YOPC   D3B14427   3.079   5.968   6.832  0.2355  0.2488 -0.0519
 1000YOPC   C4B14428   3.123   6.170   7.258  0.0942 -0.2855 -0.0432
 1001YOPC   NC314429  15.285   4.841   5.291 -0.0282  0.1327 -0.1924
 1001YOPC   PO414430  15.660   4.827   5.360 -0.0951 -0.1191  0.0019
 1001YOPC   GL114431  15.566   5.084   5.757 -0.3303  0.1891 -0.2463
 1001YOPC   GL214432  15.459   5.134   6.009 -0.1151 -0.0463  0.3303
 1001YOPC   C1A14433  15.878   5.355   6.065 -0.0334  0.0894  0.2123
 1001YOPC   D2A14434  16.133   5.332   6.411 -0.1470 -0.2436 -0.2221
 1001YOPC   C3A14435  16.537   5.160   6.401  0.0947  0.1903 -0.0901
 1001YOPC   C4A14436  16.835   4.914   6.286 -0.0565 -0.1354 -0.2100
 1001YOPC   C1B14437  15.660   5.106   6.434  0.0478  0.1398 -0.2245
 1001YOPC   C2B14438  16.005   4.920   6.654  0.3042  0.2507 -0.2514
 1001YOPC   D3B14439  16.057   4.545   6.890  0.0231  0.1240  0.0614
 1001YOPC   C4B14440  16.351   4.332   7.170  0.0048  0.2331  0.0808
 1002YOPC   NC314441   7.941  10.442   6.230  0.1748 -0.2179  0.1151
 1002YOPC   PO414442   7.608  10.371   6.482 -0.0680 -0.0636  0.1280
 1002YOPC   GL114443   7.890  10.514   6.723 -0.2577 -0.2563  0.0338
 1002YOPC   GL214444   8.181  10.534   6.640  0.1677  0.0386  0.0725
 1002YOPC   C1A14445   7.844  10.901   6.882 -0.0652 -0.2918 -0.0156
 1002YOPC   D2A14446   8.016  11.032   7.277 -0.0468 -0.3056 -0.0451
 1002YOPC   C3A14447   8.452  10.950   7.425  0.2200 -0.0595 -0.1844
 1002YOPC   C4A14448   8.721  11.050   7.677  0.1575 -0.0372 -0.1545
 1002YOPC   C1B14449   8.210  10.655   7.083 -0.4220  0.3903 -0.0035
 1002YOPC   C2B14450   8.221  10.461   7.442 -0.2266  0.0830  0.1969
 1002YOPC   D3B14451   8.519  10.538   7.790  0.1730  0.1334  0.0440
 1002YOPC   C4B14452   8.712  10.756   8.084  0.0227  0.2698 -0.2161
 1003YOPC   NC314453   6.860   4.875   5.771 -0.3739  0.0348 -0.1873
 1003YOPC   PO414454   6.770   5.311   5.981  0.2614  0.1477 -0.2697
 1003YOPC   GL114455   6.615   5.381   6.403  0.0203  0.3044  0.0334
 1003YOPC   GL214456   6.699   5.173   6.569 -0.0382 -0.2480  0.3738
 1003YOPC   C1A14457   6.348   5.392   6.832  0.1729 -0.1187  0.0737
 1003YOPC   D2A14458   6.050   5.538   7.060  0.1692 -0.1905  0.0612
 1003YOPC   C3A14459   5.837   5.910   6.840  0.2123 -0.0141 -0.0278
 1003YOPC   C4A14460   5.643   6.267   7.130 -0.0012  0.0969  0.1267
 1003YOPC   C1B14461   6.726   4.905   6.950 -0.1575 -0.0449 -0.3256
 1003YOPC   C2B14462   6.655   4.835   7.300 -0.1209 -0.0634 -0.0011
 1003YOPC   D3B14463   6.833   4.635   7.641 -0.1052  0.2241 -0.0548
 1003YOPC   C4B14464   7.231   4.464   7.687  0.3340 -0.3443  0.1259
 1004YOPC   NC314465  16.315  15.307   6.041  0.2430  0.0374 -0.1632
 1004YOPC   PO414466  15.763  15.415   6.114 -0.1278  0.0438  0.0156
 1004YOPC   GL114467  15.632  15.318   6.487  0.1366  0.0700 -0.1174
 1004YOPC   GL214468  15.609  15.398   6.716  0.2793 -0.1400  0.2439
 1004YOPC   C1A14469  15.548  14.813   6.760 -0.1066  0.1311  0.0704
 1004YOPC   D2A14470  15.349  14.494   6.980  0.1625 -0.2001 -0.1954
 1004YOPC   C3A14471  15.519  14.240   7.253 -0.1951  0.2212  0.4045
 1004YOPC   C4A14472  15.921  14.201   7.196  0.2206 -0.2516 -0.2050
 1004YOPC   C1B14473  15.548  15.580   7.152 -0.0667  0.1683 -0.3579
 1004YOPC   C2B14474  15.471  15.538   7.582  0.1774 -0.0793 -0.4043
 1004YOPC   D3B14475  15.146  15.576   7.831  0.2487 -0.0172 -0.0552
 1004YOPC   C4B14476  14.942  15.572   8.208 -0.2753  0.1355  0.0694
 1005YOPC   NC314477   6.935  12.331   6.506 -0.0176  0.0520 -0.0953
 1005YOPC   PO414478   6.844  12.707   6.279 -0.1140 -0.1423  0.1858
 1005YOPC   GL114479   6.713  12.887   6.631  0.1294  0.0173  0.0183
 1005YOPC   GL214480   6.677  12.647   6.861  0.0167 -0.1260 -0.1805
 1005YOPC   C1A14481   6.502  13.128   6.974  0.0540  0.2420  0.1468
 1005YOPC   D2A14482   6.222  13.183   7.169  0.0623  0.1628 -0.0271
 1005YOPC   C3A14483   6.210  13.559   7.270 -0.0653 -0.1714 -0.2669
 1005YOPC   C4A14484   5.784  13.831   7.194 -0.0871  0.0964 -0.0164
 1005YOPC   C1B14485   6.453  12.724   7.254  0.1398  0.1098 -0.0027
 1005YOPC   C2B14486   6.296  12.520   7.612  0.1872  0.2942  0.0728
 1005YOPC   D3B14487   6.236  12.761   8.033 -0.1480 -0.0074 -0.1813
 1005YOPC   C4B14488   6.493  13.175   8.175  0.1076  0.0476 -0.2918
 1006YOPC   NC314489   8.106   2.638   5.642  0.0008 -0.2029 -0.0598
 1006YOPC   PO414490   7.811   2.523   6.064  0.2096 -0.1536  0.5137
 1006YOPC   GL114491   7.486   2.414   6.430  0.0008  0.0680  0.0504
 1006YOPC   GL214492   7.628   2.271   6.643  0.1762  0.1547 -0.0606
 1006YOPC   C1A14493   7.217   2.654   6.809  0.2136 -0.2381  0.0632
 1006YOPC   D2A14494   7.250   3.075   7.095 -0.2353  0.2321  0.0338
 1006YOPC   C3A14495   7.259   3.098   7.540  0.1134  0.0592  0.3497
 1006YOPC   C4A14496   7.155   3.371   7.930  0.1205  0.0430  0.0307
 1006YOPC   C1B14497   7.565   2.205   7.099 -0.1919 -0.1105  0.0631
 1006YOPC   C2B14498   7.463   2.143   7.584  0.0555 -0.0352 -0.1394
 1006YOPC   D3B14499   7.053   2.353   7.851 -0.4227  0.0216 -0.0680
 1006YOPC   C4B14500   6.832   2.554   8.183 -0.4297  0.4053  0.1571
 1007YOPC   NC314501   3.760  11.920   6.376 -0.0902  0.0747 -0.2870
 1007YOPC   PO414502   3.466  11.595   6.376 -0.3390 -0.0439  0.0091
 1007YOPC   GL114503   3.207  11.687   6.717  0.1788  0.2846  0.4080
 1007YOPC   GL214504   2.988  11.506   6.865  0.2677  0.1307 -0.0140
 1007YOPC   C1A14505   3.225  11.934   7.116  0.1744  0.1718 -0.0925
 1007YOPC   D2A14506   2.979  11.693   7.396 -0.3127  0.0599 -0.1934
 1007YOPC   C3A14507   3.114  11.818   7.796 -0.0365  0.1553 -0.3220
 1007YOPC   C4A14508   3.008  11.844   8.223 -0.0440  0.4205  0.2238
 1007YOPC   C1B14509   2.660  11.793   7.098 -0.1002 -0.1626  0.4238
 1007YOPC   C2B14510   2.708  12.231   7.294  0.0982  0.2818  0.2867
 1007YOPC   D3B14511   3.088  12.325   7.480 -0.3218  0.0609 -0.1833
 1007YOPC   C4B14512   2.996  12.537   7.829  0.4917  0.0496  0.0771
 1008YOPC   NC314513  11.775   1.085   5.402  0.1323 -0.1422 -0.4289
 1008YOPC   PO414514  11.966   1.027   5.876 -0.2053 -0.2879 -0.1230
 1008YOPC   GL114515  12.144   1.049   6.304 -0.0312 -0.1519 -0.2585
 1008YOPC   GL214516  12.393   0.749   6.410 -0.0865 -0.0227  0.3763
 1008YOPC   C1A14517  12.034   1.442   6.536  0.1765 -0.2846  0.0198
 1008YOPC   D2A14518  11.768   1.741   6.542 -0.0033 -0.1138 -0.4554
 1008YOPC   C3A14519  11.715   2.156   6.591 -0.2784 -0.0115 -0.1387
 1008YOPC   C4A14520  11.576   2.499   6.856 -0.4031  0.1300  0.3010
 1008YOPC   C1B14521  12.223   0.535   6.796 -0.1985 -0.1976 -0.2168
 1008YOPC   C2B14522  11.917   0.638   7.177 -0.1369 -0.0784 -0.1204
 1008YOPC   D3B14523  11.956   0.728   7.515  0.2128  0.2145  0.0675
 1008YOPC   C4B14524  11.951   0.597   8.019 -0.0276 -0.1375  0.0866
 1009YOPC   NC314525   9.775  17.960   5.440 -0.0553 -0.0236 -0.0267
 1009YOPC   PO414526   9.446  17.947   5.767  0.1332  0.2564 -0.3710
 1009YOPC   GL114527   9.477  17.785   6.252  0.1108 -0.2266 -0.3481
 1009YOPC   GL214528   9.421  18.086   6.476 -0.1950  0.1207 -0.1345
 1009YOPC   C1A14529   9.266  17.579   6.652 -0.0653  0.3376  0.0498
 1009YOPC   D2A14530   8.886  17.445   6.977  0.2967 -0.2158 -0.1559
 1009YOPC   C3A14531   8.815  16.967   6.955 -0.1269  0.2936 -0.1133
 1009YOPC   C4A14532   8.859  16.611   6.771  0.4609 -0.3889 -0.0263
 1009YOPC   C1B14533   9.232  18.052   6.800 -0.0063 -0.0201  0.0926
 1009YOPC   C2B14534   9.184  17.753   7.269  0.0228 -0.0100 -0.0796
 1009YOPC   D3B14535   9.517  17.913   7.543 -0.0218  0.2729  0.1297
 1009YOPC   C4B14536   9.666  18.099   7.838 -0.1022 -0.0735 -0.1404
 1010YOPC   NC314537  15.550  17.663   5.822  0.2100  0.0766 -0.0745
 1010YOPC   PO414538  15.986  17.627   5.939 -0.0924 -0.1273  0.2991
 1010YOPC   GL114539  16.213  17.880   6.285 -0.0207 -0.2425 -0.0618
 1010YOPC   GL214540  16.120  18.203   6.163  0.2666  0.0019  0.0233
 1010YOPC   C1A14541  16.556  18.180   6.501  0.0209  0.0671 -0.0411
 1010YOPC   D2A14542  16.590  18.472   6.874  0.1393  0.1182 -0.1734
 1010YOPC   C3A14543  16.628  18.481   7.282  0.1290  0.0644  0.0077
 1010YOPC   C4A14544  16.686  18.238   7.602  0.0361 -0.2884  0.1785
 1010YOPC   C1B14545  15.764  18.173   6.558 -0.1032 -0.0389 -0.1276
 1010YOPC   C2B14546  15.680  18.298   6.888 -0.1576 -0.1773  0.2569
 1010YOPC   D3B14547  15.968  18.558   7.029 -0.1150 -0.0415 -0.2987
 1010YOPC   C4B14548  15.894  18.846   7.419 -0.1147 -0.1115  0.0303
 1011YOPC   NC314549   5.725  16.007   6.090  0.0953  0.1429  0.0199
 1011YOPC   PO414550   5.600  16.235   6.454  0.1447 -0.1134  0.2167
 1011YOPC   GL114551   5.515  16.325   6.900  0.0339  0.1376  0.0760
 1011YOPC   GL214552   5.317  16.545   6.899  0.1587 -0.0605  0.1963
 1011YOPC   C1A14553   5.686  16.477   7.225  0.1533  0.1654  0.0928
 1011YOPC   D2A14554   6.089  16.672   7.314  0.0148 -0.2277  0.1881
 1011YOPC   C3A14555   6.136  16.589   7.772 -0.0034  0.0396 -0.0057
 1011YOPC   C4A14556   5.956  16.734   8.158  0.0233  0.0943 -0.3122
 1011YOPC   C1B14557   5.113  16.835   7.252  0.0165  0.0446 -0.1486
 1011YOPC   C2B14558   5.112  17.257   7.462  0.0929 -0.0394 -0.2206
 1011YOPC   D3B14559   4.893  17.240   7.923  0.1150 -0.2485  0.0040
 1011YOPC   C4B14560   4.934  17.075   8.389 -0.3127 -0.0397  0.0105
 1012YOPC   NC314561   3.383  18.001   6.036 -0.0924 -0.2257  0.2225
 1012YOPC   PO414562   3.117  18.365   5.959 -0.2274  0.1346 -0.3156
 1012YOPC   GL114563   3.143  18.348   6.420 -0.0523 -0.2224 -0.0493
 1012YOPC   GL214564   3.431  18.249   6.544 -0.4847  0.2195 -0.1585
 1012YOPC   C1A14565   3.102  18.483   6.866  0.2739  0.0893  0.0018
 1012YOPC   D2A14566   3.106  18.468   7.351 -0.1669  0.3163 -0.1449
 1012YOPC   C3A14567   3.249  18.569   7.792  0.2231  0.0058 -0.2071
 1012YOPC   C4A14568   3.136  18.828   8.124  0.0324 -0.1159  0.1931
 1012YOPC   C1B14569   3.501  18.179   7.016 -0.1813 -0.0146 -0.2311
 1012YOPC   C2B14570   3.587  18.203   7.375 -0.0567 -0.0985  0.1189
 1012YOPC   D3B14571   3.271  17.929   7.601  0.2768 -0.1174  0.0515
 1012YOPC   C4B14572   2.912  17.530   7.710 -0.2165  0.1886 -0.1893
 1013YOPC   NC314573  11.774  13.437   5.935  0.1494  0.0538  0.0923
 1013YOPC   PO414574  12.195  13.403   5.881 -0.0643 -0.0218  0.0630
 1013YOPC   GL114575  12.154  13.550   6.379 -0.2248 -0.2103 -0.2941
 1013YOPC   GL214576  12.029  13.827   6.310  0.2255  0.0059  0.0637
 1013YOPC   C1A14577  12.399  13.332   6.703  0.0320  0.1204 -0.0022
 1013YOPC   D2A14578  12.771  13.147   6.701  0.0075  0.0780 -0.3571
 1013YOPC   C3A14579  12.831  12.876   7.078  0.1652 -0.4409  0.1050
 1013YOPC   C4A14580  12.723  12.465   7.100  0.2643 -0.0001  0.1413
 1013YOPC   C1B14581  12.137  13.745   6.804 -0.0560  0.0297 -0.2827
 1013YOPC   C2B14582  12.168  13.527   7.206 -0.2861 -0.1989 -0.0146
 1013YOPC   D3B14583  12.105  13.275   7.543  0.3682 -0.0213  0.0171
 1013YOPC   C4B14584  12.370  13.261   7.752 -0.1652 -0.1065 -0.0931
 1014YOPC   NC314585  17.696  12.582   5.701 -0.0320 -0.0650 -0.1937
 1014YOPC   PO414586  17.598  12.939   5.972 -0.1103 -0.1347 -0.0180
 1014YOPC   GL114587  17.492  13.094   6.458  0.1886  0.1200  0.1708
 1014YOPC   GL214588  17.769  13.113   6.574  0.0599  0.1106 -0.1450
 1014YOPC   C1A14589  17.575  13.018   7.027 -0.2162  0.1763  0.1341
 1014YOPC   D2A14590  17.790  13.089   7.339  0.0106  0.0075 -0.2962
 1014YOPC   C3A14591  17.586  13.423   7.657  0.3263  0.2698 -0.2929
 1014YOPC   C4A14592  17.558  13.668   7.985 -0.0247 -0.2862 -0.1221
 1014YOPC   C1B14593  17.987  13.320   6.943  0.1022 -0.0096  0.1046
 1014YOPC   C2B14594  18.131  13.552   7.211  0.0153 -0.0453 -0.2041
 1014YOPC   D3B14595  18.077  13.459   7.643  0.2593  0.0362 -0.1100
 1014YOPC   C4B14596  18.031  13.479   8.073 -0.0969 -0.1663 -0.0008
 1015YOPC   NC314597   1.394   5.522   5.609 -0.1363 -0.3070 -0.1571
 1015YOPC   PO414598   0.908   5.617   5.444  0.0252 -0.1629 -0.2195
 1015YOPC   GL114599   1.035   5.875   5.855 -0.3013 -0.4551  0.1781
 1015YOPC   GL214600   1.194   5.655   6.032  0.0869  0.4102 -0.3060
 1015YOPC   C1A14601   1.129   6.141   6.291 -0.1677 -0.2115 -0.2649
 1015YOPC   D2A14602   1.209   6.337   6.638 -0.1790  0.1703  0.1708
 1015YOPC   C3A14603   1.100   6.292   6.927 -0.0351 -0.1022  0.1663
 1015YOPC   C4A14604   0.799   6.416   7.195 -0.0327 -0.0463  0.3351
 1015YOPC   C1B14605   0.999   5.589   6.403 -0.1009  0.0528  0.0245
 1015YOPC   C2B14606   0.996   5.456   6.789 -0.3317  0.1050  0.1817
 1015YOPC   D3B14607   1.197   5.784   7.043 -0.0377 -0.0394  0.0483
 1015YOPC   C4B14608   1.050   5.706   7.494 -0.1981 -0.0583 -0.0217
 1016YOPC   NC314609  16.709  13.190   6.243  0.0163  0.3713 -0.2198
 1016YOPC   PO414610  17.090  13.253   6.215  0.3083  0.0595 -0.1198
 1016YOPC   GL114611  17.064  13.516   6.599  0.3105 -0.0942  0.0818
 1016YOPC   GL214612  16.700  13.559   6.740  0.0310 -0.3995 -0.1931
 1016YOPC   C1A14613  17.051  13.825   6.947 -0.1234  0.1742 -0.1310
 1016YOPC   D2A14614  16.722  13.938   7.154 -0.1032 -0.2015  0.0050
 1016YOPC   C3A14615  16.850  14.136   7.497 -0.1417  0.1491 -0.1257
 1016YOPC   C4A14616  16.724  14.461   7.751  0.0736  0.2407 -0.4333
 1016YOPC   C1B14617  16.472  13.509   7.169  0.0863  0.2539 -0.0013
 1016YOPC   C2B14618  16.578  13.685   7.583 -0.1989 -0.0382 -0.0335
 1016YOPC   D3B14619  16.760  13.521   7.883  0.0269 -0.1561  0.2569
 1016YOPC   C4B14620  17.163  13.367   8.019  0.0504 -0.2279 -0.1596
 1017YOPC   NC314621   1.946   4.378   5.238 -0.1017  0.1625 -0.1831
 1017YOPC   PO414622   1.626   4.638   5.160 -0.3814  0.3067 -0.0996
 1017YOPC   GL114623   1.723   4.540   5.625 -0.0516 -0.0926 -0.1792
 1017YOPC   GL214624   1.699   4.287   5.868  0.2467 -0.1148  0.0956
 1017YOPC   C1A14625   2.084   4.603   5.987 -0.2673  0.1636  0.0765
 1017YOPC   D2A14626   2.038   4.655   6.429  0.3274  0.2432 -0.0121
 1017YOPC   C3A14627   2.153   4.618   6.742 -0.0573 -0.0296 -0.0805
 1017YOPC   C4A14628   2.187   4.610   7.206 -0.0489  0.2146 -0.1792
 1017YOPC   C1B14629   1.644   4.371   6.340  0.1116 -0.3936  0.1731
 1017YOPC   C2B14630   1.308   4.449   6.708 -0.1845  0.1651 -0.2130
 1017YOPC   D3B14631   0.929   4.404   6.719 -0.1090  0.0770  0.2121
 1017YOPC   C4B14632   0.683   4.108   6.850 -0.0666 -0.1933  0.0050
 1018YOPC   NC314633  16.003  10.835   5.487 -0.0965  0.1480 -0.0053
 1018YOPC   PO414634  16.194  10.861   5.975  0.3678 -0.4551  0.2941
 1018YOPC   GL114635  16.359  10.837   6.340 -0.1270 -0.0075 -0.1272
 1018YOPC   GL214636  16.150  10.853   6.530  0.2471 -0.0625 -0.2305
 1018YOPC   C1A14637  16.472  10.573   6.770  0.1586 -0.3432  0.0896
 1018YOPC   D2A14638  16.673  10.810   7.024 -0.3212 -0.0421  0.0086
 1018YOPC   C3A14639  16.732  10.745   7.429 -0.1464 -0.1859  0.1783
 1018YOPC   C4A14640  16.847  10.349   7.587  0.1392 -0.2504 -0.2371
 1018YOPC   C1B14641  15.832  10.810   6.850  0.0278 -0.0983  0.1713
 1018YOPC   C2B14642  15.442  11.046   7.055  0.2042  0.2561 -0.1981
 1018YOPC   D3B14643  15.431  10.966   7.528 -0.2599  0.2417 -0.2143
 1018YOPC   C4B14644  15.176  10.884   7.839 -0.0070  0.0150 -0.0134
 1019YOPC   NC314645  14.667   9.203   5.686 -0.1181 -0.1181  0.0501
 1019YOPC   PO414646  14.652   8.718   5.737  0.0424 -0.1698 -0.0650
 1019YOPC   GL114647  14.853   8.436   6.106  0.0421 -0.1710 -0.2373
 1019YOPC   GL214648  15.105   8.259   6.030  0.1486 -0.3402  0.0921
 1019YOPC   C1A14649  15.132   8.499   6.473  0.0526 -0.4188  0.1370
 1019YOPC   D2A14650  15.309   8.644   6.829 -0.2445  0.0021  0.1404
 1019YOPC   C3A14651  15.740   8.469   6.999 -0.2293  0.3424 -0.0598
 1019YOPC   C4A14652  16.185   8.328   6.929 -0.1225  0.3067 -0.3928
 1019YOPC   C1B14653  15.049   8.029   6.377 -0.1650  0.2527  0.2494
 1019YOPC   C2B14654  14.823   7.780   6.681  0.0464 -0.3183 -0.1274
 1019YOPC   D3B14655  14.665   7.977   6.947  0.3311  0.0217  0.2594
 1019YOPC   C4B14656  14.588   8.079   7.410  0.0132  0.1053 -0.2787
 1020YOPC   NC314657   1.852  10.372   6.125 -0.0148 -0.0966  0.1509
 1020YOPC   PO414658   1.647  10.083   6.160 -0.2028  0.4035  0.2799
 1020YOPC   GL114659   1.752  10.136   6.639  0.0804  0.1252 -0.0953
 1020YOPC   GL214660   1.897  10.276   6.672 -0.0363 -0.0203  0.2565
 1020YOPC   C1A14661   1.410  10.118   6.870  0.1799  0.1018  0.0808
 1020YOPC   D2A14662   1.316  10.049   7.387  0.0058  0.0026 -0.2855
 1020YOPC   C3A14663   1.505   9.775   7.696  0.0967 -0.0947 -0.2928
 1020YOPC   C4A14664   1.515   9.614   8.086 -0.0765 -0.0028  0.1602
 1020YOPC   C1B14665   1.782  10.459   7.082  0.1133 -0.1871 -0.0392
 1020YOPC   C2B14666   1.484  10.646   7.296 -0.0299 -0.2313  0.0642
 1020YOPC   D3B14667   1.254  11.007   7.172 -0.1734  0.1561  0.0196
 1020YOPC   C4B14668   1.217  11.212   6.854 -0.2679  0.0452 -0.0673
 1021YOPC   NC314669   2.147  14.344   6.230  0.1108  0.1668 -0.2835
 1021YOPC   PO414670   1.662  14.463   6.169  0.1444 -0.1404 -0.0987
 1021YOPC   GL114671   1.741  14.548   6.610  0.0261  0.0545 -0.0750
 1021YOPC   GL214672   1.453  14.287   6.650 -0.3515  0.0420 -0.1348
 1021YOPC   C1A14673   1.479  14.866   6.829 -0.1384 -0.3377 -0.0952
 1021YOPC   D2A14674   1.306  15.125   7.008  0.1461  0.2396 -0.0120
 1021YOPC   C3A14675   1.261  15.193   7.522  0.0749 -0.1846 -0.0686
 1021YOPC   C4A14676   1.259  15.259   7.957  0.0430 -0.0962  0.0357
 1021YOPC   C1B14677   1.560  14.438   7.053  0.1802 -0.3649 -0.1483
 1021YOPC   C2B14678   1.710  14.387   7.436  0.0407  0.2213 -0.3626
 1021YOPC   D3B14679   1.602  14.609   7.708  0.1279 -0.3215 -0.1078
 1021YOPC   C4B14680   1.461  14.649   8.091  0.1114 -0.0025 -0.1145
 1022YOPC   NC314681  16.907   4.746   4.684 -0.4037 -0.1064 -0.1511
 1022YOPC   PO414682  16.608   4.715   5.043  0.0222  0.0358  0.0129
 1022YOPC   GL114683  16.718   4.637   5.450 -0.2164 -0.2411  0.0422
 1022YOPC   GL214684  16.870   4.324   5.594  0.1092 -0.0403 -0.3128
 1022YOPC   C1A14685  16.482   4.817   5.791 -0.2034 -0.0133  0.0696
 1022YOPC   D2A14686  16.209   4.996   6.056 -0.1133  0.1180  0.3350
 1022YOPC   C3A14687  15.815   4.788   6.067 -0.2016  0.0731 -0.1515
 1022YOPC   C4A14688  15.501   4.671   6.120 -0.1344 -0.0500 -0.3932
 1022YOPC   C1B14689  16.708   4.228   5.957 -0.0320  0.0860  0.1480
 1022YOPC   C2B14690  16.882   4.362   6.313  0.0844  0.2101  0.3419
 1022YOPC   D3B14691  16.868   4.294   6.772  0.0162 -0.3827 -0.0809
 1022YOPC   C4B14692  16.875   4.293   7.152 -0.0271  0.4059 -0.2487
 1023YOPC   NC314693  17.002   8.376   5.674  0.0838 -0.2349  0.1186
 1023YOPC   PO414694  17.118   7.885   5.843 -0.3382 -0.0803  0.2995
 1023YOPC   GL114695  17.264   7.688   6.120  0.0154  0.0180 -0.1460
 1023YOPC   GL214696  17.300   7.473   6.450 -0.0556 -0.0833 -0.1099
 1023YOPC   C1A14697  17.650   7.794   6.468 -0.0519 -0.1969 -0.2712
 1023YOPC   D2A14698  17.789   7.899   6.851 -0.0211  0.0619 -0.1172
 1023YOPC   C3A14699  17.981   7.622   7.126  0.1475  0.1189  0.2571
 1023YOPC   C4A14700  17.993   7.319   7.455 -0.1685  0.0313 -0.0366
 1023YOPC   C1B14701  17.066   7.257   6.676 -0.0597  0.0329 -0.0653
 1023YOPC   C2B14702  16.981   7.324   7.062 -0.0380 -0.0114 -0.2757
 1023YOPC   D3B14703  16.490   7.269   7.041  0.0719 -0.0012 -0.0419
 1023YOPC   C4B14704  16.206   7.324   6.693  0.0059 -0.0414 -0.2274
 1024YOPC   NC314705   9.342   8.837   6.312 -0.0519  0.1901 -0.1033
 1024YOPC   PO414706   8.970   8.496   6.252  0.1412  0.0802  0.0664
 1024YOPC   GL114707   8.896   8.285   6.749 -0.0546 -0.2392 -0.0187
 1024YOPC   GL214708   8.907   7.891   6.775  0.1241  0.2744 -0.2505
 1024YOPC   C1A14709   8.848   8.323   7.208  0.2363 -0.2138 -0.0560
 1024YOPC   D2A14710   8.637   8.489   7.578 -0.1138 -0.2665 -0.1168
 1024YOPC   C3A14711   8.799   8.471   7.922 -0.0745 -0.1671  0.1105
 1024YOPC   C4A14712   8.780   8.268   8.346  0.1800  0.1165 -0.0828
 1024YOPC   C1B14713   8.700   7.814   7.276  0.1974 -0.1551  0.3093
 1024YOPC   C2B14714   8.658   8.037   7.695 -0.0948  0.0428  0.2679
 1024YOPC   D3B14715   8.453   8.047   8.037 -0.0600  0.1654  0.3939
 1024YOPC   C4B14716   8.258   8.214   8.440 -0.1532  0.5082 -0.0521
 1025YOPC   NC314717  16.505   5.185   5.049 -0.1996 -0.0399 -0.0552
 1025YOPC   PO414718  16.239   5.615   5.195  0.2383 -0.2280  0.0095
 1025YOPC   GL114719  16.311   5.550   5.612  0.1127  0.0573  0.0164
 1025YOPC   GL214720  16.288   5.844   5.747 -0.0652 -0.1895 -0.0375
 1025YOPC   C1A14721  16.591   5.313   5.934 -0.0847  0.0902  0.0265
 1025YOPC   D2A14722  17.053   5.416   6.031  0.2407  0.0310 -0.2809
 1025YOPC   C3A14723  17.060   5.317   6.485 -0.3082  0.0746  0.1757
 1025YOPC   C4A14724  17.085   5.323   6.945 -0.1186  0.0035  0.2167
 1025YOPC   C1B14725  16.373   5.809   6.059 -0.3590  0.1651 -0.0281
 1025YOPC   C2B14726  16.629   5.651   6.386  0.1988  0.0408 -0.1234
 1025YOPC   D3B14727  16.699   5.575   6.846 -0.1163  0.0483  0.1570
 1025YOPC   C4B14728  16.795   5.697   7.171  0.1888  0.0899 -0.4372
 1026YOPC   NC314729   6.136  18.046   6.189 -0.1706  0.1879 -0.3799
 1026YOPC   PO414730   6.170  18.493   6.291 -0.0277 -0.1031  0.5512
 1026YOPC   GL114731   6.110  18.648   6.701  0.1117 -0.0934 -0.2048
 1026YOPC   GL214732   6.123  18.967   6.732 -0.1241 -0.0499  0.4293
 1026YOPC   C1A14733   6.088  18.740   7.174 -0.1434 -0.3911  0.2439
 1026YOPC   D2A14734   6.247  18.936   7.528 -0.0869 -0.2227 -0.2995
 1026YOPC   C3A14735   5.976  19.033   7.842  0.1427 -0.0013 -0.2606
 1026YOPC   C4A14736   5.490  18.888   7.901  0.0810 -0.0386 -0.2417
 1026YOPC   C1B14737   6.295  19.155   7.071  0.1910  0.0750 -0.0022
 1026YOPC   C2B14738   6.292  19.543   7.222 -0.2885 -0.1064  0.0743
 1026YOPC   D3B14739   6.349  19.414   7.661  0.4527  0.1912 -0.4248
 1026YOPC   C4B14740   6.043  19.507   7.990 -0.0211 -0.1359 -0.1885
 1027YOPC   NC314741  11.411  15.679   6.470 -0.5763  0.2801  0.3048
 1027YOPC   PO414742  11.592  16.003   6.515 -0.1948 -0.0623  0.0337
 1027YOPC   GL114743  11.438  16.248   6.727  0.2973 -0.2257 -0.1111
 1027YOPC   GL214744  11.389  16.517   6.576  0.0222 -0.0765  0.0058
 1027YOPC   C1A14745  11.150  16.390   6.986 -0.1034 -0.1232 -0.0108
 1027YOPC   D2A14746  11.005  16.232   7.386 -0.0375  0.2869  0.2440
 1027YOPC   C3A14747  10.920  16.000   7.763 -0.1862 -0.0300 -0.0005
 1027YOPC   C4A14748  10.657  15.882   8.101  0.2621  0.1763  0.0640
 1027YOPC   C1B14749  11.558  16.640   6.899  0.0926 -0.1394 -0.3329
 1027YOPC   C2B14750  11.456  16.373   7.334  0.1232 -0.1895 -0.1087
 1027YOPC   D3B14751  11.437  16.603   7.779 -0.0762  0.2016  0.4394
 1027YOPC   C4B14752  11.457  16.705   8.188  0.1944 -0.1673 -0.0431
 1028YOPC   NC314753   0.177  14.078   6.116 -0.1469 -0.4600  0.1588
 1028YOPC   PO414754   0.258  14.397   6.288  0.1206 -0.0037  0.0230
 1028YOPC   GL114755   0.593  14.461   6.553  0.1981  0.0815  0.1899
 1028YOPC   GL214756   0.502  14.278   6.728 -0.1121 -0.1218 -0.2722
 1028YOPC   C1A14757   0.945  14.577   6.778 -0.1177  0.0878  0.0231
 1028YOPC   D2A14758   1.033  14.728   7.214 -0.0466  0.5083  0.1018
 1028YOPC   C3A14759   0.745  14.954   7.439 -0.2130 -0.1694  0.2638
 1028YOPC   C4A14760   0.561  15.050   7.790  0.3525 -0.0561  0.0972
 1028YOPC   C1B14761   0.625  14.274   7.142  0.0769  0.2194  0.0902
 1028YOPC   C2B14762   0.768  14.319   7.440 -0.2402 -0.1211 -0.0679
 1028YOPC   D3B14763   0.542  14.546   7.787 -0.1210 -0.0797 -0.4651
 1028YOPC   C4B14764   0.474  14.667   8.212  0.2421 -0.0675 -0.0567
 1029YOPC   NC314765  13.163   6.813   5.335 -0.3242  0.1885 -0.3183
 1029YOPC   PO414766  13.292   6.997   5.673  0.1180  0.1549  0.2208
 1029YOPC   GL114767  13.209   6.932   6.139  0.1281  0.0173 -0.0615
 1029YOPC   GL214768  13.101   7.179   6.434 -0.1080  0.1263  0.1289
 1029YOPC   C1A14769  13.476   6.843   6.474  0.2298  0.1304  0.0104
 1029YOPC   D2A14770  13.651   6.811   6.878  0.1009  0.2029 -0.0287
 1029YOPC   C3A14771  13.711   6.609   7.244  0.0568 -0.1516 -0.2547
 1029YOPC   C4A14772  13.580   6.482   7.637  0.1814  0.0425  0.3516
 1029YOPC   C1B14773  13.180   6.964   6.934 -0.1077 -0.1052  0.0182
 1029YOPC   C2B14774  13.046   6.958   7.408  0.0871  0.3280 -0.0929
 1029YOPC   D3B14775  13.065   6.667   7.718 -0.1887  0.0198  0.0667
 1029YOPC   C4B14776  13.131   6.435   8.031  0.2537  0.2837 -0.0396
 1030YOPC   NC314777   9.056   7.978   6.292 -0.2751  0.3647 -0.0775
 1030YOPC   PO414778   9.360   8.130   6.532  0.2096  0.1935 -0.0991
 1030YOPC   GL114779   9.399   8.236   6.975 -0.2333  0.0127 -0.0045
 1030YOPC   GL214780   9.233   8.035   7.122 -0.1288  0.2142 -0.1200
 1030YOPC   C1A14781   9.562   8.293   7.358 -0.2130  0.0538  0.1972
 1030YOPC   D2A14782   9.925   8.348   7.670 -0.1067  0.0285  0.0710
 1030YOPC   C3A14783   9.889   8.690   7.927  0.2204 -0.0453  0.0800
 1030YOPC   C4A14784   9.630   9.032   8.046  0.0934 -0.1835  0.3465
 1030YOPC   C1B14785   9.136   7.881   7.429  0.0510  0.2645  0.0127
 1030YOPC   C2B14786   8.963   7.644   7.655  0.3261  0.0120 -0.0317
 1030YOPC   D3B14787   9.314   7.503   7.900  0.3276  0.0979  0.0820
 1030YOPC   C4B14788   9.244   7.048   8.028 -0.3397 -0.3134 -0.3805
 1031YOPC   NC314789  16.087  16.641   5.823 -0.0973  0.2749  0.0407
 1031YOPC   PO414790  16.614  16.618   5.620  0.0421 -0.2429 -0.0162
 1031YOPC   GL114791  16.559  16.758   6.095  0.0994  0.3930 -0.1971
 1031YOPC   GL214792  16.728  16.913   6.311  0.0387 -0.1315  0.3694
 1031YOPC   C1A14793  16.308  16.665   6.483 -0.0154  0.0815  0.0661
 1031YOPC   D2A14794  16.216  16.675   6.931  0.1224 -0.3006 -0.4219
 1031YOPC   C3A14795  15.946  16.970   7.230  0.1907 -0.1493 -0.2042
 1031YOPC   C4A14796  15.745  16.983   7.574  0.2019 -0.2039  0.1619
 1031YOPC   C1B14797  16.573  16.985   6.793  0.1173  0.1424  0.2466
 1031YOPC   C2B14798  16.354  17.398   6.975  0.2830  0.3185 -0.1372
 1031YOPC   D3B14799  16.569  17.744   6.748 -0.0630  0.0119  0.0603
 1031YOPC   C4B14800  16.706  17.782   6.272  0.0732 -0.2023  0.3769
 1032YOPC   NC314801  11.631   8.006   6.022  0.1076  0.1378  0.4280
 1032YOPC   PO414802  11.146   7.744   6.043 -0.1517  0.0721  0.0312
 1032YOPC   GL114803  11.211   7.630   6.415  0.2038  0.0032 -0.1213
 1032YOPC   GL214804  11.355   7.842   6.536  0.0414 -0.4532 -0.1203
 1032YOPC   C1A14805  10.955   7.584   6.908 -0.1891  0.2718 -0.2444
 1032YOPC   D2A14806  10.982   7.593   7.349 -0.0563 -0.4282  0.1020
 1032YOPC   C3A14807  10.961   8.044   7.619 -0.3987 -0.0879  0.0460
 1032YOPC   C4A14808  10.867   8.477   7.798 -0.1227  0.2132  0.1269
 1032YOPC   C1B14809  11.417   7.954   6.918 -0.1573  0.0656 -0.3894
 1032YOPC   C2B14810  11.428   8.033   7.322 -0.0817 -0.0437 -0.4063
 1032YOPC   D3B14811  11.506   7.716   7.732 -0.0048 -0.0366  0.1441
 1032YOPC   C4B14812  11.506   7.509   8.123 -0.0184  0.0641  0.1949
 1033YOPC   NC314813   9.359  11.796   6.365 -0.0891  0.0802 -0.1430
 1033YOPC   PO414814   9.609  12.245   6.496  0.1470  0.0174  0.0199
 1033YOPC   GL114815   9.665  12.151   6.912 -0.0002  0.3261 -0.0741
 1033YOPC   GL214816   9.568  12.347   7.275 -0.1014  0.0073 -0.0879
 1033YOPC   C1A14817   9.798  11.808   7.163  0.2250 -0.1856  0.0337
 1033YOPC   D2A14818   9.847  11.742   7.512 -0.0536 -0.1972  0.0889
 1033YOPC   C3A14819   9.526  11.776   7.881 -0.0551  0.1584  0.1216
 1033YOPC   C4A14820   9.502  11.702   8.306 -0.0456  0.4138 -0.1300
 1033YOPC   C1B14821   9.886  12.266   7.473 -0.1832  0.2004  0.1159
 1033YOPC   C2B14822  10.053  12.548   7.824 -0.0194 -0.0018 -0.0625
 1033YOPC   D3B14823   9.922  12.912   8.018 -0.0722  0.0843 -0.0504
 1033YOPC   C4B14824   9.555  13.010   8.287  0.0045 -0.2579 -0.1311
 1034YOPC   NC314825   5.749  12.412   6.171  0.0134 -0.1021 -0.0307
 1034YOPC   PO414826   5.389  12.652   6.130  0.0001 -0.1223  0.0325
 1034YOPC   GL114827   5.680  12.736   6.562 -0.3152  0.2638 -0.0653
 1034YOPC   GL214828   5.646  13.020   6.710  0.1463 -0.0266  0.1397
 1034YOPC   C1A14829   5.625  12.446   6.898 -0.1604  0.1782 -0.2250
 1034YOPC   D2A14830   5.480  12.474   7.323  0.3310 -0.1297 -0.3412
 1034YOPC   C3A14831   5.538  12.053   7.454 -0.3345  0.0309  0.1351
 1034YOPC   C4A14832   5.763  11.714   7.679  0.1017 -0.0253 -0.0575
 1034YOPC   C1B14833   5.498  12.951   7.156 -0.1161  0.0879 -0.2772
 1034YOPC   C2B14834   5.569  12.921   7.575  0.3565 -0.0628 -0.0455
 1034YOPC   D3B14835   5.721  13.045   8.070 -0.2185 -0.2822  0.1533
 1034YOPC   C4B14836   5.626  13.438   8.299 -0.1386 -0.1014 -0.0109
 1035YOPC   NC314837  12.845   3.495   5.613 -0.3766 -0.2193  0.0654
 1035YOPC   PO414838  13.134   3.277   5.960  0.1024 -0.1152  0.2392
 1035YOPC   GL114839  13.399   3.092   6.224 -0.1940  0.4290  0.1768
 1035YOPC   GL214840  13.413   3.027   6.556 -0.2042 -0.0705 -0.1974
 1035YOPC   C1A14841  13.597   2.604   6.398 -0.0232  0.1287 -0.0159
 1035YOPC   D2A14842  13.454   2.213   6.334 -0.1965 -0.0327  0.0555
 1035YOPC   C3A14843  13.487   2.123   6.686 -0.0485  0.1914 -0.0262
 1035YOPC   C4A14844  13.789   2.016   7.062  0.0277 -0.1162  0.1247
 1035YOPC   C1B14845  13.505   2.820   6.865  0.0882  0.1696 -0.1696
 1035YOPC   C2B14846  13.675   2.463   7.008 -0.0614  0.0309  0.1947
 1035YOPC   D3B14847  13.829   2.425   7.489 -0.0960 -0.1064 -0.0690
 1035YOPC   C4B14848  13.874   2.434   7.935  0.1303  0.0293 -0.0649
 1036YOPC   NC314849  15.636  13.749   6.211  0.1509 -0.1630 -0.0234
 1036YOPC   PO414850  16.170  13.884   6.089  0.0143  0.2328 -0.2113
 1036YOPC   GL114851  16.236  13.875   6.613  0.0075  0.2160 -0.1297
 1036YOPC   GL214852  16.250  13.495   6.503 -0.0731 -0.4776  0.2882
 1036YOPC   C1A14853  16.249  13.884   7.032 -0.0448 -0.0368 -0.0285
 1036YOPC   D2A14854  16.173  13.981   7.581 -0.0444  0.1450 -0.0169
 1036YOPC   C3A14855  15.768  14.171   7.783 -0.1055 -0.5489  0.0710
 1036YOPC   C4A14856  15.548  14.336   8.119 -0.0402  0.2428 -0.4617
 1036YOPC   C1B14857  15.923  13.422   6.798 -0.0705 -0.0231  0.2071
 1036YOPC   C2B14858  16.065  13.202   7.169 -0.0755  0.1180 -0.0551
 1036YOPC   D3B14859  16.038  13.441   7.574  0.1205  0.0677 -0.0971
 1036YOPC   C4B14860  15.817  13.686   7.835  0.0120  0.1574 -0.1349
 1037YOPC   NC314861  10.475  14.506   5.881  0.0091  0.0733  0.1625
 1037YOPC   PO414862  10.308  14.749   6.224  0.3646 -0.0354 -0.4738
 1037YOPC   GL114863  10.296  14.598   6.665  0.1466  0.0226  0.3047
 1037YOPC   GL214864  10.148  14.341   6.827  0.2850  0.0437 -0.3233
 1037YOPC   C1A14865  10.166  14.723   7.081  0.2760  0.1019 -0.0831
 1037YOPC   D2A14866   9.930  14.942   7.316 -0.3481 -0.3986  0.0747
 1037YOPC   C3A14867   9.987  14.891   7.641 -0.0526  0.1778 -0.2130
 1037YOPC   C4A14868   9.987  15.141   7.944 -0.1013 -0.0073 -0.0688
 1037YOPC   C1B14869  10.048  14.138   7.157 -0.0930  0.2163  0.2615
 1037YOPC   C2B14870  10.012  14.350   7.633  0.2852  0.0504  0.1787
 1037YOPC   D3B14871  10.010  14.523   7.979 -0.0256  0.1087  0.1715
 1037YOPC   C4B14872   9.833  14.830   8.365 -0.0669  0.2457 -0.3220
 1038YOPC   NC314873   2.743  16.527   6.175  0.0292  0.2439  0.1083
 1038YOPC   PO414874   3.151  16.440   6.293 -0.0114 -0.0646 -0.1778
 1038YOPC   GL114875   3.207  16.275   6.609 -0.3082 -0.2510 -0.1101
 1038YOPC   GL214876   3.320  15.990   6.663 -0.0390 -0.1921  0.1582
 1038YOPC   C1A14877   3.079  16.417   6.949 -0.1798  0.4890  0.1306
 1038YOPC   D2A14878   3.124  16.592   7.401 -0.0633 -0.0104 -0.0010
 1038YOPC   C3A14879   2.879  16.663   7.767  0.2684  0.3301 -0.0044
 1038YOPC   C4A14880   2.648  16.716   8.181  0.4408 -0.0002 -0.2797
 1038YOPC   C1B14881   3.479  16.084   7.068 -0.0046 -0.0866  0.3083
 1038YOPC   C2B14882   3.674  16.213   7.444 -0.0213  0.2925  0.3211
 1038YOPC   D3B14883   3.706  16.031   7.853 -0.2000  0.0167 -0.5573
 1038YOPC   C4B14884   3.868  15.738   8.203 -0.1362  0.1890 -0.2449
 1039YOPC   NC314885   9.400   3.611   5.990  0.1065  0.1633 -0.1016
 1039YOPC   PO414886   9.301   4.091   6.003 -0.0227 -0.0415 -0.2905
 1039YOPC   GL114887   9.361   4.091   6.428 -0.0560  0.0584  0.0965
 1039YOPC   GL214888   9.364   4.368   6.494  0.3356  0.1426  0.1705
 1039YOPC   C1A14889   9.473   3.973   6.806 -0.1244 -0.1432 -0.0375
 1039YOPC   D2A14890   9.384   4.062   7.247  0.1678  0.1828  0.2329
 1039YOPC   C3A14891   9.827   4.071   7.473 -0.0926 -0.0843  0.1925
 1039YOPC   C4A14892  10.191   3.884   7.606 -0.2024  0.2655  0.1350
 1039YOPC   C1B14893   9.226   4.535   6.823 -0.1217  0.1598 -0.2178
 1039YOPC   C2B14894   9.111   4.429   7.261 -0.0527 -0.2979  0.2437
 1039YOPC   D3B14895   9.547   4.519   7.472  0.5869  0.0577 -0.0556
 1039YOPC   C4B14896   9.693   4.865   7.717 -0.1874 -0.3298 -0.1154
 1040YOPC   NC314897  10.477  13.144   5.724  0.2629  0.3038  0.0786
 1040YOPC   PO414898  10.326  13.374   6.075 -0.0143  0.1867 -0.1184
 1040YOPC   GL114899  10.445  13.400   6.537 -0.0894  0.3758  0.1553
 1040YOPC   GL214900  10.132  13.324   6.639  0.2276 -0.1286  0.5573
 1040YOPC   C1A14901  10.515  13.125   6.909  0.3637  0.0985  0.2263
 1040YOPC   D2A14902  10.872  12.825   7.176  0.2181  0.1278  0.1201
 1040YOPC   C3A14903  11.282  13.043   7.263  0.0496  0.1106  0.2092
 1040YOPC   C4A14904  11.567  12.760   6.943 -0.0024 -0.2387  0.2232
 1040YOPC   C1B14905  10.083  13.247   7.127  0.0833 -0.2045 -0.0903
 1040YOPC   C2B14906  10.011  13.259   7.550 -0.1634  0.2069  0.2496
 1040YOPC   D3B14907   9.705  13.582   7.735 -0.1252 -0.0986 -0.1612
 1040YOPC   C4B14908   9.442  13.660   8.106  0.1339  0.1472 -0.0092
 1041YOPC   NC314909  15.843   1.741   5.226  0.4047  0.0532  0.0565
 1041YOPC   PO414910  15.582   1.967   5.506 -0.3087 -0.1911 -0.4002
 1041YOPC   GL114911  15.814   1.948   5.868 -0.0342  0.3163 -0.3090
 1041YOPC   GL214912  16.102   2.086   5.817 -0.0445  0.0477  0.1459
 1041YOPC   C1A14913  15.628   2.016   6.287 -0.0993 -0.0671 -0.3476
 1041YOPC   D2A14914  15.216   2.040   6.536 -0.0033  0.0517  0.0491
 1041YOPC   C3A14915  15.056   1.800   6.875 -0.2267 -0.1395 -0.2003
 1041YOPC   C4A14916  14.838   1.413   7.076 -0.0950 -0.0064  0.2487
 1041YOPC   C1B14917  16.282   1.983   6.176 -0.4088  0.0168 -0.1353
 1041YOPC   C2B14918  16.429   1.877   6.466  0.1763 -0.0067 -0.0337
 1041YOPC   D3B14919  16.346   1.769   6.766 -0.0194  0.2147 -0.0326
 1041YOPC   C4B14920  16.052   1.617   7.010  0.2198  0.1342  0.2062
 1042YOPC   NC314921   8.488  12.129   6.294 -0.3718 -0.2601  0.3179
 1042YOPC   PO414922   8.238  12.564   6.379  0.1979 -0.1344 -0.0143
 1042YOPC   GL114923   8.001  12.526   6.683 -0.1706  0.3889  0.2973
 1042YOPC   GL214924   7.891  12.179   6.704  0.1980  0.2328  0.0421
 1042YOPC   C1A14925   8.002  12.714   7.049 -0.4205 -0.0357  0.2010
 1042YOPC   D2A14926   7.903  12.944   7.456 -0.0328 -0.2993 -0.0772
 1042YOPC   C3A14927   7.735  12.716   7.761 -0.0249 -0.0336  0.1614
 1042YOPC   C4A14928   7.473  12.479   8.154 -0.1086 -0.2071  0.0351
 1042YOPC   C1B14929   7.747  12.256   7.116 -0.3321  0.1226 -0.0165
 1042YOPC   C2B14930   7.608  12.427   7.353 -0.2119 -0.0925 -0.4117
 1042YOPC   D3B14931   7.547  12.259   7.739  0.0579  0.1339  0.0296
 1042YOPC   C4B14932   7.895  12.234   8.144  0.1911 -0.1976  0.2788
 1043YOPC   NC314933  14.079   1.893   5.679  0.2749  0.1036  0.1392
 1043YOPC   PO414934  13.701   1.739   5.776  0.0871 -0.0230  0.0980
 1043YOPC   GL114935  13.906   1.771   6.173  0.0478  0.0480 -0.1491
 1043YOPC   GL214936  13.772   1.795   6.435 -0.0704 -0.3800 -0.1214
 1043YOPC   C1A14937  14.283   1.840   6.403  0.2589  0.0521 -0.2308
 1043YOPC   D2A14938  14.523   1.801   6.822 -0.2068 -0.0929  0.4521
 1043YOPC   C3A14939  14.589   1.821   7.280 -0.2946  0.1177  0.2592
 1043YOPC   C4A14940  14.838   1.538   7.505 -0.0590 -0.1590 -0.0019
 1043YOPC   C1B14941  14.056   1.636   6.798  0.1461 -0.1183  0.0902
 1043YOPC   C2B14942  14.103   1.745   7.247  0.2754  0.1618  0.1055
 1043YOPC   D3B14943  13.933   1.332   7.364  0.2175  0.1409  0.2609
 1043YOPC   C4B14944  14.033   0.891   7.383 -0.1266 -0.0776 -0.4313
 1044YOPC   NC314945   0.400   5.493   5.398  0.0169  0.0054  0.1486
 1044YOPC   PO414946  -0.039   5.520   5.382  0.1854  0.1035 -0.0084
 1044YOPC   GL114947  -0.322   5.702   5.738  0.2195 -0.0815  0.2001
 1044YOPC   GL214948  -0.681   5.573   5.811  0.1760 -0.1339  0.0733
 1044YOPC   C1A14949  -0.400   5.937   6.076 -0.2025 -0.1322 -0.0813
 1044YOPC   D2A14950  -0.807   6.161   6.295 -0.1109 -0.1763 -0.3671
 1044YOPC   C3A14951  -0.857   6.259   6.818  0.0461 -0.3680  0.0394
 1044YOPC   C4A14952  -0.918   6.566   7.252 -0.1657 -0.0383  0.0132
 1044YOPC   C1B14953  -0.650   5.540   6.246 -0.1778  0.2589  0.1779
 1044YOPC   C2B14954  -0.626   5.352   6.615 -0.3251 -0.1004  0.0343
 1044YOPC   D3B14955  -0.428   5.366   6.916 -0.1332 -0.0225 -0.0629
 1044YOPC   C4B14956  -0.692   5.053   7.105 -0.1772 -0.4259  0.0358
 1045YOPC   NC314957   5.367  11.093   5.884 -0.2239  0.2700  0.0179
 1045YOPC   PO414958   5.756  11.141   6.083  0.0281  0.0576  0.0327
 1045YOPC   GL114959   5.642  11.097   6.465  0.0415  0.2858 -0.2377
 1045YOPC   GL214960   5.720  10.686   6.620 -0.2255 -0.0561  0.0322
 1045YOPC   C1A14961   5.654  11.193   6.945  0.0939  0.0529  0.0893
 1045YOPC   D2A14962   5.637  11.292   7.379 -0.2688 -0.0273 -0.0942
 1045YOPC   C3A14963   5.535  11.245   7.751  0.1231  0.3551  0.2454
 1045YOPC   C4A14964   5.487  11.177   8.159 -0.2819 -0.1133  0.2662
 1045YOPC   C1B14965   6.076  10.551   6.874  0.1813  0.2321  0.1633
 1045YOPC   C2B14966   6.080  10.380   7.309 -0.2584 -0.2590 -0.0684
 1045YOPC   D3B14967   5.976  10.456   7.732  0.0719 -0.0161 -0.0960
 1045YOPC   C4B14968   5.852  10.869   7.911  0.0277  0.0806 -0.1390
 1046YOPC   NC314969  14.697  17.544   6.100  0.0721  0.2128 -0.1414
 1046YOPC   PO414970  15.107  17.332   5.862  0.0952  0.2297 -0.0086
 1046YOPC   GL114971  15.329  17.277   6.247  0.0466  0.0745 -0.0903
 1046YOPC   GL214972  15.665  17.515   6.374 -0.1711  0.0047 -0.1870
 1046YOPC   C1A14973  15.501  17.211   6.683  0.1386 -0.1713 -0.0710
 1046YOPC   D2A14974  15.519  17.137   7.119  0.0102 -0.0356 -0.1108
 1046YOPC   C3A14975  15.138  16.862   7.262  0.2889 -0.1178  0.0206
 1046YOPC   C4A14976  15.006  16.561   7.513 -0.1521 -0.1845  0.1954
 1046YOPC   C1B14977  15.976  17.645   6.743  0.3123  0.0120  0.2038
 1046YOPC   C2B14978  15.930  17.474   7.197 -0.1929  0.1542 -0.1088
 1046YOPC   D3B14979  15.884  17.854   7.453 -0.3469 -0.2961  0.1913
 1046YOPC   C4B14980  15.717  18.176   7.387  0.0518 -0.3872  0.2244
 1047YOPC   NC314981  16.016   7.413   5.251 -0.0332  0.0323  0.0786
 1047YOPC   PO414982  16.296   7.366   5.512 -0.3051  0.3271  0.0708
 1047YOPC   GL114983  16.204   7.315   5.889  0.0492  0.2002  0.1052
 1047YOPC   GL214984  16.099   7.509   6.053  0.1867 -0.0982 -0.3318
 1047YOPC   C1A14985  16.409   7.220   6.236  0.0745  0.0088  0.0111
 1047YOPC   D2A14986  16.656   7.064   6.592 -0.2211 -0.0596  0.0131
 1047YOPC   C3A14987  16.563   6.624   6.810  0.0865  0.0393 -0.3778
 1047YOPC   C4A14988  16.559   6.450   7.204 -0.1255 -0.0059 -0.1857
 1047YOPC   C1B14989  16.345   7.744   6.251 -0.0826 -0.2244  0.1044
 1047YOPC   C2B14990  16.805   7.789   6.503  0.0475  0.1037  0.1965
 1047YOPC   D3B14991  16.767   7.713   6.936  0.1987 -0.0739 -0.0789
 1047YOPC   C4B14992  16.822   7.925   7.232 -0.0739 -0.0358  0.0342
 1048YOPC   NC314993   6.543  12.342   6.187 -0.0239  0.0952 -0.0056
 1048YOPC   PO414994   6.144  12.148   6.158 -0.2362  0.0589  0.1353
 1048YOPC   GL114995   6.051  12.316   6.626 -0.0160 -0.0242  0.3247
 1048YOPC   GL214996   5.846  12.073   6.650 -0.0168  0.0386  0.2120
 1048YOPC   C1A14997   6.306  12.323   7.017  0.0616  0.1684  0.0519
 1048YOPC   D2A14998   6.621  12.201   7.217 -0.1514 -0.2255 -0.2789
 1048YOPC   C3A14999   6.453  11.803   7.392  0.1542  0.0154  0.0201
 1048YOPC   C4A15000   6.673  11.457   7.512 -0.1558 -0.1077 -0.1141
 1048YOPC   C1B15001   5.882  12.056   7.131 -0.0346  0.0007 -0.1062
 1048YOPC   C2B15002   6.069  12.084   7.485 -0.0905  0.3261  0.1643
 1048YOPC   D3B15003   6.029  12.039   7.923 -0.0275 -0.0590  0.1634
 1048YOPC   C4B15004   6.076  11.922   8.272 -0.3183 -0.2501  0.1070
 1049YOPC   NC315005  10.678   2.009   5.875  0.0485 -0.0403 -0.0798
 1049YOPC   PO415006  10.849   2.530   5.848  0.2277 -0.0390 -0.1509
 1049YOPC   GL115007  10.775   2.483   6.199  0.0002 -0.0231 -0.1969
 1049YOPC   GL215008  10.773   2.191   6.393 -0.0495 -0.0593 -0.2525
 1049YOPC   C1A15009  10.421   2.556   6.453  0.0853 -0.1545  0.3574
 1049YOPC   D2A15010  10.290   2.734   6.746  0.3155 -0.1283  0.1377
 1049YOPC   C3A15011  10.033   2.588   6.938  0.0214 -0.1899  0.0679
 1049YOPC   C4A15012   9.722   2.312   6.736  0.3045  0.1138 -0.1257
 1049YOPC   C1B15013  11.092   2.304   6.712 -0.4688  0.0262  0.0024
 1049YOPC   C2B15014  11.156   2.549   7.137  0.1641  0.0098  0.3776
 1049YOPC   D3B15015  11.510   2.522   7.323 -0.0546  0.0502  0.1107
 1049YOPC   C4B15016  11.935   2.390   7.252 -0.1112  0.0594  0.1108
 1050YOPC   NC315017   7.363  15.610   6.211  0.1558  0.0848 -0.0182
 1050YOPC   PO415018   7.669  15.329   6.443 -0.0789 -0.1482 -0.0692
 1050YOPC   GL115019   7.767  15.364   6.842  0.2762 -0.0203  0.0298
 1050YOPC   GL215020   8.025  15.576   6.757  0.2925  0.0477  0.1574
 1050YOPC   C1A15021   7.799  15.552   7.268  0.2148  0.2443 -0.1562
 1050YOPC   D2A15022   7.940  15.673   7.773  0.2253  0.2776 -0.2887
 1050YOPC   C3A15023   7.864  16.049   7.996  0.3619 -0.1142 -0.4490
 1050YOPC   C4A15024   7.706  16.342   8.289  0.0981  0.2338  0.1736
 1050YOPC   C1B15025   8.068  15.831   6.992 -0.0666  0.0271 -0.2628
 1050YOPC   C2B15026   8.002  16.182   7.099  0.0068  0.1261 -0.0902
 1050YOPC   D3B15027   8.158  16.127   7.482 -0.1070 -0.2851  0.1171
 1050YOPC   C4B15028   8.347  16.198   7.881  0.1460 -0.1336  0.0792
 1051YOPC   NC315029  13.806  17.329   5.626  0.2422 -0.1527  0.5566
 1051YOPC   PO415030  13.373  17.243   5.966 -0.2213 -0.1522  0.0492
 1051YOPC   GL115031  13.549  17.425   6.397  0.3224 -0.0016 -0.0949
 1051YOPC   GL215032  13.247  17.384   6.524 -0.1318  0.1782 -0.0142
 1051YOPC   C1A15033  13.965  17.637   6.630  0.2187  0.2710  0.0305
 1051YOPC   D2A15034  14.444  17.846   6.588  0.1470 -0.1696  0.1809
 1051YOPC   C3A15035  14.732  17.827   6.900 -0.1115  0.2185 -0.2126
 1051YOPC   C4A15036  14.995  17.880   7.219  0.3721 -0.0119  0.0840
 1051YOPC   C1B15037  13.289  17.207   6.909  0.3075  0.2913 -0.1075
 1051YOPC   C2B15038  13.330  17.233   7.264 -0.0052  0.3543 -0.0381
 1051YOPC   D3B15039  13.260  17.521   7.553 -0.3681  0.0943 -0.0818
 1051YOPC   C4B15040  12.932  17.526   7.798  0.1163  0.1512 -0.0551
 1052YOPC   NC315041   3.564   3.281   5.483 -0.2531 -0.0405 -0.0496
 1052YOPC   PO415042   3.524   3.660   5.606 -0.1177  0.1010  0.1018
 1052YOPC   GL115043   3.535   3.668   5.991 -0.0430 -0.2006 -0.2025
 1052YOPC   GL215044   3.562   3.909   6.191 -0.0392 -0.1518 -0.0135
 1052YOPC   C1A15045   3.578   3.460   6.390 -0.0002  0.0154 -0.0161
 1052YOPC   D2A15046   3.534   3.400   6.819  0.3152 -0.0742 -0.0554
 1052YOPC   C3A15047   3.382   3.607   7.144 -0.1036  0.0895  0.1392
 1052YOPC   C4A15048   3.079   3.973   7.304  0.0100  0.0226  0.1295
 1052YOPC   C1B15049   3.878   4.192   6.252  0.1205 -0.0077  0.1339
 1052YOPC   C2B15050   4.187   4.194   6.631 -0.0678 -0.0402 -0.3061
 1052YOPC   D3B15051   4.540   3.949   6.693 -0.0695 -0.3962 -0.3100
 1052YOPC   C4B15052   4.852   3.600   6.523  0.2300  0.3762 -0.1549
 1053YOPC   NC315053   6.036   9.684   6.283 -0.0322 -0.1386 -0.4903
 1053YOPC   PO415054   5.783  10.010   6.341  0.0488 -0.1444 -0.5698
 1053YOPC   GL115055   5.480   9.740   6.570 -0.1122  0.0747 -0.2911
 1053YOPC   GL215056   5.176   9.869   6.682 -0.2972  0.1638 -0.0197
 1053YOPC   C1A15057   5.339   9.461   6.841  0.1277  0.1051  0.0388
 1053YOPC   D2A15058   5.135   9.213   7.021  0.1360 -0.1943  0.3134
 1053YOPC   C3A15059   4.701   9.401   7.096  0.3081  0.1258 -0.3672
 1053YOPC   C4A15060   4.433   9.738   7.106 -0.0557  0.3863 -0.2567
 1053YOPC   C1B15061   5.358   9.977   7.052 -0.0544 -0.0205  0.1252
 1053YOPC   C2B15062   5.581  10.162   7.384  0.1680  0.2605  0.1604
 1053YOPC   D3B15063   5.487  10.196   7.894 -0.1139  0.1455  0.3944
 1053YOPC   C4B15064   5.800  10.199   8.280 -0.0205 -0.0713 -0.2020
 1054YOPC   NC315065  13.630   3.991   5.623 -0.2398  0.1064 -0.2782
 1054YOPC   PO415066  14.054   4.184   5.545 -0.2009 -0.2220 -0.1872
 1054YOPC   GL115067  14.297   4.054   5.877 -0.1381 -0.1352 -0.0670
 1054YOPC   GL215068  13.974   3.839   5.972  0.1138 -0.1787 -0.1641
 1054YOPC   C1A15069  14.692   4.070   6.042  0.0864  0.0347  0.1537
 1054YOPC   D2A15070  14.922   4.387   6.240 -0.0963  0.1433  0.3168
 1054YOPC   C3A15071  15.264   4.249   6.456 -0.1692  0.2688 -0.0159
 1054YOPC   C4A15072  15.548   3.937   6.503 -0.0069  0.0644  0.0164
 1054YOPC   C1B15073  13.987   4.119   6.269 -0.3244  0.3769  0.1896
 1054YOPC   C2B15074  14.092   4.244   6.698 -0.1636 -0.1060 -0.1081
 1054YOPC   D3B15075  14.236   4.109   7.098  0.2375  0.2433 -0.1227
 1054YOPC   C4B15076  14.231   4.295   7.518  0.3250  0.0375 -0.2477
 1055YOPC   NC315077   2.533   2.740   5.231 -0.1494  0.1430 -0.0762
 1055YOPC   PO415078   2.652   2.320   5.431  0.0106 -0.2675 -0.1311
 1055YOPC   GL115079   2.855   2.443   5.768  0.2385  0.0336 -0.3420
 1055YOPC   GL215080   3.204   2.259   5.768  0.2105  0.0096  0.2158
 1055YOPC   C1A15081   3.127   2.765   6.059  0.2338 -0.1505  0.2412
 1055YOPC   D2A15082   2.929   2.817   6.491  0.0662  0.2600  0.1772
 1055YOPC   C3A15083   3.150   3.006   6.871  0.2000  0.0925  0.1015
 1055YOPC   C4A15084   3.444   3.007   7.157  0.1621 -0.1255  0.0563
 1055YOPC   C1B15085   3.334   2.324   6.290  0.4302  0.4082  0.3173
 1055YOPC   C2B15086   3.172   2.457   6.592 -0.0797  0.2755  0.0703
 1055YOPC   D3B15087   3.428   2.516   7.006  0.2965  0.3102  0.1229
 1055YOPC   C4B15088   3.358   2.502   7.531  0.0560  0.4165  0.0468
 1056YOPC   NC315089  10.074  10.775   5.779 -0.0759 -0.3344  0.1725
 1056YOPC   PO415090   9.786  10.786   6.171 -0.2771 -0.2059  0.0142
 1056YOPC   GL115091  10.038  10.829   6.582  0.0600 -0.0124  0.1401
 1056YOPC   GL215092  10.200  10.601   6.634 -0.0496 -0.1127 -0.0625
 1056YOPC   C1A15093  10.342  11.050   6.779  0.3085 -0.2911  0.1567
 1056YOPC   D2A15094  10.603  11.229   7.105 -0.0857  0.2054 -0.2207
 1056YOPC   C3A15095  10.779  11.125   7.460  0.0316 -0.0572  0.0326
 1056YOPC   C4A15096  10.813  11.213   7.899 -0.1516 -0.1347  0.0246
 1056YOPC   C1B15097  10.141  10.223   6.854  0.0456  0.1869  0.1430
 1056YOPC   C2B15098  10.015   9.799   6.954  0.0942 -0.0188 -0.1115
 1056YOPC   D3B15099  10.123   9.920   7.377 -0.1366 -0.2472  0.3122
 1056YOPC   C4B15100  10.347   9.909   7.786  0.1268  0.2237  0.3027
 1057YOPC   NC315101   3.135  15.947   6.165  0.2106  0.0367 -0.0555
 1057YOPC   PO415102   2.811  15.702   5.961 -0.1708  0.2561  0.2651
 1057YOPC   GL115103   2.574  15.825   6.312 -0.1129  0.3877  0.2198
 1057YOPC   GL215104   2.719  16.129   6.415 -0.0388 -0.2587  0.0459
 1057YOPC   C1A15105   2.390  15.852   6.724  0.0631 -0.0299  0.2167
 1057YOPC   D2A15106   2.337  15.887   7.070  0.1345  0.0070 -0.3281
 1057YOPC   C3A15107   2.479  15.722   7.520 -0.0227  0.0050 -0.0982
 1057YOPC   C4A15108   2.833  15.705   7.860  0.0169  0.1797  0.0341
 1057YOPC   C1B15109   2.600  16.278   6.810  0.1812 -0.2157  0.2997
 1057YOPC   C2B15110   2.696  16.177   7.333  0.1055  0.3612  0.0461
 1057YOPC   D3B15111   3.010  16.163   7.596  0.1685 -0.2162 -0.1501
 1057YOPC   C4B15112   3.197  16.108   7.928  0.0936  0.1104 -0.3037
 1058YOPC   NC315113   1.449  14.921   6.145  0.1982  0.1372 -0.0551
 1058YOPC   PO415114   1.014  15.034   6.253  0.2731  0.4624 -0.1784
 1058YOPC   GL115115   1.005  15.382   6.509 -0.1305  0.1335  0.1199
 1058YOPC   GL215116   1.352  15.467   6.362  0.2160 -0.0880  0.2682
 1058YOPC   C1A15117   0.827  15.323   6.977 -0.2057 -0.0051  0.1106
 1058YOPC   D2A15118   0.764  15.433   7.475  0.0895  0.1246  0.4863
 1058YOPC   C3A15119   1.012  15.667   7.699 -0.1417  0.1855  0.0210
 1058YOPC   C4A15120   1.433  15.638   7.700  0.0331  0.5928  0.0105
 1058YOPC   C1B15121   1.467  15.518   6.746  0.5044  0.0879 -0.2736
 1058YOPC   C2B15122   1.916  15.239   6.864  0.1107 -0.2016 -0.3574
 1058YOPC   D3B15123   1.750  14.971   7.263  0.0963 -0.1141 -0.1811
 1058YOPC   C4B15124   1.790  15.115   7.728  0.0769 -0.2867  0.0768
 1059YOPC   NC315125   7.200  13.319   6.021  0.0341 -0.0807  0.1625
 1059YOPC   PO415126   7.454  13.646   6.001 -0.1234  0.2268  0.1080
 1059YOPC   GL115127   7.317  13.551   6.479  0.3022 -0.0785 -0.1160
 1059YOPC   GL215128   7.120  13.240   6.547  0.3242  0.3025  0.0596
 1059YOPC   C1A15129   7.349  13.485   6.910  0.3600 -0.2315 -0.3335
 1059YOPC   D2A15130   7.258  13.707   7.323  0.3788  0.0979 -0.3833
 1059YOPC   C3A15131   7.515  13.632   7.666  0.1032  0.0830 -0.2824
 1059YOPC   C4A15132   7.700  13.656   8.060  0.0300  0.0689 -0.0135
 1059YOPC   C1B15133   7.090  13.067   6.909 -0.1551  0.1037 -0.0900
 1059YOPC   C2B15134   6.929  13.100   7.283  0.1543  0.3651 -0.0443
 1059YOPC   D3B15135   7.018  13.360   7.711 -0.4647 -0.2110 -0.1100
 1059YOPC   C4B15136   7.242  13.359   8.052  0.1481  0.4247 -0.0369
 1060YOPC   NC315137   0.283  15.956   5.817 -0.0572 -0.1736  0.0228
 1060YOPC   PO415138   0.834  15.911   5.788  0.0195 -0.1881 -0.3364
 1060YOPC   GL115139   0.736  16.035   6.146 -0.0946  0.1680  0.2410
 1060YOPC   GL215140   0.983  15.874   6.384 -0.3014 -0.0044  0.1627
 1060YOPC   C1A15141   0.593  16.227   6.437  0.2211  0.1268 -0.1583
 1060YOPC   D2A15142   0.589  16.307   6.836  0.0206 -0.0160  0.0815
 1060YOPC   C3A15143   0.748  16.141   7.142  0.0743  0.1913  0.2303
 1060YOPC   C4A15144   0.659  16.008   7.470  0.4613 -0.1079  0.2068
 1060YOPC   C1B15145   0.918  15.764   6.793  0.0662 -0.1466 -0.1705
 1060YOPC   C2B15146   1.137  15.638   7.239 -0.1117  0.0991  0.1743
 1060YOPC   D3B15147   1.628  15.575   7.253  0.3406  0.1978 -0.2078
 1060YOPC   C4B15148   2.146  15.439   7.222 -0.0094 -0.3211 -0.2266
 1061YOPC   NC315149   3.203   4.974   5.514 -0.0825 -0.0955 -0.0656
 1061YOPC   PO415150   2.734   4.932   5.601  0.1880 -0.1133 -0.0758
 1061YOPC   GL115151   2.630   4.827   6.078  0.5813  0.0917  0.4342
 1061YOPC   GL215152   2.679   4.540   6.065  0.1639 -0.2507 -0.1118
 1061YOPC   C1A15153   2.753   4.817   6.573  0.0934 -0.2457  0.1106
 1061YOPC   D2A15154   2.776   4.680   6.902  0.3970  0.1376 -0.0614
 1061YOPC   C3A15155   3.048   4.491   7.228 -0.1183 -0.0996  0.2490
 1061YOPC   C4A15156   3.430   4.329   7.373 -0.1268 -0.1705  0.2163
 1061YOPC   C1B15157   2.560   4.369   6.494  0.1459 -0.2796  0.0862
 1061YOPC   C2B15158   2.457   4.283   6.900  0.0783  0.0169  0.1880
 1061YOPC   D3B15159   2.557   4.178   7.294 -0.0650 -0.1250  0.3580
 1061YOPC   C4B15160   2.557   4.052   7.683 -0.2371 -0.4726  0.0783
 1062YOPC   NC315161  14.133   4.482   5.107 -0.1949 -0.1001 -0.0659
 1062YOPC   PO415162  14.381   4.564   5.512  0.0284 -0.3363 -0.0787
 1062YOPC   GL115163  14.370   4.644   5.958  0.3999  0.1932  0.2482
 1062YOPC   GL215164  14.454   4.943   6.077 -0.1793  0.0518 -0.0564
 1062YOPC   C1A15165  14.397   4.344   6.320  0.2928  0.1133 -0.2433
 1062YOPC   D2A15166  14.434   3.851   6.569 -0.0803  0.2025 -0.2442
 1062YOPC   C3A15167  14.629   3.760   7.045 -0.0826  0.3816  0.1532
 1062YOPC   C4A15168  14.801   3.685   7.497 -0.0756  0.1179 -0.0078
 1062YOPC   C1B15169  14.584   4.858   6.513  0.1105  0.3158  0.0770
 1062YOPC   C2B15170  14.787   4.974   6.938 -0.0450  0.0504  0.1058
 1062YOPC   D3B15171  14.626   5.120   7.334 -0.2811  0.0971 -0.3020
 1062YOPC   C4B15172  14.623   5.466   7.619  0.0308  0.2679 -0.4530
 1063YOPC   NC315173  13.074  10.477   6.175  0.0310  0.2865 -0.5806
 1063YOPC   PO415174  12.899  10.048   6.042  0.0405 -0.2371 -0.1820
 1063YOPC   GL115175  12.797  10.020   6.460 -0.0510 -0.1505 -0.1425
 1063YOPC   GL215176  12.778  10.381   6.566 -0.1435  0.1034  0.0085
 1063YOPC   C1A15177  12.943  10.031   6.869  0.0654  0.3061 -0.0885
 1063YOPC   D2A15178  13.130  10.173   7.179  0.1302 -0.0425  0.1242
 1063YOPC   C3A15179  13.283   9.877   7.459 -0.0196  0.0348 -0.0850
 1063YOPC   C4A15180  13.318   9.520   7.788  0.1544 -0.0257 -0.1383
 1063YOPC   C1B15181  12.836  10.519   6.974 -0.1837  0.0553 -0.3568
 1063YOPC   C2B15182  12.976  10.577   7.372  0.0938  0.4235 -0.0079
 1063YOPC   D3B15183  12.964  10.288   7.684  0.0699 -0.0840 -0.0589
 1063YOPC   C4B15184  13.120  10.211   8.155  0.0981  0.0065 -0.0388
 1064YOPC   NC315185  11.592   3.886   6.329 -0.1889  0.0024  0.0088
 1064YOPC   PO415186  11.399   3.438   6.269 -0.1420 -0.1260  0.1270
 1064YOPC   GL115187  11.444   3.336   6.664  0.1043  0.0399 -0.1596
 1064YOPC   GL215188  11.780   3.543   6.728 -0.2648  0.2142 -0.2083
 1064YOPC   C1A15189  11.191   3.392   6.988  0.2058  0.2802 -0.2187
 1064YOPC   D2A15190  11.012   3.544   7.323 -0.0140  0.3109 -0.1473
 1064YOPC   C3A15191  11.218   3.380   7.775 -0.1775 -0.1618 -0.2812
 1064YOPC   C4A15192  11.211   3.089   8.067 -0.0698 -0.1925 -0.3033
 1064YOPC   C1B15193  11.969   3.251   7.072  0.0125 -0.0315 -0.2821
 1064YOPC   C2B15194  11.927   2.914   7.496  0.2911 -0.1146  0.0917
 1064YOPC   D3B15195  11.688   2.872   7.952  0.0037 -0.4279 -0.0976
 1064YOPC   C4B15196  11.461   2.769   8.361  0.2864 -0.3493  0.0255
 1065YOPC   NC315197   6.662  11.509   5.874  0.0675 -0.1004 -0.1181
 1065YOPC   PO415198   6.534  11.839   6.125 -0.3926 -0.3099 -0.0028
 1065YOPC   GL115199   6.721  11.887   6.570 -0.4229  0.1179  0.1302
 1065YOPC   GL215200   6.565  12.084   6.605 -0.0178  0.1272 -0.1353
 1065YOPC   C1A15201   6.815  11.784   6.935 -0.1104 -0.0333  0.0689
 1065YOPC   D2A15202   7.074  11.558   7.273  0.0066  0.0797  0.0626
 1065YOPC   C3A15203   7.097  11.528   7.759  0.1149  0.0700 -0.0715
 1065YOPC   C4A15204   7.192  11.941   7.989 -0.0260  0.0248  0.0713
 1065YOPC   C1B15205   6.297  11.878   6.872 -0.0621  0.1722 -0.0103
 1065YOPC   C2B15206   6.002  11.569   7.115  0.1228 -0.0414  0.4767
 1065YOPC   D3B15207   5.581  11.666   7.084  0.0418 -0.0179 -0.1659
 1065YOPC   C4B15208   5.240  12.002   7.029 -0.3259 -0.0042  0.0092
 1066YOPC   NC315209  14.721  11.698   6.124 -0.0966 -0.0829 -0.0483
 1066YOPC   PO415210  14.574  11.306   6.180  0.2536 -0.2263 -0.0794
 1066YOPC   GL115211  14.803  11.189   6.501  0.0016  0.0387 -0.3829
 1066YOPC   GL215212  14.931  10.920   6.459 -0.0493 -0.1218 -0.1480
 1066YOPC   C1A15213  14.977  11.069   6.949  0.1642 -0.2223  0.1136
 1066YOPC   D2A15214  15.002  10.799   7.269  0.2906 -0.2157 -0.0845
 1066YOPC   C3A15215  14.707  10.965   7.466  0.1047  0.0347  0.0884
 1066YOPC   C4A15216  14.590  11.197   7.898  0.1571  0.0702 -0.1403
 1066YOPC   C1B15217  14.876  10.636   6.773  0.2114 -0.1074 -0.1874
 1066YOPC   C2B15218  14.673  10.482   7.066 -0.3526  0.0051  0.4320
 1066YOPC   D3B15219  14.960  10.289   7.331  0.0886 -0.1025 -0.0109
 1066YOPC   C4B15220  15.408  10.414   7.568 -0.0883  0.1415  0.2822
 1067YOPC   NC315221   9.905   1.960   5.892  0.0214 -0.0566  0.0078
 1067YOPC   PO415222  10.185   2.088   6.059  0.1724  0.0312 -0.2277
 1067YOPC   GL115223  10.218   2.115   6.510  0.0620 -0.0543 -0.0129
 1067YOPC   GL215224  10.066   1.900   6.658 -0.0891 -0.1185  0.0453
 1067YOPC   C1A15225  10.461   2.250   6.879  0.2495 -0.3727 -0.1799
 1067YOPC   D2A15226  10.839   2.157   7.150  0.0867  0.0317  0.1566
 1067YOPC   C3A15227  10.929   1.756   7.276  0.2968 -0.1373 -0.1661
 1067YOPC   C4A15228  10.743   1.531   7.474  0.0415 -0.1775 -0.1308
 1067YOPC   C1B15229   9.983   2.046   7.083  0.0820  0.2505  0.0025
 1067YOPC   C2B15230  10.060   2.340   7.409 -0.0490 -0.0178 -0.1934
 1067YOPC   D3B15231   9.706   2.600   7.589  0.0099 -0.0095 -0.1101
 1067YOPC   C4B15232   9.662   3.131   7.580  0.0890 -0.3413  0.0229
 1068YOPC   NC315233  13.724  10.927   5.992  0.0409  0.1117  0.2105
 1068YOPC   PO415234  13.524  10.517   6.042 -0.0490  0.0411  0.4165
 1068YOPC   GL115235  13.482  10.496   6.464  0.4986 -0.2270 -0.1046
 1068YOPC   GL215236  13.241  10.643   6.642 -0.1547 -0.1126  0.1087
 1068YOPC   C1A15237  13.772  10.595   6.829 -0.2742  0.1022  0.2401
 1068YOPC   D2A15238  13.822  10.594   7.255 -0.2455 -0.2487  0.0309
 1068YOPC   C3A15239  13.983  10.358   7.572 -0.0130 -0.0058 -0.0192
 1068YOPC   C4A15240  14.203   9.978   7.773  0.1343 -0.1313  0.0711
 1068YOPC   C1B15241  13.351  10.583   7.054  0.1390 -0.1703 -0.1650
 1068YOPC   C2B15242  13.420  10.452   7.535 -0.0198 -0.1064 -0.0363
 1068YOPC   D3B15243  13.295  10.701   7.865  0.0777 -0.2089 -0.0609
 1068YOPC   C4B15244  12.883  10.624   8.211  0.4242 -0.1910 -0.2027
 1069YOPC   NC315245   5.317   6.746   6.207  0.1482 -0.1097  0.0462
 1069YOPC   PO415246   5.767   6.685   6.224 -0.0294 -0.3056  0.0584
 1069YOPC   GL115247   5.682   6.632   6.558 -0.0697  0.0508 -0.1260
 1069YOPC   GL215248   5.483   6.910   6.730  0.0466  0.0412  0.0653
 1069YOPC   C1A15249   5.392   6.408   6.759 -0.1576 -0.0585  0.0371
 1069YOPC   D2A15250   5.278   5.956   6.838 -0.0434  0.4111  0.0380
 1069YOPC   C3A15251   5.261   5.800   7.312 -0.4824  0.0837 -0.2579
 1069YOPC   C4A15252   4.961   5.883   7.557 -0.0718 -0.2164 -0.4829
 1069YOPC   C1B15253   5.719   7.094   7.072  0.1207  0.1459  0.2654
 1069YOPC   C2B15254   6.014   7.130   7.383 -0.0741 -0.0532  0.0242
 1069YOPC   D3B15255   6.085   6.902   7.753 -0.1281 -0.1368  0.0618
 1069YOPC   C4B15256   5.861   6.543   7.920 -0.1064 -0.0183  0.0101
 1070YOPC   NC315257   4.217   8.087   5.489 -0.0392  0.2298  0.1818
 1070YOPC   PO415258   4.387   8.392   5.848  0.1536 -0.2676 -0.0886
 1070YOPC   GL115259   4.228   8.301   6.252 -0.1710 -0.1797  0.1262
 1070YOPC   GL215260   4.302   8.466   6.553 -0.0031  0.0721  0.0397
 1070YOPC   C1A15261   3.988   7.979   6.522  0.0699 -0.1517 -0.1021
 1070YOPC   D2A15262   4.065   7.676   6.795  0.0248 -0.2112 -0.0345
 1070YOPC   C3A15263   4.107   7.755   7.210  0.1064  0.2648 -0.1363
 1070YOPC   C4A15264   4.029   7.694   7.647 -0.0270  0.1166 -0.2564
 1070YOPC   C1B15265   4.156   8.289   7.016  0.0589  0.1550 -0.0867
 1070YOPC   C2B15266   3.780   8.107   7.037 -0.2896 -0.0518  0.1060
 1070YOPC   D3B15267   3.503   8.086   7.367 -0.0629 -0.5119  0.0022
 1070YOPC   C4B15268   3.580   7.946   7.763  0.1417 -0.0880  0.2114
 1071YOPC   NC315269   4.593   8.714   6.194  0.0304  0.1556  0.0188
 1071YOPC   PO415270   4.589   9.100   6.127 -0.0368  0.0768  0.0001
 1071YOPC   GL115271   4.469   9.274   6.438  0.2529  0.0114  0.0799
 1071YOPC   GL215272   4.663   9.080   6.709 -0.3078  0.2159  0.0439
 1071YOPC   C1A15273   4.170   9.252   6.776  0.0045  0.2692 -0.1724
 1071YOPC   D2A15274   4.236   9.184   7.182  0.0985  0.0801  0.2853
 1071YOPC   C3A15275   4.072   9.420   7.447 -0.0016 -0.1725 -0.0423
 1071YOPC   C4A15276   4.142   9.672   7.829  0.0345  0.1435  0.0480
 1071YOPC   C1B15277   4.484   8.748   6.893  0.3499  0.0605  0.0729
 1071YOPC   C2B15278   4.400   8.552   7.326  0.0219  0.1825  0.2047
 1071YOPC   D3B15279   4.368   8.961   7.642  0.0202 -0.0010  0.2406
 1071YOPC   C4B15280   4.438   9.080   8.118  0.1351  0.1122 -0.0002
 1072YOPC   NC315281  11.842   1.928   5.881 -0.1212 -0.1971 -0.3595
 1072YOPC   PO415282  12.054   2.331   5.795  0.0417  0.1552  0.1098
 1072YOPC   GL115283  12.176   2.359   6.205  0.0178  0.2680 -0.1703
 1072YOPC   GL215284  12.205   2.036   6.254  0.0092 -0.1211  0.2552
 1072YOPC   C1A15285  12.055   2.533   6.622 -0.3663 -0.0859  0.0300
 1072YOPC   D2A15286  11.991   2.794   6.947 -0.1611 -0.1175 -0.0922
 1072YOPC   C3A15287  11.615   2.982   6.966  0.2250 -0.0750 -0.2137
 1072YOPC   C4A15288  11.434   3.121   7.403 -0.0080  0.1986 -0.0689
 1072YOPC   C1B15289  12.232   1.962   6.651 -0.0225  0.0374  0.3387
 1072YOPC   C2B15290  12.149   1.670   6.922 -0.4460  0.1668  0.3641
 1072YOPC   D3B15291  11.788   1.597   7.148  0.0155  0.0490 -0.0653
 1072YOPC   C4B15292  11.456   1.373   7.365  0.0709 -0.0754  0.2238
 1073YOPC   NC315293   4.763   2.496   5.297  0.2759 -0.0637 -0.1484
 1073YOPC   PO415294   4.537   2.117   5.416 -0.0453  0.1914  0.1706
 1073YOPC   GL115295   4.269   2.325   5.808  0.2103 -0.2588  0.0107
 1073YOPC   GL215296   4.032   2.175   6.031  0.2255  0.0895  0.1042
 1073YOPC   C1A15297   4.171   2.634   6.212 -0.1133  0.0418 -0.2047
 1073YOPC   D2A15298   4.311   2.815   6.575 -0.3676  0.2125 -0.2416
 1073YOPC   C3A15299   4.338   2.621   6.898  0.0664  0.2535 -0.2676
 1073YOPC   C4A15300   4.311   2.588   7.346 -0.0967  0.1363  0.0997
 1073YOPC   C1B15301   3.841   2.143   6.325  0.1268  0.1696 -0.0061
 1073YOPC   C2B15302   3.821   2.480   6.615  0.1595 -0.3271 -0.2307
 1073YOPC   D3B15303   3.925   2.423   7.052 -0.2927 -0.0618 -0.1516
 1073YOPC   C4B15304   3.836   2.332   7.489 -0.0119 -0.1695 -0.0356
 1074YOPC   NC315305  10.688   4.609   5.967 -0.0135  0.1464  0.1924
 1074YOPC   PO415306  10.941   4.928   6.193  0.3069  0.1193  0.0276
 1074YOPC   GL115307  10.684   4.742   6.487  0.1254  0.0188  0.3972
 1074YOPC   GL215308  10.463   4.934   6.349  0.1319  0.3137 -0.1046
 1074YOPC   C1A15309  10.680   4.767   6.855  0.0628 -0.0030 -0.0580
 1074YOPC   D2A15310  10.578   4.836   7.318  0.2384 -0.0591 -0.0483
 1074YOPC   C3A15311  10.460   4.461   7.589  0.0087 -0.0386 -0.1118
 1074YOPC   C4A15312  10.409   4.202   7.878 -0.2141  0.1167  0.0098
 1074YOPC   C1B15313  10.354   5.170   6.772  0.2204  0.1082  0.0028
 1074YOPC   C2B15314  10.338   5.389   7.079 -0.2020 -0.0425  0.0880
 1074YOPC   D3B15315  10.117   5.251   7.474  0.0612  0.3115  0.0493
 1074YOPC   C4B15316  10.186   4.889   7.675  0.2541  0.2454  0.1462
 1075YOPC   NC315317   7.550   3.978   6.179  0.1610 -0.2787 -0.0108
 1075YOPC   PO415318   7.077   4.269   6.045  0.1196  0.0634 -0.1433
 1075YOPC   GL115319   7.088   4.129   6.447 -0.1465  0.4223 -0.0330
 1075YOPC   GL215320   7.351   4.039   6.609  0.1123  0.1391  0.0779
 1075YOPC   C1A15321   6.752   4.002   6.783  0.0313  0.0851 -0.0681
 1075YOPC   D2A15322   6.574   3.777   7.242  0.1155 -0.0199 -0.0194
 1075YOPC   C3A15323   6.645   3.753   7.658  0.2058  0.0611  0.0405
 1075YOPC   C4A15324   6.674   3.767   8.063  0.0860  0.2359 -0.1684
 1075YOPC   C1B15325   7.268   4.165   6.967 -0.0793  0.5906 -0.1383
 1075YOPC   C2B15326   7.298   4.047   7.310  0.0173 -0.0707 -0.1571
 1075YOPC   D3B15327   7.073   3.734   7.416  0.1194  0.1722 -0.1562
 1075YOPC   C4B15328   6.860   3.404   7.348 -0.0999  0.2955  0.1655
 1076YOPC   NC315329  12.447   5.439   6.070 -0.1369 -0.2218 -0.2700
 1076YOPC   PO415330  12.125   5.722   6.252  0.1596  0.3415 -0.0581
 1076YOPC   GL115331  12.236   5.456   6.555  0.1142  0.2682 -0.0771
 1076YOPC   GL215332  12.092   5.201   6.779 -0.1513 -0.0169  0.1027
 1076YOPC   C1A15333  12.333   5.678   6.865 -0.2365 -0.1744 -0.2902
 1076YOPC   D2A15334  12.305   5.745   7.343 -0.1116  0.2403  0.1327
 1076YOPC   C3A15335  12.037   6.000   7.649 -0.1472 -0.2919  0.0369
 1076YOPC   C4A15336  12.191   6.268   8.034 -0.2817  0.3146 -0.1782
 1076YOPC   C1B15337  12.134   5.250   7.207 -0.0205  0.0357 -0.0561
 1076YOPC   C2B15338  12.029   5.135   7.698 -0.2593 -0.0264  0.0166
 1076YOPC   D3B15339  12.233   5.256   8.079 -0.1635  0.3935 -0.3470
 1076YOPC   C4B15340  12.508   5.344   8.495  0.1983 -0.2851 -0.1977
 1077YOPC   NC315341  10.156   5.923   6.243 -0.2231  0.0840  0.1364
 1077YOPC   PO415342   9.931   5.653   6.065  0.0945  0.1744 -0.1840
 1077YOPC   GL115343   9.686   5.775   6.419 -0.1076 -0.3328  0.0644
 1077YOPC   GL215344   9.724   6.088   6.542  0.0336 -0.0131 -0.1663
 1077YOPC   C1A15345   9.485   5.698   6.850  0.2226  0.0781  0.0767
 1077YOPC   D2A15346   9.449   5.554   7.230 -0.1683 -0.3688 -0.2285
 1077YOPC   C3A15347   9.353   5.762   7.545  0.1786  0.0870 -0.3143
 1077YOPC   C4A15348   9.521   6.122   7.790 -0.3017 -0.1097 -0.1335
 1077YOPC   C1B15349   9.873   6.101   6.997 -0.1454 -0.0345  0.3716
 1077YOPC   C2B15350   9.963   6.112   7.435 -0.0980 -0.2686 -0.2635
 1077YOPC   D3B15351  10.073   6.210   7.813 -0.1476  0.0773  0.2585
 1077YOPC   C4B15352  10.075   6.387   8.199  0.1519  0.2004 -0.1238
 1078YOPC   NC315353   2.809  15.205   5.813 -0.1434 -0.0421 -0.2631
 1078YOPC   PO415354   3.192  15.413   6.178 -0.1947  0.0672 -0.1772
 1078YOPC   GL115355   2.960  15.628   6.507 -0.3295 -0.0855 -0.1067
 1078YOPC   GL215356   2.940  15.404   6.725  0.0409 -0.1094 -0.3563
 1078YOPC   C1A15357   2.910  15.867   6.969  0.2934 -0.1977  0.2119
 1078YOPC   D2A15358   3.060  15.710   7.385  0.0580 -0.1276 -0.1235
 1078YOPC   C3A15359   3.411  15.822   7.539 -0.1924 -0.0352 -0.1325
 1078YOPC   C4A15360   3.708  15.605   7.633  0.0681 -0.0895  0.0296
 1078YOPC   C1B15361   3.329  15.545   6.944  0.0934 -0.0420 -0.1954
 1078YOPC   C2B15362   3.661  15.543   7.167 -0.0884  0.0722  0.0895
 1078YOPC   D3B15363   4.059  15.857   7.350  0.2859 -0.2994  0.1441
 1078YOPC   C4B15364   4.195  16.270   7.402 -0.2282  0.3151  0.0404
 1079YOPC   NC315365   0.510  10.285   6.113 -0.2915  0.2353  0.0523
 1079YOPC   PO415366   0.078  10.228   6.179 -0.0461  0.0452  0.2162
 1079YOPC   GL115367   0.170   9.974   6.429  0.3478 -0.1214 -0.0933
 1079YOPC   GL215368   0.557   9.937   6.487 -0.0788 -0.0911 -0.1184
 1079YOPC   C1A15369   0.373   9.502   6.564 -0.0446 -0.0316 -0.0269
 1079YOPC   D2A15370   0.361   9.051   6.491  0.0976  0.0478  0.0323
 1079YOPC   C3A15371   0.184   8.950   6.862  0.0955 -0.1594  0.0316
 1079YOPC   C4A15372   0.399   8.660   6.933  0.2570 -0.1323 -0.0560
 1079YOPC   C1B15373   0.935   9.739   6.761  0.1897 -0.2060  0.3117
 1079YOPC   C2B15374   1.252   9.672   6.988  0.0622 -0.1886 -0.2542
 1079YOPC   D3B15375   1.137   9.588   7.371 -0.0461  0.1131 -0.0883
 1079YOPC   C4B15376   1.021   9.710   7.823 -0.0365 -0.0228 -0.2546
 1080YOPC   NC315377  12.366   4.511   5.572 -0.2214 -0.3966  0.1144
 1080YOPC   PO415378  12.253   4.597   6.051  0.3475  0.1477 -0.2225
 1080YOPC   GL115379  12.227   4.815   6.466  0.1477  0.0167 -0.1504
 1080YOPC   GL215380  12.432   5.066   6.404 -0.2960 -0.0261  0.3008
 1080YOPC   C1A15381  12.493   4.827   6.882 -0.1909 -0.0988 -0.1431
 1080YOPC   D2A15382  12.410   4.871   7.277 -0.1215 -0.1195  0.1043
 1080YOPC   C3A15383  12.477   5.357   7.663 -0.0611  0.0312  0.0147
 1080YOPC   C4A15384  12.473   5.780   7.812 -0.1669  0.1204 -0.1128
 1080YOPC   C1B15385  12.681   5.273   6.743 -0.0775 -0.1122  0.1498
 1080YOPC   C2B15386  12.655   5.441   7.146  0.1367  0.1732 -0.0222
 1080YOPC   D3B15387  12.940   5.053   7.504  0.0620  0.3162  0.0979
 1080YOPC   C4B15388  13.379   4.742   7.564  0.3122  0.0311  0.1952
 1081YOPC   NC315389   4.880   5.917   5.986  0.0865  0.0734 -0.2336
 1081YOPC   PO415390   5.118   5.909   6.344  0.2053  0.0901  0.2453
 1081YOPC   GL115391   4.819   5.824   6.640  0.1384 -0.2135 -0.0214
 1081YOPC   GL215392   4.427   5.977   6.705 -0.0888 -0.0459  0.3090
 1081YOPC   C1A15393   4.731   5.887   7.037 -0.1316  0.1014  0.0443
 1081YOPC   D2A15394   4.505   5.807   7.488  0.2997 -0.0772 -0.1441
 1081YOPC   C3A15395   4.202   6.026   7.794  0.0125 -0.2753 -0.2319
 1081YOPC   C4A15396   4.266   6.565   7.884  0.0973 -0.0707 -0.0096
 1081YOPC   C1B15397   4.170   6.085   7.099  0.2303 -0.1959 -0.1544
 1081YOPC   C2B15398   4.293   6.385   7.442 -0.1639  0.2825 -0.2309
 1081YOPC   D3B15399   4.648   6.777   7.382  0.1242 -0.1433 -0.0998
 1081YOPC   C4B15400   4.583   7.006   7.031  0.2329  0.4541 -0.0047
 1082YOPC   NC315401  16.833   2.388   5.308  0.0360 -0.1989 -0.4268
 1082YOPC   PO415402  16.592   2.154   5.581 -0.2297 -0.2140  0.1724
 1082YOPC   GL115403  16.701   2.317   5.906  0.5063  0.0134 -0.2589
 1082YOPC   GL215404  16.821   2.001   6.123 -0.0815 -0.4329  0.2457
 1082YOPC   C1A15405  16.543   2.366   6.317 -0.0078 -0.0208 -0.0032
 1082YOPC   D2A15406  16.443   2.564   6.668  0.0432  0.1118 -0.2270
 1082YOPC   C3A15407  16.245   2.522   7.049 -0.1108 -0.0896  0.0615
 1082YOPC   C4A15408  16.053   2.799   7.425  0.1019  0.2447 -0.1333
 1082YOPC   C1B15409  17.117   1.757   6.340 -0.0488  0.0162  0.2871
 1082YOPC   C2B15410  17.461   1.803   6.601 -0.1527  0.1142 -0.1687
 1082YOPC   D3B15411  17.645   1.842   6.944 -0.2456  0.0322 -0.2527
 1082YOPC   C4B15412  17.562   1.820   7.393  0.0874 -0.1547 -0.2269
 1083YOPC   NC315413  15.736  12.968   5.937 -0.0314 -0.0572  0.2497
 1083YOPC   PO415414  16.231  13.019   6.203 -0.2402 -0.0740  0.1535
 1083YOPC   GL115415  16.127  12.981   6.611  0.0258  0.1448 -0.2506
 1083YOPC   GL215416  16.458  13.077   6.745  0.3265 -0.1303  0.0852
 1083YOPC   C1A15417  16.158  12.558   6.920  0.0223 -0.1659  0.1530
 1083YOPC   D2A15418  16.141  12.408   7.348 -0.4652 -0.1016 -0.2205
 1083YOPC   C3A15419  16.342  12.026   7.425  0.1827 -0.2196  0.1825
 1083YOPC   C4A15420  16.252  12.101   7.846 -0.0073 -0.0173 -0.1726
 1083YOPC   C1B15421  16.622  13.031   7.225 -0.2091  0.0688 -0.1216
 1083YOPC   C2B15422  16.899  12.889   7.577  0.0120 -0.0532 -0.0043
 1083YOPC   D3B15423  16.896  12.492   7.848  0.1967 -0.0178  0.2381
 1083YOPC   C4B15424  16.628  12.268   8.126  0.1593  0.2297 -0.0912
 1084YOPC   NC315425   9.799  13.406   6.242 -0.2374 -0.0581  0.0279
 1084YOPC   PO415426   9.525  13.816   6.202 -0.1340 -0.0012  0.0807
 1084YOPC   GL115427   9.306  13.989   6.615 -0.2871  0.1060  0.1357
 1084YOPC   GL215428   9.011  14.171   6.553 -0.0868  0.0286 -0.0293
 1084YOPC   C1A15429   9.140  14.117   7.059 -0.2353 -0.1614  0.3858
 1084YOPC   D2A15430   8.802  14.010   7.367 -0.2271 -0.2099  0.2289
 1084YOPC   C3A15431   8.593  13.794   7.674  0.2221 -0.0816  0.1766
 1084YOPC   C4A15432   8.807  13.737   8.044  0.0719 -0.3226  0.1039
 1084YOPC   C1B15433   9.223  14.515   6.779 -0.0597 -0.2103 -0.1135
 1084YOPC   C2B15434   9.193  14.625   7.152  0.0689  0.0642 -0.0853
 1084YOPC   D3B15435   9.170  14.334   7.578  0.6135  0.1248  0.0954
 1084YOPC   C4B15436   8.713  14.269   7.837 -0.1569  0.2352  0.2180
 1085YOPC   NC315437   5.870  14.301   6.197 -0.1523 -0.1721  0.0971
 1085YOPC   PO415438   5.691  14.079   6.181 -0.0955 -0.3008 -0.1705
 1085YOPC   GL115439   5.588  14.292   6.593  0.1999  0.1559  0.0043
 1085YOPC   GL215440   5.250  14.304   6.644  0.1958 -0.0449 -0.0328
 1085YOPC   C1A15441   5.593  14.374   7.143 -0.4507  0.0330  0.1847
 1085YOPC   D2A15442   5.877  14.459   7.514  0.0887 -0.1285  0.2285
 1085YOPC   C3A15443   5.752  14.663   7.877  0.2509 -0.2164 -0.0377
 1085YOPC   C4A15444   5.376  14.844   8.174  0.0035 -0.2166  0.0815
 1085YOPC   C1B15445   5.339  13.958   6.861 -0.0947  0.1238  0.0897
 1085YOPC   C2B15446   5.292  13.883   7.341  0.2605 -0.0436  0.2231
 1085YOPC   D3B15447   5.517  14.120   7.571 -0.1117  0.0040  0.0006
 1085YOPC   C4B15448   5.341  14.314   7.907 -0.0906  0.0667  0.3981
 1086YOPC   NC315449  15.514  11.404   5.990 -0.1719  0.2875 -0.0401
 1086YOPC   PO415450  15.838  11.178   6.170  0.4524  0.0838  0.3123
 1086YOPC   GL115451  15.806  11.235   6.563  0.0071  0.2978 -0.0195
 1086YOPC   GL215452  15.700  11.522   6.487 -0.1141 -0.0926  0.0395
 1086YOPC   C1A15453  15.870  11.263   7.109 -0.2003 -0.0177 -0.1606
 1086YOPC   D2A15454  15.750  11.501   7.412 -0.5112 -0.2573  0.2678
 1086YOPC   C3A15455  15.614  11.329   7.828  0.0804 -0.1286  0.1307
 1086YOPC   C4A15456  15.277  11.262   8.127 -0.1872 -0.0095  0.1906
 1086YOPC   C1B15457  15.251  11.390   6.706  0.0389  0.0861 -0.1963
 1086YOPC   C2B15458  15.130  11.555   7.023  0.0654 -0.1051 -0.1675
 1086YOPC   D3B15459  15.229  11.408   7.382 -0.3440 -0.4643 -0.2233
 1086YOPC   C4B15460  14.946  11.447   7.705 -0.0962 -0.1723  0.0975
 1087YOPC   NC315461  15.846   8.468   5.925  0.2012 -0.2254  0.2865
 1087YOPC   PO415462  15.566   8.114   5.869 -0.2287 -0.2573 -0.1769
 1087YOPC   GL115463  15.518   8.122   6.310  0.1204 -0.2131  0.0634
 1087YOPC   GL215464  15.625   8.463   6.427  0.1632  0.0083 -0.0877
 1087YOPC   C1A15465  15.387   8.093   6.717 -0.0791 -0.0182 -0.1116
 1087YOPC   D2A15466  15.094   8.095   7.124  0.0857  0.2595 -0.0351
 1087YOPC   C3A15467  15.097   7.764   7.522 -0.2198 -0.1622 -0.0335
 1087YOPC   C4A15468  15.460   7.941   7.722  0.2759  0.0711  0.0809
 1087YOPC   C1B15469  16.045   8.610   6.514  0.0608  0.0766 -0.0346
 1087YOPC   C2B15470  16.501   8.748   6.701 -0.0933  0.0058  0.1490
 1087YOPC   D3B15471  16.369   8.792   7.163  0.1058 -0.1905  0.4047
 1087YOPC   C4B15472  16.380   8.870   7.562 -0.0117  0.0393  0.0228
 1088YOPC   NC315473  14.911   3.189   5.300 -0.1844 -0.0168  0.0801
 1088YOPC   PO415474  14.640   3.279   5.566 -0.1789  0.0676 -0.0826
 1088YOPC   GL115475  14.763   3.330   5.930 -0.2088 -0.0873 -0.0253
 1088YOPC   GL215476  14.801   3.538   6.032 -0.2695  0.1679 -0.3476
 1088YOPC   C1A15477  15.147   3.248   6.175  0.2967  0.0775  0.1802
 1088YOPC   D2A15478  15.319   2.775   6.093  0.0776  0.3665  0.0530
 1088YOPC   C3A15479  15.419   2.460   6.404 -0.0524  0.1356 -0.0277
 1088YOPC   C4A15480  15.591   2.361   6.744  0.0753  0.0223 -0.0463
 1088YOPC   C1B15481  14.691   3.409   6.453  0.0947  0.4815 -0.1931
 1088YOPC   C2B15482  14.849   3.294   6.897  0.2928  0.1938  0.0476
 1088YOPC   D3B15483  15.292   3.174   7.072 -0.1959  0.0851  0.1588
 1088YOPC   C4B15484  15.565   3.099   7.426  0.1205 -0.2486  0.0831
 1089YOPC   NC315485   0.243   9.026   5.833  0.2488  0.0104 -0.0157
 1089YOPC   PO415486   0.495   9.291   5.947 -0.3700 -0.2903  0.1015
 1089YOPC   GL115487   0.557   8.826   6.140 -0.2966  0.2107  0.3407
 1089YOPC   GL215488   0.317   8.529   6.266  0.1337 -0.1091 -0.0510
 1089YOPC   C1A15489   0.750   8.718   6.503 -0.1197 -0.0717  0.0451
 1089YOPC   D2A15490   0.954   8.441   6.756  0.1162 -0.1518 -0.1491
 1089YOPC   C3A15491   0.951   8.606   7.102 -0.0776 -0.0527  0.4572
 1089YOPC   C4A15492   0.733   8.496   7.404 -0.1467 -0.1065  0.1972
 1089YOPC   C1B15493   0.247   8.343   6.636  0.0144 -0.0735 -0.0283
 1089YOPC   C2B15494  -0.009   8.186   7.057 -0.2332 -0.3665  0.3617
 1089YOPC   D3B15495   0.311   8.096   7.349  0.0827 -0.0312 -0.1624
 1089YOPC   C4B15496   0.555   8.209   7.739  0.1302  0.1417 -0.3406
 1090YOPC   NC315497   1.739   6.155   5.662 -0.1514 -0.0961  0.1217
 1090YOPC   PO415498   1.672   5.888   5.795  0.1547  0.3048  0.2024
 1090YOPC   GL115499   1.672   5.955   6.231  0.0657 -0.0066 -0.4432
 1090YOPC   GL215500   2.038   5.873   6.204  0.4975 -0.1469 -0.0338
 1090YOPC   C1A15501   1.424   5.836   6.502 -0.3837 -0.0743  0.0785
 1090YOPC   D2A15502   1.556   5.519   6.740  0.1551  0.0094 -0.3197
 1090YOPC   C3A15503   1.387   5.310   7.092 -0.0481 -0.2103 -0.1292
 1090YOPC   C4A15504   1.000   5.235   7.345  0.1664  0.2444  0.2254
 1090YOPC   C1B15505   1.960   5.580   6.465  0.1688  0.0812  0.1207
 1090YOPC   C2B15506   2.048   5.406   6.813  0.1566 -0.2394  0.0786
 1090YOPC   D3B15507   1.916   5.581   7.189  0.0585 -0.4919  0.1909
 1090YOPC   C4B15508   1.655   5.819   7.426 -0.3466 -0.0702  0.0217
 1091YOPC   NC315509   5.194   0.589   5.954 -0.1138 -0.0531  0.0217
 1091YOPC   PO415510   5.120   0.210   6.145  0.0357  0.0921  0.0857
 1091YOPC   GL115511   5.214   0.174   6.497 -0.1500  0.1633 -0.2443
 1091YOPC   GL215512   5.407   0.496   6.502  0.0589 -0.0257 -0.1672
 1091YOPC   C1A15513   5.206   0.187   6.893  0.0874  0.0529 -0.1034
 1091YOPC   D2A15514   5.224  -0.095   7.181  0.0382  0.1185  0.0180
 1091YOPC   C3A15515   4.935  -0.235   7.369 -0.0064  0.1961  0.0425
 1091YOPC   C4A15516   4.874  -0.482   7.685  0.2561 -0.2822  0.1451
 1091YOPC   C1B15517   5.636   0.369   6.889  0.0574  0.3207  0.0040
 1091YOPC   C2B15518   5.713   0.156   7.194  0.3639  0.1786 -0.2883
 1091YOPC   D3B15519   6.088   0.060   7.310 -0.1142 -0.1304 -0.2715
 1091YOPC   C4B15520   6.404   0.038   7.698  0.1459 -0.3030 -0.0270
 1092YOPC   NC315521   0.268   2.149   5.584 -0.2930  0.1991  0.0104
 1092YOPC   PO415522   0.395   2.548   5.503 -0.1971 -0.3293  0.0137
 1092YOPC   GL115523   0.642   2.500   5.735  0.0739 -0.0737 -0.0867
 1092YOPC   GL215524   0.907   2.315   5.831  0.4295  0.1427 -0.0309
 1092YOPC   C1A15525   0.690   2.539   6.231 -0.0252 -0.3390 -0.1828
 1092YOPC   D2A15526   0.806   2.537   6.670 -0.2508  0.4773 -0.0255
 1092YOPC   C3A15527   0.823   2.394   7.014 -0.1447 -0.1816 -0.3187
 1092YOPC   C4A15528   0.603   2.376   7.417 -0.0868  0.2305  0.2536
 1092YOPC   C1B15529   1.185   2.471   6.045  0.2306  0.0599  0.1095
 1092YOPC   C2B15530   1.451   2.430   6.304  0.1666 -0.1737  0.3351
 1092YOPC   D3B15531   1.285   2.245   6.718 -0.0076  0.0615 -0.0205
 1092YOPC   C4B15532   1.100   1.973   7.000 -0.1123  0.0399 -0.1447
 1093YOPC   NC315533   4.730   5.058   5.942  0.0035  0.0164  0.1233
 1093YOPC   PO415534   4.607   4.695   6.034  0.0751 -0.0805 -0.0293
 1093YOPC   GL115535   4.647   4.947   6.435 -0.2723 -0.1395 -0.3018
 1093YOPC   GL215536   4.884   4.920   6.593 -0.0616 -0.1426  0.3545
 1093YOPC   C1A15537   4.474   5.008   6.869  0.2491 -0.1097 -0.1233
 1093YOPC   D2A15538   4.425   4.940   7.344  0.2458 -0.1683 -0.1860
 1093YOPC   C3A15539   4.513   4.587   7.767 -0.0484 -0.0035 -0.0091
 1093YOPC   C4A15540   4.713   4.547   8.105  0.0530 -0.1236 -0.0866
 1093YOPC   C1B15541   4.886   4.831   6.992 -0.3093 -0.0113 -0.2439
 1093YOPC   C2B15542   5.001   4.803   7.449  0.0621 -0.4122  0.0001
 1093YOPC   D3B15543   5.109   4.454   7.786 -0.3489 -0.1661  0.0390
 1093YOPC   C4B15544   5.296   4.508   8.103 -0.2003 -0.0468  0.1145
 1094YOPC   NC315545  12.986  14.746   6.164 -0.0014 -0.1331  0.0062
 1094YOPC   PO415546  13.362  15.072   6.184  0.4487  0.0372  0.2882
 1094YOPC   GL115547  13.439  14.939   6.498 -0.3686  0.0316 -0.3266
 1094YOPC   GL215548  13.818  14.922   6.522  0.1891 -0.1096 -0.1844
 1094YOPC   C1A15549  13.357  15.135   6.961  0.0587 -0.5347 -0.1374
 1094YOPC   D2A15550  13.227  15.284   7.427  0.3673  0.0247  0.1294
 1094YOPC   C3A15551  12.817  15.138   7.583 -0.0327  0.3884 -0.0249
 1094YOPC   C4A15552  12.524  15.094   7.859  0.2068 -0.2069 -0.1480
 1094YOPC   C1B15553  13.796  14.937   6.954  0.1202 -0.1070  0.3275
 1094YOPC   C2B15554  13.636  14.970   7.430  0.1366  0.1647  0.0139
 1094YOPC   D3B15555  13.768  14.689   7.681 -0.0498  0.1209  0.1846
 1094YOPC   C4B15556  14.137  14.726   7.943 -0.2105 -0.0683 -0.0023
 1095YOPC   NC315557   2.351  11.518   6.140 -0.1885  0.0735 -0.3086
 1095YOPC   PO415558   2.620  11.572   6.428  0.1440  0.2160 -0.2772
 1095YOPC   GL115559   2.223  11.644   6.663 -0.1243 -0.0798 -0.1224
 1095YOPC   GL215560   1.998  11.473   6.626 -0.1294 -0.1158 -0.0889
 1095YOPC   C1A15561   2.153  11.554   7.098 -0.0419  0.1120  0.0348
 1095YOPC   D2A15562   2.231  11.758   7.531  0.2962  0.0763 -0.0890
 1095YOPC   C3A15563   2.195  11.675   7.948 -0.3844 -0.1438 -0.0898
 1095YOPC   C4A15564   2.284  11.555   8.339 -0.0579 -0.3499 -0.0486
 1095YOPC   C1B15565   1.687  11.434   6.897  0.1733 -0.2478 -0.1262
 1095YOPC   C2B15566   1.749  11.114   7.208 -0.1049 -0.3714 -0.1181
 1095YOPC   D3B15567   2.151  11.104   7.356 -0.1166  0.1833 -0.1630
 1095YOPC   C4B15568   2.126  11.100   7.817 -0.0686  0.0107 -0.0600
 1096YOPC   NC315569  10.067   7.802   6.183  0.0269  0.1891  0.0605
 1096YOPC   PO415570   9.617   7.855   6.163 -0.0424 -0.1616  0.0873
 1096YOPC   GL115571   9.510   7.661   6.573  0.1055  0.1208 -0.0883
 1096YOPC   GL215572   9.277   7.601   6.614  0.0611  0.1803  0.2951
 1096YOPC   C1A15573   9.686   7.796   7.001 -0.0239  0.2387  0.1350
 1096YOPC   D2A15574   9.650   7.717   7.427  0.3376  0.0083 -0.3184
 1096YOPC   C3A15575   9.520   7.956   7.751 -0.1818 -0.3053  0.2899
 1096YOPC   C4A15576   9.136   8.101   7.843 -0.1425 -0.1089 -0.0491
 1096YOPC   C1B15577   9.229   7.541   6.988  0.1135 -0.0979  0.1775
 1096YOPC   C2B15578   9.276   7.396   7.422 -0.2776  0.3736 -0.2767
 1096YOPC   D3B15579   9.740   7.348   7.718  0.1541 -0.1163 -0.4470
 1096YOPC   C4B15580   9.793   7.578   8.075  0.1741 -0.0436  0.1634
 1097YOPC   NC315581  10.053   6.902   6.165  0.1196  0.0443 -0.0675
 1097YOPC   PO415582   9.586   6.961   6.081 -0.0675 -0.2495 -0.1325
 1097YOPC   GL115583   9.656   6.721   6.407  0.0037 -0.0562 -0.1565
 1097YOPC   GL215584   9.457   6.505   6.329  0.0581 -0.0714 -0.1793
 1097YOPC   C1A15585   9.703   6.494   6.790  0.1245 -0.1427  0.3639
 1097YOPC   D2A15586   9.595   6.667   7.080 -0.0147 -0.0430 -0.1266
 1097YOPC   C3A15587   9.729   6.543   7.539  0.1675  0.2786  0.0078
 1097YOPC   C4A15588   9.818   6.735   7.894  0.2424 -0.0891 -0.0192
 1097YOPC   C1B15589   9.213   6.647   6.718 -0.1424 -0.1142 -0.1144
 1097YOPC   C2B15590   9.206   6.976   7.124  0.0910  0.1034 -0.0352
 1097YOPC   D3B15591   8.969   6.759   7.379  0.2540  0.1669  0.0421
 1097YOPC   C4B15592   8.722   6.628   7.633 -0.0012  0.2309 -0.1918
 1098YOPC   NC315593   9.486   6.447   5.841  0.2436 -0.0769 -0.0555
 1098YOPC   PO415594   9.855   6.352   6.112  0.1806 -0.0221  0.1235
 1098YOPC   GL115595  10.041   6.428   6.463 -0.2871 -0.0625 -0.1744
 1098YOPC   GL215596  10.176   6.330   6.750 -0.3265  0.2043  0.0299
 1098YOPC   C1A15597  10.147   6.806   6.784 -0.0066 -0.0816  0.0082
 1098YOPC   D2A15598  10.091   6.627   7.149  0.0027  0.2709  0.2835
 1098YOPC   C3A15599   9.942   6.950   7.468  0.1547 -0.2817  0.0161
 1098YOPC   C4A15600   9.495   6.950   7.519 -0.0811 -0.1521 -0.2638
 1098YOPC   C1B15601  10.361   5.994   7.135 -0.2208 -0.1196  0.6557
 1098YOPC   C2B15602  10.294   5.766   7.541 -0.2633  0.2227  0.0015
 1098YOPC   D3B15603   9.870   5.707   7.728 -0.1851 -0.0455  0.0642
 1098YOPC   C4B15604   9.617   5.367   7.641 -0.2503 -0.1598  0.0017
 1099YOPC   NC315605   3.288   2.017   5.390 -0.0551  0.0582  0.1712
 1099YOPC   PO415606   3.339   1.801   5.791  0.0704 -0.0632 -0.1293
 1099YOPC   GL115607   3.433   1.872   6.142  0.3737 -0.0094 -0.1644
 1099YOPC   GL215608   3.623   1.597   6.252  0.1947  0.1626  0.0450
 1099YOPC   C1A15609   3.176   1.972   6.643  0.2272  0.2304 -0.2465
 1099YOPC   D2A15610   2.918   2.094   6.965  0.1500  0.2546 -0.2957
 1099YOPC   C3A15611   2.962   2.131   7.474  0.0804  0.5243  0.1638
 1099YOPC   C4A15612   2.860   2.528   7.691  0.0281  0.0345  0.3465
 1099YOPC   C1B15613   3.716   1.665   6.669  0.0142 -0.5941 -0.0061
 1099YOPC   C2B15614   3.638   2.058   6.872  0.2755  0.0152  0.1868
 1099YOPC   D3B15615   3.440   2.013   7.314 -0.0759  0.2420  0.1950
 1099YOPC   C4B15616   3.445   2.060   7.680  0.1648 -0.2073 -0.0894
 1100YOPC   NC315617  16.754  12.110   6.132 -0.2419 -0.1270  0.0867
 1100YOPC   PO415618  17.095  12.147   6.380  0.1262  0.4383 -0.0595
 1100YOPC   GL115619  17.141  11.927   6.711 -0.2125 -0.1016  0.1850
 1100YOPC   GL215620  17.314  11.651   6.667  0.1903  0.0893  0.0803
 1100YOPC   C1A15621  17.058  12.150   7.195  0.0548  0.0348 -0.0284
 1100YOPC   D2A15622  16.811  12.087   7.557  0.2222 -0.1443 -0.1595
 1100YOPC   C3A15623  16.968  11.906   7.966  0.0627 -0.1868 -0.0658
 1100YOPC   C4A15624  16.808  11.812   8.397 -0.3031 -0.0958 -0.2270
 1100YOPC   C1B15625  17.204  11.631   7.152 -0.2109  0.0391 -0.0612
 1100YOPC   C2B15626  17.156  11.385   7.482 -0.0662  0.2507 -0.2624
 1100YOPC   D3B15627  17.484  11.317   7.713 -0.1522  0.2074  0.2019
 1100YOPC   C4B15628  17.674  11.416   8.062 -0.1731 -0.2483 -0.1572
 1101YOPC   NC315629  15.042   8.448   5.586  0.1614 -0.1292 -0.3430
 1101YOPC   PO415630  15.068   8.848   5.551 -0.1893 -0.0709 -0.1807
 1101YOPC   GL115631  15.053   8.935   5.944 -0.1743  0.1101  0.3362
 1101YOPC   GL215632  15.307   8.702   6.031  0.0782 -0.0083 -0.0605
 1101YOPC   C1A15633  14.826   8.910   6.379  0.0157  0.3903 -0.1059
 1101YOPC   D2A15634  14.829   9.095   6.815 -0.1335 -0.0179  0.0058
 1101YOPC   C3A15635  14.516   9.317   7.030 -0.0859  0.0638  0.1049
 1101YOPC   C4A15636  14.595   9.758   7.098  0.0142 -0.3223  0.1087
 1101YOPC   C1B15637  15.318   8.977   6.402  0.0381  0.0200 -0.1208
 1101YOPC   C2B15638  15.183   9.389   6.590 -0.0248  0.2988 -0.3180
 1101YOPC   D3B15639  15.118   9.548   6.918  0.2280  0.0856  0.0500
 1101YOPC   C4B15640  15.108   9.852   7.231 -0.2326 -0.1212  0.1943
 1102YOPC   NC315641  14.225  11.449   5.863  0.0559  0.4514  0.0441
 1102YOPC   PO415642  14.172  11.774   6.169  0.1434  0.1161 -0.0298
 1102YOPC   GL115643  13.816  11.748   6.458 -0.1907  0.2230  0.1662
 1102YOPC   GL215644  13.448  11.791   6.456 -0.0292 -0.0939  0.1881
 1102YOPC   C1A15645  13.860  11.647   6.848  0.2690  0.1892  0.2260
 1102YOPC   D2A15646  13.709  11.450   7.143 -0.0659  0.1644  0.4283
 1102YOPC   C3A15647  13.662  11.431   7.522  0.1928 -0.1652  0.1384
 1102YOPC   C4A15648  13.286  11.499   7.727  0.2603 -0.2618  0.1864
 1102YOPC   C1B15649  13.459  12.000   6.893 -0.2574 -0.1164  0.0964
 1102YOPC   C2B15650  13.563  12.404   7.021  0.2284 -0.3164  0.0393
 1102YOPC   D3B15651  13.216  12.570   6.957 -0.1168 -0.0925  0.0230
 1102YOPC   C4B15652  12.894  12.609   6.652  0.2121  0.1179  0.0434
 1103YOPC   NC315653  11.825   5.983   5.945  0.0360 -0.1327  0.0673
 1103YOPC   PO415654  11.398   5.698   5.992 -0.0137  0.0579  0.0407
 1103YOPC   GL115655  11.161   5.969   6.279  0.1080  0.1814  0.1989
 1103YOPC   GL215656  11.092   5.773   6.505 -0.3656 -0.1421  0.1736
 1103YOPC   C1A15657  11.348   6.172   6.636 -0.1251  0.1437 -0.1642
 1103YOPC   D2A15658  11.708   6.428   6.775  0.0193 -0.0409  0.1615
 1103YOPC   C3A15659  11.691   6.591   7.014  0.1540 -0.2353  0.4296
 1103YOPC   C4A15660  11.614   6.833   7.326  0.0888  0.1032  0.3900
 1103YOPC   C1B15661  11.206   5.709   6.909  0.2893  0.1441  0.1237
 1103YOPC   C2B15662  11.457   5.919   7.089 -0.1197  0.0534  0.1362
 1103YOPC   D3B15663  11.587   5.768   7.415 -0.0639 -0.1784 -0.0130
 1103YOPC   C4B15664  11.893   5.572   7.565  0.0449 -0.3256 -0.0862
 1104YOPC   NC315665  13.465   4.853   5.945 -0.0727 -0.1795  0.1540
 1104YOPC   PO415666  13.073   4.823   6.164 -0.0814  0.2061 -0.2526
 1104YOPC   GL115667  13.039   4.926   6.618  0.1853  0.3633 -0.0336
 1104YOPC   GL215668  13.196   4.581   6.662  0.0868 -0.2825 -0.0122
 1104YOPC   C1A15669  13.000   4.817   7.036  0.1241  0.2049 -0.1173
 1104YOPC   D2A15670  12.840   4.579   7.383  0.0965 -0.0938 -0.1331
 1104YOPC   C3A15671  13.046   4.294   7.645  0.3242 -0.1664  0.1845
 1104YOPC   C4A15672  13.149   4.203   8.039 -0.1782 -0.0571 -0.0378
 1104YOPC   C1B15673  13.238   4.322   7.123 -0.0714 -0.0594 -0.2480
 1104YOPC   C2B15674  12.955   3.974   7.274 -0.1962  0.1261  0.1656
 1104YOPC   D3B15675  12.615   4.133   7.523  0.0365 -0.2572  0.0491
 1104YOPC   C4B15676  12.397   4.505   7.578 -0.0649 -0.0360  0.1522
 1105YOPC   NC315677   0.838   4.237   5.232  0.0297  0.0101 -0.1884
 1105YOPC   PO415678   0.405   4.279   5.318  0.0190  0.0069  0.2886
 1105YOPC   GL115679   0.373   4.382   5.760  0.0045  0.1777  0.1449
 1105YOPC   GL215680   0.037   4.343   5.771 -0.2171 -0.3084 -0.2228
 1105YOPC   C1A15681   0.443   4.506   6.200  0.0847 -0.1388  0.2317
 1105YOPC   D2A15682   0.534   4.756   6.663 -0.0828  0.0678  0.1236
 1105YOPC   C3A15683   0.511   4.578   7.057 -0.0496  0.1166 -0.0276
 1105YOPC   C4A15684   0.332   4.398   7.385  0.2296 -0.1960 -0.3247
 1105YOPC   C1B15685  -0.053   4.783   5.960 -0.1568  0.1986 -0.0108
 1105YOPC   C2B15686   0.168   4.956   6.273  0.1230  0.2749  0.0214
 1105YOPC   D3B15687   0.458   5.272   6.199 -0.1818  0.1167  0.2712
 1105YOPC   C4B15688   0.851   5.285   6.083 -0.0820  0.1468  0.0099
 1106YOPC   NC315689  17.319   3.663   5.250  0.0861  0.3934 -0.0957
 1106YOPC   PO415690  16.873   3.815   5.225  0.0802  0.0520  0.0105
 1106YOPC   GL115691  16.972   3.666   5.636  0.2333  0.0256  0.3043
 1106YOPC   GL215692  16.941   3.376   5.850 -0.0831 -0.0341 -0.0632
 1106YOPC   C1A15693  17.048   3.836   6.081  0.0553  0.3091 -0.2185
 1106YOPC   D2A15694  17.141   3.850   6.526  0.2085 -0.2971 -0.2614
 1106YOPC   C3A15695  16.767   3.651   6.735  0.0503  0.2199 -0.4000
 1106YOPC   C4A15696  16.366   3.485   6.650 -0.0246 -0.2222 -0.0853
 1106YOPC   C1B15697  16.793   3.406   6.295  0.0389 -0.2148  0.2534
 1106YOPC   C2B15698  16.625   3.094   6.640 -0.0192 -0.2089 -0.0631
 1106YOPC   D3B15699  16.685   3.216   7.045 -0.4155 -0.1404 -0.2650
 1106YOPC   C4B15700  16.937   3.655   7.215 -0.2525 -0.2707 -0.0535
 1107YOPC   NC315701  13.782   5.431   4.946  0.1104 -0.0417 -0.0723
 1107YOPC   PO415702  13.894   5.581   5.359  0.0691  0.0546  0.1815
 1107YOPC   GL115703  13.999   5.565   5.806 -0.3278  0.0666  0.0307
 1107YOPC   GL215704  14.082   5.298   6.002  0.0185  0.1835  0.0364
 1107YOPC   C1A15705  14.041   5.634   6.279 -0.1892 -0.3189 -0.1536
 1107YOPC   D2A15706  13.976   5.658   6.711 -0.0779  0.3833 -0.0829
 1107YOPC   C3A15707  13.714   5.366   6.918  0.1075 -0.0089 -0.2268
 1107YOPC   C4A15708  13.537   4.923   7.053  0.2000 -0.0247 -0.0543
 1107YOPC   C1B15709  14.455   5.414   6.270  0.1022  0.0830  0.1189
 1107YOPC   C2B15710  14.462   5.683   6.633  0.1865  0.1425 -0.3193
 1107YOPC   D3B15711  14.827   5.485   6.886 -0.3183 -0.2019  0.3916
 1107YOPC   C4B15712  15.119   5.524   7.278  0.1352 -0.0861 -0.0128
 1108YOPC   NC315713  15.399  16.761   5.150  0.1493  0.1232 -0.3394
 1108YOPC   PO415714  15.257  16.766   5.586 -0.1037 -0.0664  0.0218
 1108YOPC   GL115715  15.333  16.755   6.005 -0.1964  0.1494  0.0557
 1108YOPC   GL215716  15.696  16.629   6.102  0.1020  0.1224  0.1703
 1108YOPC   C1A15717  15.216  16.794   6.353 -0.2879  0.2190 -0.3924
 1108YOPC   D2A15718  15.176  16.861   6.762 -0.3152 -0.0155 -0.1295
 1108YOPC   C3A15719  15.063  16.487   6.977  0.0318  0.0352  0.0952
 1108YOPC   C4A15720  15.220  16.151   6.816 -0.2669 -0.2269 -0.0914
 1108YOPC   C1B15721  15.784  16.868   6.426  0.3454  0.0383 -0.3757
 1108YOPC   C2B15722  16.113  17.073   6.670  0.1081 -0.2889 -0.3078
 1108YOPC   D3B15723  16.351  17.387   6.414 -0.2872 -0.0557 -0.1109
 1108YOPC   C4B15724  16.576  17.335   6.063  0.0157  0.0271  0.0092
 1109YOPC   NC315725   9.549  15.577   5.758 -0.2371 -0.0428 -0.0543
 1109YOPC   PO415726   9.246  15.426   6.157  0.1465  0.0539  0.0145
 1109YOPC   GL115727   9.035  15.519   6.521  0.1376 -0.0115 -0.3476
 1109YOPC   GL215728   8.949  15.824   6.652  0.5833 -0.2463  0.0322
 1109YOPC   C1A15729   8.654  15.264   6.696 -0.0723 -0.3106  0.1969
 1109YOPC   D2A15730   8.419  15.271   6.952 -0.0954 -0.3110  0.0970
 1109YOPC   C3A15731   8.328  15.527   7.369  0.3220 -0.3284 -0.0126
 1109YOPC   C4A15732   8.502  15.707   7.695 -0.2066 -0.0624  0.1501
 1109YOPC   C1B15733   9.160  15.548   7.010  0.2287 -0.0223 -0.1935
 1109YOPC   C2B15734   9.369  15.647   7.476 -0.3586 -0.4364 -0.0099
 1109YOPC   D3B15735   9.711  15.477   7.596 -0.1880 -0.1221 -0.0168
 1109YOPC   C4B15736  10.070  15.413   7.495 -0.2409  0.0620  0.2921
 1110YOPC   NC315737   8.090   3.439   5.707 -0.2021  0.1825 -0.0368
 1110YOPC   PO415738   8.304   3.043   5.836 -0.2435  0.1514 -0.0226
 1110YOPC   GL115739   8.240   2.737   6.170 -0.0531 -0.0406  0.1825
 1110YOPC   GL215740   8.121   2.517   6.442 -0.0253  0.0022  0.1418
 1110YOPC   C1A15741   8.534   2.857   6.562  0.0645  0.0741 -0.3335
 1110YOPC   D2A15742   8.871   2.665   6.864 -0.1230 -0.0049  0.1049
 1110YOPC   C3A15743   9.267   2.601   6.890 -0.1152 -0.0169 -0.0582
 1110YOPC   C4A15744   9.538   2.266   7.224 -0.3631  0.0959  0.2326
 1110YOPC   C1B15745   7.891   2.630   6.854  0.1310  0.3506  0.1831
 1110YOPC   C2B15746   7.634   2.704   7.133  0.1546  0.0815  0.2462
 1110YOPC   D3B15747   7.873   2.634   7.473  0.0043  0.1726  0.0193
 1110YOPC   C4B15748   7.767   2.853   7.939 -0.2518 -0.1466  0.1929
 1111YOPC   NC315749   7.160  14.088   6.246 -0.2097  0.3633  0.0089
 1111YOPC   PO415750   6.903  13.750   6.083  0.0865 -0.0890 -0.0905
 1111YOPC   GL115751   6.795  13.788   6.454  0.3862 -0.1098  0.1635
 1111YOPC   GL215752   7.123  13.911   6.758  0.2047 -0.3126  0.0913
 1111YOPC   C1A15753   6.801  13.528   6.739 -0.2251 -0.2364  0.2912
 1111YOPC   D2A15754   6.776  13.626   7.183  0.3024  0.2089 -0.4587
 1111YOPC   C3A15755   6.596  13.795   7.544 -0.5199 -0.1467  0.1873
 1111YOPC   C4A15756   6.359  13.839   7.878  0.2733 -0.1804 -0.1046
 1111YOPC   C1B15757   6.915  14.086   7.229 -0.0707 -0.0042 -0.1696
 1111YOPC   C2B15758   6.615  14.336   7.513 -0.1221  0.1358  0.2551
 1111YOPC   D3B15759   6.480  14.273   7.914 -0.2192 -0.2061 -0.0268
 1111YOPC   C4B15760   6.060  14.285   8.040 -0.1007  0.2665  0.1169
 1112YOPC   NC315761   9.051   7.418   5.591 -0.1522  0.0048 -0.0210
 1112YOPC   PO415762   8.824   7.638   5.944  0.3987  0.0453  0.3126
 1112YOPC   GL115763   8.889   7.487   6.346 -0.1313 -0.0398  0.4262
 1112YOPC   GL215764   8.609   7.589   6.487 -0.0368 -0.0479 -0.0914
 1112YOPC   C1A15765   8.890   7.221   6.736 -0.2185  0.0421  0.0926
 1112YOPC   D2A15766   8.753   7.368   7.079 -0.1326  0.0682  0.0374
 1112YOPC   C3A15767   8.705   7.257   7.401  0.1923 -0.0637 -0.0915
 1112YOPC   C4A15768   8.736   7.145   7.782  0.2711 -0.0775  0.3000
 1112YOPC   C1B15769   8.398   7.634   6.931 -0.1664 -0.2015 -0.1508
 1112YOPC   C2B15770   8.290   7.606   7.348  0.1206  0.0230 -0.1324
 1112YOPC   D3B15771   8.441   7.617   7.865 -0.0282 -0.0132 -0.0676
 1112YOPC   C4B15772   8.752   7.568   8.220  0.1038 -0.0374  0.1050
 1113YOPC   NC315773  14.023  14.540   6.268  0.3249  0.0344 -0.1063
 1113YOPC   PO415774  14.199  14.939   6.145  0.5519  0.0753  0.1170
 1113YOPC   GL115775  14.503  14.681   6.433  0.0093  0.1752  0.3603
 1113YOPC   GL215776  14.402  14.260   6.435  0.1961  0.2182 -0.1917
 1113YOPC   C1A15777  14.774  14.583   6.822 -0.0981 -0.5081  0.0358
 1113YOPC   D2A15778  14.797  14.176   7.104  0.0809  0.1226  0.0225
 1113YOPC   C3A15779  15.061  14.077   7.426  0.2725  0.1776 -0.0650
 1113YOPC   C4A15780  15.204  14.161   7.803 -0.1289  0.0091 -0.1077
 1113YOPC   C1B15781  14.339  14.110   6.894 -0.1841 -0.3757  0.1579
 1113YOPC   C2B15782  14.034  14.154   7.206  0.0328 -0.1686  0.1024
 1113YOPC   D3B15783  13.671  14.460   7.226 -0.2840 -0.0801  0.2733
 1113YOPC   C4B15784  13.409  14.593   6.904  0.1397 -0.0191 -0.1031
 1114YOPC   NC315785   3.318  12.141   6.522  0.0282 -0.2494 -0.0638
 1114YOPC   PO415786   3.780  12.392   6.605  0.0803  0.0496 -0.1856
 1114YOPC   GL115787   3.450  12.576   6.768 -0.0458 -0.1361 -0.4416
 1114YOPC   GL215788   3.482  12.289   7.013 -0.0378  0.3449  0.1150
 1114YOPC   C1A15789   3.351  12.726   7.229 -0.1169 -0.0816 -0.0262
 1114YOPC   D2A15790   3.257  12.845   7.543 -0.2260  0.3174  0.1536
 1114YOPC   C3A15791   3.533  12.990   7.933 -0.1663  0.0204  0.1853
 1114YOPC   C4A15792   3.576  13.215   8.228  0.0904  0.0965 -0.0052
 1114YOPC   C1B15793   3.581  12.101   7.451 -0.3817  0.2162 -0.1067
 1114YOPC   C2B15794   3.765  11.903   7.860 -0.2029 -0.0197 -0.0755
 1114YOPC   D3B15795   3.789  12.270   8.198 -0.1234  0.1095  0.0000
 1114YOPC   C4B15796   3.868  12.722   8.205 -0.1974  0.0087  0.0841
 1115YOPC   NC315797  11.320  14.221   6.310 -0.2151  0.0796 -0.3471
 1115YOPC   PO415798  11.517  14.533   6.517 -0.2241  0.2425 -0.1656
 1115YOPC   GL115799  11.505  14.599   6.887 -0.2817  0.1363 -0.2238
 1115YOPC   GL215800  11.223  14.748   7.108  0.2557  0.0456  0.0236
 1115YOPC   C1A15801  11.483  14.410   7.276  0.0044 -0.2369  0.0747
 1115YOPC   D2A15802  11.379  14.221   7.676  0.1312  0.2635 -0.2285
 1115YOPC   C3A15803  11.312  14.492   8.147 -0.0184 -0.4519  0.3151
 1115YOPC   C4A15804  11.283  14.541   8.492 -0.1936 -0.0353 -0.1723
 1115YOPC   C1B15805  10.748  14.747   7.205 -0.1911 -0.1685 -0.2554
 1115YOPC   C2B15806  10.410  14.757   7.494 -0.2318 -0.1825  0.1123
 1115YOPC   D3B15807  10.502  14.567   7.854  0.1108  0.1375  0.0432
 1115YOPC   C4B15808  10.759  14.304   8.214  0.0113 -0.0560 -0.1857
 1116YOPC   NC315809  10.933   6.280   5.971  0.3659  0.2132  0.2570
 1116YOPC   PO415810  10.628   5.942   6.113 -0.2896 -0.0798 -0.1051
 1116YOPC   GL115811  10.606   5.883   6.493  0.3281  0.3007 -0.1937
 1116YOPC   GL215812  10.692   5.588   6.739 -0.2176  0.1314 -0.2137
 1116YOPC   C1A15813  10.822   6.114   6.857  0.2400 -0.2092  0.2387
 1116YOPC   D2A15814  11.036   6.257   7.213 -0.1169  0.1143  0.0567
 1116YOPC   C3A15815  11.461   6.330   7.366  0.1717 -0.0480 -0.0142
 1116YOPC   C4A15816  11.670   6.503   7.734 -0.2224 -0.0247  0.0277
 1116YOPC   C1B15817  10.770   5.708   7.194  0.0208 -0.0380 -0.1628
 1116YOPC   C2B15818  11.140   5.786   7.498  0.3247  0.0994  0.3251
 1116YOPC   D3B15819  11.176   6.182   7.724 -0.1781  0.0126  0.1290
 1116YOPC   C4B15820  11.169   6.481   7.969  0.2121  0.4682 -0.2458
 1117YOPC   NC315821   4.794  11.331   5.490 -0.2631  0.1124 -0.0189
 1117YOPC   PO415822   4.854  11.154   5.893 -0.0041  0.2861  0.0229
 1117YOPC   GL115823   4.902  11.077   6.333 -0.2040 -0.0508  0.1961
 1117YOPC   GL215824   5.138  10.872   6.375  0.0285  0.4551  0.2495
 1117YOPC   C1A15825   4.871  11.127   6.735  0.0723 -0.1875 -0.0003
 1117YOPC   D2A15826   4.885  10.984   7.138 -0.0121 -0.1883  0.2714
 1117YOPC   C3A15827   5.249  10.956   7.395  0.2168  0.0881  0.0363
 1117YOPC   C4A15828   5.489  10.622   7.596 -0.1662 -0.4635 -0.0543
 1117YOPC   C1B15829   5.284  10.895   6.805 -0.2404 -0.1753  0.0226
 1117YOPC   C2B15830   5.540  10.699   7.078 -0.1370 -0.2453 -0.3999
 1117YOPC   D3B15831   5.945  10.887   7.259  0.2426 -0.0933  0.0425
 1117YOPC   C4B15832   6.268  11.153   7.381  0.1261 -0.3159  0.1017
 1118YOPC   NC315833  12.355   0.621   5.931  0.1638 -0.0911  0.1061
 1118YOPC   PO415834  12.777   0.817   6.097  0.0460 -0.0093  0.1068
 1118YOPC   GL115835  12.826   1.073   6.391  0.3083 -0.1578 -0.3284
 1118YOPC   GL215836  12.629   1.288   6.298  0.3341 -0.1861 -0.1331
 1118YOPC   C1A15837  12.936   0.977   6.841 -0.1807 -0.0973 -0.0725
 1118YOPC   D2A15838  13.130   0.793   7.179  0.0732  0.0148 -0.0004
 1118YOPC   C3A15839  12.953   0.766   7.527  0.1619  0.0857  0.2358
 1118YOPC   C4A15840  12.762   0.609   7.959 -0.0409  0.0379  0.0940
 1118YOPC   C1B15841  12.517   1.423   6.659 -0.2588  0.1585 -0.0290
 1118YOPC   C2B15842  12.506   1.253   7.121  0.1094 -0.5019  0.0917
 1118YOPC   D3B15843  12.259   1.554   7.372  0.1090  0.3830 -0.2494
 1118YOPC   C4B15844  12.092   1.936   7.295 -0.0046 -0.1922  0.1813
 1119YOPC   NC315845   9.308  10.105   6.055  0.1148  0.1036 -0.1791
 1119YOPC   PO415846   9.720  10.317   6.321 -0.1536 -0.1831  0.2590
 1119YOPC   GL115847   9.598  10.334   6.696  0.3484 -0.0469  0.2707
 1119YOPC   GL215848   9.663  10.628   6.848 -0.1031  0.0626 -0.3190
 1119YOPC   C1A15849   9.650  10.122   7.096  0.1581 -0.0648 -0.0069
 1119YOPC   D2A15850   9.651   9.734   7.320  0.1722  0.1026 -0.1393
 1119YOPC   C3A15851   9.769   9.653   7.704 -0.1953  0.0966  0.0539
 1119YOPC   C4A15852   9.717   9.613   8.184 -0.2459  0.0637  0.0961
 1119YOPC   C1B15853   9.968  10.663   7.099  0.1068 -0.1286  0.2160
 1119YOPC   C2B15854  10.115  10.447   7.329 -0.0938  0.0455  0.1826
 1119YOPC   D3B15855   9.859  10.239   7.590  0.1581  0.0058 -0.0382
 1119YOPC   C4B15856   9.845  10.073   7.962 -0.1674  0.0636  0.1532
 1120YOPC   NC315857  16.238  14.333   5.842  0.0549 -0.0645 -0.0242
 1120YOPC   PO415858  16.009  14.555   6.094 -0.1738  0.2564  0.3779
 1120YOPC   GL115859  15.916  14.405   6.469  0.3221  0.1215  0.0335
 1120YOPC   GL215860  15.863  14.141   6.393 -0.0752 -0.0040 -0.1562
 1120YOPC   C1A15861  16.019  14.544   6.857 -0.0386 -0.2138 -0.1745
 1120YOPC   D2A15862  15.846  14.712   7.184 -0.1477 -0.3788 -0.0442
 1120YOPC   C3A15863  16.055  14.522   7.593  0.0982  0.0211  0.0425
 1120YOPC   C4A15864  16.115  14.499   8.059 -0.1675  0.2737  0.0048
 1120YOPC   C1B15865  15.752  13.983   6.788 -0.0237 -0.1572  0.1816
 1120YOPC   C2B15866  15.678  13.710   7.180  0.1033  0.0811  0.1401
 1120YOPC   D3B15867  15.455  13.781   7.516  0.1983  0.0601 -0.1085
 1120YOPC   C4B15868  15.146  13.412   7.748 -0.0033  0.0275 -0.2183
 1121YOPC   NC315869   6.177  16.601   6.380  0.1598  0.1853  0.3516
 1121YOPC   PO415870   5.666  16.742   6.473  0.1504 -0.0010 -0.2148
 1121YOPC   GL115871   5.562  16.966   6.835  0.0801 -0.3519  0.0729
 1121YOPC   GL215872   5.323  17.131   6.904 -0.2361 -0.2019  0.2658
 1121YOPC   C1A15873   5.574  16.934   7.293 -0.0695 -0.0184 -0.2573
 1121YOPC   D2A15874   5.489  16.803   7.638 -0.0531  0.1146  0.0328
 1121YOPC   C3A15875   5.524  16.497   7.998 -0.1607  0.3245 -0.1320
 1121YOPC   C4A15876   5.196  16.234   8.165  0.3183  0.1832 -0.2875
 1121YOPC   C1B15877   5.503  17.513   7.299 -0.0216 -0.1389 -0.0693
 1121YOPC   C2B15878   5.478  17.840   7.576  0.1603 -0.3351  0.0137
 1121YOPC   D3B15879   5.846  18.064   7.670 -0.0512 -0.2598  0.3832
 1121YOPC   C4B15880   6.092  18.132   8.098  0.0964 -0.2789  0.1970
 1122YOPC   NC315881  10.780   3.593   6.180 -0.1451 -0.1404  0.0291
 1122YOPC   PO415882  10.684   4.079   6.030 -0.0299 -0.2428  0.2735
 1122YOPC   GL115883  10.856   3.923   6.511  0.0569 -0.1306  0.2232
 1122YOPC   GL215884  11.223   3.791   6.664  0.4075  0.1720  0.1561
 1122YOPC   C1A15885  10.704   3.656   6.863 -0.0780 -0.4009 -0.1495
 1122YOPC   D2A15886  10.414   3.632   7.176 -0.5330  0.1515 -0.1963
 1122YOPC   C3A15887  10.608   3.380   7.529  0.0201  0.3389 -0.1689
 1122YOPC   C4A15888  10.759   3.151   7.824  0.1499 -0.1682  0.2335
 1122YOPC   C1B15889  11.059   4.019   6.996 -0.1282 -0.0423 -0.1769
 1122YOPC   C2B15890  11.076   4.346   7.246  0.0644  0.2849 -0.3181
 1122YOPC   D3B15891  10.934   4.267   7.762 -0.0415  0.1930  0.0648
 1122YOPC   C4B15892  11.077   4.040   8.037  0.2130 -0.2913  0.2077
 1123ERGO   ROH15893   5.377   5.232  10.180  0.1715 -0.1504  0.0278
 1123ERGO    R115894   5.418   5.175   9.906  0.0002 -0.0542 -0.0189
 1123ERGO    R215895   5.218   5.199   9.716 -0.0751  0.1640  0.0914
 1123ERGO    R315896   5.400   5.358   9.592 -0.0313  0.0993  0.0704
 1123ERGO    R415897   5.283   5.198   9.377 -0.1014  0.1167  0.0857
 1123ERGO    R515898   5.495   5.220   9.422 -0.0872  0.0525  0.0723
 1123ERGO    C115899   5.492   5.347   9.063 -0.0755  0.0286  0.0628
 1123ERGO    C215900   5.413   5.354   8.834 -0.0706  0.1067  0.1494
 1124ERGO   ROH15901  16.141   9.240   9.968  0.1613  0.2130 -0.0380
 1124ERGO    R115902  16.179   9.421   9.753  0.0965  0.1109 -0.1367
 1124ERGO    R215903  16.303   9.347   9.517  0.0165 -0.0042 -0.1449
 1124ERGO    R315904  16.075   9.443   9.405 -0.0177 -0.0506 -0.1138
 1124ERGO    R415905  16.279   9.478   9.197 -0.0380  0.0563 -0.1159
 1124ERGO    R515906  16.146   9.631   9.275 -0.0816 -0.0014 -0.0770
 1124ERGO    C115907  16.050   9.643   8.907 -0.1016  0.0479 -0.0696
 1124ERGO    C215908  16.119   9.715   8.576 -0.2466  0.0134  0.0258
 1125ERGO   ROH15909   1.551   8.964   6.126  0.1663  0.2139  0.0383
 1125ERGO    R115910   1.538   9.074   6.386  0.0718  0.0841  0.0902
 1125ERGO    R215911   1.298   9.134   6.510  0.0234  0.0137  0.0386
 1125ERGO    R315912   1.399   8.977   6.709 -0.0376 -0.0842 -0.0077
 1125ERGO    R415913   1.238   9.180   6.848  0.2588  0.0921  0.0711
 1125ERGO    R515914   1.447   9.130   6.886  0.2250 -0.1304 -0.0400
 1125ERGO    C115915   1.298   9.059   7.230  0.3386  0.0458  0.0466
 1125ERGO    C215916   1.101   8.996   7.572 -0.1047 -0.2553  0.0045
 1126ERGO   ROH15917   9.927  17.805   6.516 -0.2784  0.1710 -0.2368
 1126ERGO    R115918   9.783  17.874   6.749 -0.2687  0.1369 -0.2192
 1126ERGO    R215919   9.907  17.945   6.985 -0.2538 -0.0738 -0.1535
 1126ERGO    R315920   9.751  18.167   6.963 -0.1034  0.0416 -0.0650
 1126ERGO    R415921   9.804  18.140   7.251 -0.2264 -0.1711 -0.0718
 1126ERGO    R515922   9.608  18.157   7.156 -0.1766  0.0161 -0.1270
 1126ERGO    C115923   9.597  18.462   7.385 -0.0690 -0.1194  0.0588
 1126ERGO    C215924   9.619  18.638   7.712  0.0620 -0.0492  0.2811
 1127ERGO   ROH15925   0.114   5.918   6.079 -0.2908 -0.1271 -0.1431
 1127ERGO    R115926   0.035   5.782   6.314 -0.3231 -0.0779 -0.1246
 1127ERGO    R215927  -0.140   5.566   6.311 -0.1410 -0.2315 -0.1297
 1127ERGO    R315928   0.062   5.443   6.445 -0.1157  0.0075  0.0569
 1127ERGO    R415929  -0.176   5.290   6.515 -0.0188 -0.1834 -0.0426
 1127ERGO    R515930  -0.035   5.379   6.654 -0.1940  0.0028  0.0168
 1127ERGO    C115931  -0.008   5.014   6.761  0.0763  0.0689  0.1833
 1127ERGO    C215932   0.065   4.700   7.025 -0.1560  0.1949  0.3093
 1128ERGO   ROH15933  10.712  12.316   7.046 -0.1686 -0.0461  0.1338
 1128ERGO    R115934  10.722  12.293   7.328 -0.1434  0.0700  0.1427
 1128ERGO    R215935  10.753  12.512   7.494 -0.0276  0.1283  0.0463
 1128ERGO    R315936  10.527  12.415   7.610 -0.0557  0.2755  0.1157
 1128ERGO    R415937  10.675  12.545   7.829  0.0940  0.1782  0.0702
 1128ERGO    R515938  10.600  12.340   7.826 -0.0405  0.2278  0.0929
 1128ERGO    C115939  10.418  12.474   8.133  0.1384  0.3454  0.1492
 1128ERGO    C215940  10.123  12.515   8.325 -0.2505  0.0440 -0.0883
 1129ERGO   ROH15941   5.345  13.640  10.578 -0.0014 -0.2947 -0.1977
 1129ERGO    R115942   5.313  13.806  10.351  0.1292 -0.0196 -0.0205
 1129ERGO    R215943   5.527  13.908  10.209  0.2150 -0.2833 -0.0855
 1129ERGO    R315944   5.400  13.792   9.998 -0.1661  0.1401 -0.1034
 1129ERGO    R415945   5.611  13.956   9.877  0.1826 -0.2819 -0.0932
 1129ERGO    R515946   5.398  13.962   9.830  0.1620  0.2563  0.0019
 1129ERGO    C115947   5.540  13.875   9.486 -0.1941  0.1164 -0.1146
 1129ERGO    C215948   5.512  13.909   9.220 -0.1437  0.0556 -0.1042
 1130ERGO   ROH15949  15.842   2.878   9.455 -0.2150  0.2901 -0.2822
 1130ERGO    R115950  15.796   2.897   9.177  0.0855  0.1919 -0.3403
 1130ERGO    R215951  15.989   2.832   8.989  0.1505 -0.2812 -0.1120
 1130ERGO    R315952  15.793   2.669   8.893 -0.0564  0.0067 -0.1948
 1130ERGO    R415953  15.955   2.736   8.659  0.4792 -0.6380 -0.0501
 1130ERGO    R515954  15.740   2.760   8.678  0.4786 -0.1436 -0.4124
 1130ERGO    C115955  15.752   2.528   8.376  0.4764 -0.5754 -0.0918
 1130ERGO    C215956  15.629   2.270   8.104  0.3350  0.3142 -0.2311
 1131ERGO   ROH15957  17.003  13.062   6.656 -0.0233  0.2230 -0.0214
 1131ERGO    R115958  16.940  13.126   6.924  0.0662 -0.0036  0.0542
 1131ERGO    R215959  17.132  13.140   7.122  0.1743  0.1292 -0.0673
 1131ERGO    R315960  17.028  13.388   7.161 -0.1169 -0.0194  0.1440
 1131ERGO    R415961  17.184  13.333   7.404  0.4768  0.1867 -0.1568
 1131ERGO    R515962  16.974  13.393   7.395  0.3494 -0.1174  0.2694
 1131ERGO    C115963  17.116  13.678   7.606  0.3798  0.0806 -0.0105
 1131ERGO    C215964  17.185  13.965   7.901  0.0059 -0.1238  0.1787
 1132ERGO   ROH15965   0.425  17.203   6.771 -0.0503  0.2015 -0.0654
 1132ERGO    R115966   0.495  17.167   7.043 -0.1613  0.1723 -0.0403
 1132ERGO    R215967   0.737  17.250   7.146 -0.0791 -0.1111 -0.0010
 1132ERGO    R315968   0.580  17.382   7.324  0.0423  0.1296 -0.0676
 1132ERGO    R415969   0.792  17.260   7.487 -0.1573 -0.1229  0.0122
 1132ERGO    R515970   0.576  17.239   7.517 -0.1974  0.1647 -0.0421
 1132ERGO    C115971   0.676  17.390   7.853 -0.0889  0.0960 -0.0427
 1132ERGO    C215972   0.773  17.228   8.110  0.0013 -0.3117  0.0008
 1133ERGO   ROH15973   9.435   2.766  10.111  0.1765  0.1973 -0.2030
 1133ERGO    R115974   9.396   2.696   9.839  0.1158  0.0957 -0.1695
 1133ERGO    R215975   9.271   2.865   9.659  0.2596  0.1175 -0.2544
 1133ERGO    R315976   9.499   2.827   9.516  0.2299 -0.1514 -0.2347
 1133ERGO    R415977   9.287   2.853   9.314  0.2980  0.2462 -0.2569
 1133ERGO    R515978   9.431   2.690   9.331  0.0587  0.0278 -0.3056
 1133ERGO    C115979   9.510   2.811   8.978  0.2925  0.0688 -0.2399
 1133ERGO    C215980   9.512   2.885   8.533  0.0047  0.2263 -0.0996
 1134ERGO   ROH15981   5.721   0.821  10.439  0.0672  0.0185  0.0264
 1134ERGO    R115982   5.847   0.863  10.189  0.0693  0.1613  0.0500
 1134ERGO    R215983   5.956   0.656  10.040  0.3784  0.2852  0.0919
 1134ERGO    R315984   5.795   0.755   9.845  0.2854  0.0546  0.0490
 1134ERGO    R415985   6.034   0.662   9.704  0.3484  0.1722  0.0830
 1134ERGO    R515986   5.945   0.861   9.692  0.1892  0.0949 -0.0165
 1134ERGO    C115987   5.929   0.759   9.324  0.2435 -0.1101  0.0375
 1134ERGO    C215988   5.883   0.722   8.910  0.2566  0.0536 -0.2290
 1135ERGO   ROH15989  12.977  10.921   6.301 -0.0401  0.0228  0.0656
 1135ERGO    R115990  12.910  11.049   6.544 -0.1046  0.0463  0.0342
 1135ERGO    R215991  12.775  10.921   6.748 -0.0115  0.0187  0.0720
 1135ERGO    R315992  12.986  11.005   6.897 -0.0565  0.1902  0.0441
 1135ERGO    R415993  12.756  11.025   7.077 -0.0296 -0.2044  0.1442
 1135ERGO    R515994  12.898  11.184   7.030 -0.2366  0.0064  0.1844
 1135ERGO    C115995  12.943  11.165   7.408 -0.0823 -0.1733  0.1600
 1135ERGO    C215996  12.945  11.118   7.818  0.1790  0.0718  0.0500
 1136ERGO   ROH15997   9.499  15.652  10.145  0.2101 -0.1160  0.0704
 1136ERGO    R115998   9.430  15.487   9.925  0.3178 -0.0960  0.0216
 1136ERGO    R215999   9.235  15.556   9.742  0.0872 -0.2842  0.1923
 1136ERGO    R316000   9.435  15.514   9.562  0.0386  0.1239  0.0309
 1136ERGO    R416001   9.210  15.616   9.403 -0.1994 -0.0371  0.2519
 1136ERGO    R516002   9.322  15.432   9.368  0.0256  0.1331  0.0334
 1136ERGO    C116003   9.383  15.611   9.036 -0.4119  0.4898  0.1351
 1136ERGO    C216004   9.223  15.656   8.780 -0.0196  0.2762 -0.0464
 1137ERGO   ROH16005  15.080   7.093   6.156 -0.0823  0.1601  0.0343
 1137ERGO    R116006  15.168   6.969   6.395  0.0996  0.2804  0.0322
 1137ERGO    R216007  15.167   7.099   6.639 -0.2277  0.2349  0.0611
 1137ERGO    R316008  15.022   6.883   6.717  0.1726 -0.0788 -0.0263
 1137ERGO    R416009  15.154   6.974   6.961 -0.1526  0.2041  0.0522
 1137ERGO    R516010  15.159   6.773   6.879  0.3162  0.2057  0.0511
 1137ERGO    C116011  15.010   6.699   7.222  0.2671 -0.1083 -0.0350
 1137ERGO    C216012  14.768   6.423   7.350  0.0119 -0.0420 -0.3960
 1138ERGO   ROH16013  14.290  11.525   6.561 -0.1076  0.0657  0.0217
 1138ERGO    R116014  14.375  11.417   6.809 -0.1277  0.0374  0.0171
 1138ERGO    R216015  14.600  11.507   6.942 -0.0324 -0.1008 -0.0408
 1138ERGO    R316016  14.426  11.541   7.147  0.0316  0.0470 -0.0108
 1138ERGO    R416017  14.687  11.613   7.259  0.1085 -0.1748 -0.0544
 1138ERGO    R516018  14.547  11.468   7.341  0.0002 -0.0547 -0.0321
 1138ERGO    C116019  14.573  11.706   7.637  0.2506 -0.0791 -0.0343
 1138ERGO    C216020  14.677  11.828   7.878  0.2273 -0.1099  0.0741
 1139ERGO   ROH16021  17.957   6.846   5.820  0.1219 -0.0948 -0.1331
 1139ERGO    R116022  18.103   6.901   6.056  0.1783 -0.0061 -0.1880
 1139ERGO    R216023  18.003   6.853   6.309  0.2061  0.1631 -0.1397
 1139ERGO    R316024  18.233   6.711   6.338  0.1689  0.1108 -0.1051
 1139ERGO    R416025  18.154   6.781   6.611  0.0781  0.0121 -0.1106
 1139ERGO    R516026  18.348   6.820   6.518  0.1192  0.0146 -0.0179
 1139ERGO    C116027  18.459   6.607   6.814 -0.0313 -0.1250 -0.0612
 1139ERGO    C216028  18.585   6.602   6.971 -0.1210 -0.1136 -0.4110
 1140ERGO   ROH16029   5.203  16.383   7.375 -0.1170  0.1329 -0.2155
 1140ERGO    R116030   5.161  16.463   7.643 -0.0322  0.1655 -0.2118
 1140ERGO    R216031   5.023  16.693   7.709 -0.2863  0.0123 -0.1928
 1140ERGO    R316032   4.875  16.522   7.859  0.0385 -0.1371 -0.0311
 1140ERGO    R416033   4.800  16.788   7.956 -0.4958 -0.1786 -0.3045
 1140ERGO    R516034   4.871  16.621   8.077 -0.1705  0.0760 -0.1299
 1140ERGO    C116035   4.531  16.682   8.240 -0.3129 -0.4297 -0.2178
 1140ERGO    C216036   4.199  16.687   8.271 -0.0716 -0.1441  0.1345
 1141ERGO   ROH16037   0.415  15.624   6.258  0.0126 -0.2343  0.0334
 1141ERGO    R116038   0.506  15.670   6.522  0.0511 -0.2324  0.0195
 1141ERGO    R216039   0.388  15.854   6.690  0.2339 -0.0479 -0.0514
 1141ERGO    R316040   0.369  15.641   6.858  0.0079  0.0301  0.0265
 1141ERGO    R416041   0.325  15.876   7.029  0.4229  0.1527 -0.0269
 1141ERGO    R516042   0.471  15.717   7.061  0.2136 -0.0482 -0.0458
 1141ERGO    C116043   0.271  15.689   7.384  0.3208  0.3427  0.0605
 1141ERGO    C216044   0.179  15.913   7.598 -0.0089 -0.1870  0.0314
 1142ERGO   ROH16045   2.070   3.922   9.659  0.0509  0.1319 -0.0030
 1142ERGO    R116046   2.184   3.859   9.408 -0.0542  0.0782 -0.0378
 1142ERGO    R216047   2.138   3.619   9.281 -0.1505  0.0719  0.0077
 1142ERGO    R316048   2.062   3.779   9.075 -0.1935  0.0627  0.0162
 1142ERGO    R416049   2.207   3.558   8.947 -0.2741  0.0252 -0.0099
 1142ERGO    R516050   2.247   3.771   8.922 -0.2468  0.0157 -0.0459
 1142ERGO    C116051   2.175   3.674   8.560 -0.3864 -0.0106 -0.0120
 1142ERGO    C216052   2.316   3.525   8.097  0.1570 -0.1762  0.0645
 1143ERGO   ROH16053   3.944   1.708  10.336 -0.2460 -0.0730 -0.0179
 1143ERGO    R116054   4.123   1.641  10.128 -0.1985 -0.1223  0.0382
 1143ERGO    R216055   4.093   1.415   9.972 -0.3471  0.0053 -0.1239
 1143ERGO    R316056   4.104   1.593   9.767 -0.0521  0.1299 -0.0056
 1143ERGO    R416057   4.217   1.346   9.657 -0.1276  0.1212 -0.0651
 1143ERGO    R516058   4.310   1.543   9.656  0.0100  0.0607  0.1370
 1143ERGO    C116059   4.299   1.474   9.281  0.2770  0.3055  0.0803
 1143ERGO    C216060   4.221   1.509   8.855  0.0471 -0.0347  0.0240
 1144ERGO   ROH16061  16.591  11.803  10.447 -0.0096  0.2466  0.1756
 1144ERGO    R116062  16.684  11.908  10.201  0.1463  0.0081  0.1296
 1144ERGO    R216063  16.812  11.753  10.011 -0.1813 -0.2893  0.1487
 1144ERGO    R316064  16.617  11.851   9.848 -0.0294  0.0377  0.1556
 1144ERGO    R416065  16.828  11.763   9.666 -0.1449 -0.2661  0.1503
 1144ERGO    R516066  16.736  11.960   9.672  0.1545 -0.1158  0.1766
 1144ERGO    C116067  16.656  11.862   9.312  0.0190  0.0545  0.1576
 1144ERGO    C216068  16.728  11.983   9.085 -0.1367  0.0777  0.1021
 1145ERGO   ROH16069  16.211   4.337   5.688  0.1530 -0.2859 -0.0938
 1145ERGO    R116070  16.188   4.444   5.949 -0.0115 -0.3959 -0.0616
 1145ERGO    R216071  16.290   4.317   6.171  0.4253 -0.1888 -0.1368
 1145ERGO    R316072  16.417   4.554   6.210 -0.1665  0.1471 -0.1405
 1145ERGO    R416073  16.363   4.452   6.481  0.6332 -0.3299 -0.1219
 1145ERGO    R516074  16.308   4.648   6.402 -0.0877 -0.3747  0.1842
 1145ERGO    C116075  16.525   4.754   6.697  0.1990 -0.0968 -0.1168
 1145ERGO    C216076  16.600   4.794   7.018 -0.1526 -0.1714 -0.0418
 1146ERGO   ROH16077   0.176   3.673   9.362 -0.2533  0.1050 -0.1551
 1146ERGO    R116078   0.161   3.514   9.128 -0.2684 -0.0126 -0.0756
 1146ERGO    R216079  -0.051   3.528   8.952 -0.2031  0.0195 -0.1557
 1146ERGO    R316080   0.145   3.573   8.770 -0.1130 -0.1935 -0.1132
 1146ERGO    R416081  -0.087   3.493   8.610 -0.1502  0.0179 -0.1609
 1146ERGO    R516082   0.111   3.404   8.603 -0.2360 -0.1781 -0.1023
 1146ERGO    C116083   0.076   3.515   8.240 -0.0347 -0.1830 -0.1243
 1146ERGO    C216084   0.151   3.519   7.948  0.1252  0.1626  0.0100
 1147ERGO   ROH16085  11.889  15.445  10.379  0.1544  0.0678 -0.1822
 1147ERGO    R116086  11.900  15.283  10.147  0.0201  0.0138 -0.1522
 1147ERGO    R216087  11.679  15.232   9.990 -0.0208  0.1814 -0.1521
 1147ERGO    R316088  11.839  15.326   9.791  0.0725  0.0045 -0.1624
 1147ERGO    R416089  11.613  15.200   9.652 -0.0818  0.2613 -0.1478
 1147ERGO    R516090  11.824  15.159   9.620 -0.1290  0.0217 -0.1640
 1147ERGO    C116091  11.724  15.270   9.269 -0.0299  0.1419 -0.1549
 1147ERGO    C216092  11.610  15.362   8.945 -0.1024 -0.0498  0.4822
 1148ERGO   ROH16093  13.969  14.495   6.774 -0.1162 -0.0956  0.0131
 1148ERGO    R116094  14.218  14.579   6.878 -0.0493 -0.1863 -0.0721
 1148ERGO    R216095  14.241  14.720   7.114  0.0648 -0.0172 -0.1812
 1148ERGO    R316096  14.414  14.520   7.179 -0.0681 -0.0879 -0.0403
 1148ERGO    R416097  14.382  14.674   7.427  0.0545  0.1245 -0.1551
 1148ERGO    R516098  14.570  14.623   7.329  0.0129 -0.0800 -0.1299
 1148ERGO    C116099  14.625  14.460   7.670 -0.0763  0.1408 -0.0077
 1148ERGO    C216100  14.706  14.299   7.784  0.0205 -0.0943 -0.1493
 1149ERGO   ROH16101   0.052  15.414   6.513  0.0599  0.2056 -0.0410
 1149ERGO    R116102   0.038  15.282   6.763  0.0117  0.2506 -0.0213
 1149ERGO    R216103   0.262  15.235   6.919 -0.0103  0.1923 -0.0214
 1149ERGO    R316104   0.115  15.362   7.109  0.0427  0.2718 -0.0306
 1149ERGO    R416105   0.333  15.234   7.257 -0.0933  0.0374 -0.0023
 1149ERGO    R516106   0.120  15.214   7.297 -0.1320  0.2085 -0.0661
 1149ERGO    C116107   0.237  15.352   7.633 -0.0918  0.0218  0.0001
 1149ERGO    C216108   0.405  15.555   7.912  0.1738  0.3170 -0.0927
 1150ERGO   ROH16109  16.050  15.577   6.465  0.0108  0.0249  0.0330
 1150ERGO    R116110  16.067  15.547   6.745  0.1122  0.0058  0.0251
 1150ERGO    R216111  16.222  15.711   6.904  0.0083  0.1258  0.0020
 1150ERGO    R316112  15.989  15.748   7.038  0.0095 -0.0977  0.0704
 1150ERGO    R416113  16.197  15.806   7.235  0.0183  0.1712 -0.0101
 1150ERGO    R516114  16.032  15.666   7.258  0.1745 -0.0046  0.0755
 1150ERGO    C116115  15.963  15.896   7.554  0.0254 -0.0119  0.0471
 1150ERGO    C216116  15.686  15.835   7.858  0.1847  0.1994 -0.0327
 1151ERGO   ROH16117  14.408  11.932   6.579  0.2280 -0.0081 -0.0724
 1151ERGO    R116118  14.481  11.903   6.851  0.2004  0.1179 -0.0510
 1151ERGO    R216119  14.512  12.118   7.021 -0.1000  0.1798 -0.0739
 1151ERGO    R316120  14.334  11.981   7.175  0.0283 -0.0144 -0.0948
 1151ERGO    R416121  14.368  12.238   7.312 -0.0481 -0.0816  0.0635
 1151ERGO    R516122  14.392  12.040   7.399  0.0878 -0.1323 -0.0759
 1151ERGO    C116123  14.118  12.179   7.625  0.1028 -0.4161  0.1238
 1151ERGO    C216124  13.966  12.288   7.956 -0.3025  0.3605 -0.0574
 1152ERGO   ROH16125   0.996  17.894   6.519 -0.0441  0.0696  0.1630
 1152ERGO    R116126   1.037  18.035   6.761 -0.1356  0.1552  0.1290
 1152ERGO    R216127   1.246  18.212   6.797 -0.0350  0.0201  0.2092
 1152ERGO    R316128   1.047  18.384   6.866  0.0319  0.1998 -0.0304
 1152ERGO    R416129   1.213  18.360   7.107 -0.2645  0.0614  0.1669
 1152ERGO    R516130   0.997  18.328   7.093 -0.2824  0.2508 -0.0815
 1152ERGO    C116131   1.007  18.608   7.353 -0.3352  0.2543 -0.0826
 1152ERGO    C216132   1.069  18.908   7.501  0.2052 -0.3766  0.0445
 1153ERGO   ROH16133  11.302   7.828  10.354 -0.1317 -0.3094 -0.0684
 1153ERGO    R116134  11.210   7.918  10.102 -0.0617 -0.1632 -0.0427
 1153ERGO    R216135  11.382   7.998   9.901  0.0021 -0.2336 -0.0167
 1153ERGO    R316136  11.245   7.813   9.755 -0.1385 -0.0872 -0.0737
 1153ERGO    R416137  11.385   7.978   9.556  0.0778 -0.2032 -0.0182
 1153ERGO    R516138  11.171   7.934   9.561  0.0322  0.0047 -0.0827
 1153ERGO    C116139  11.259   7.793   9.218 -0.0102 -0.0479 -0.0724
 1153ERGO    C216140  11.305   7.931   8.957 -0.0335 -0.0271 -0.2536
 1154ERGO   ROH16141   0.409   1.374   9.743  0.1486 -0.1274  0.2245
 1154ERGO    R116142   0.476   1.202   9.528  0.1198 -0.0453  0.1506
 1154ERGO    R216143   0.328   1.192   9.294  0.0382 -0.0204  0.2047
 1154ERGO    R316144   0.568   1.241   9.178 -0.0190  0.0810  0.1259
 1154ERGO    R416145   0.393   1.166   8.956 -0.0186 -0.1717  0.2037
 1154ERGO    R516146   0.586   1.077   9.005  0.0567 -0.0108  0.2165
 1154ERGO    C116147   0.657   1.197   8.650 -0.1053 -0.1646  0.1292
 1154ERGO    C216148   0.540   1.179   8.347  0.4594  0.0751 -0.1169
 1155ERGO   ROH16149  15.051  15.752   6.586  0.1431 -0.1733 -0.2202
 1155ERGO    R116150  15.135  15.659   6.840  0.0829  0.0561 -0.1128
 1155ERGO    R216151  15.023  15.750   7.076 -0.1169  0.1233 -0.2264
 1155ERGO    R316152  14.983  15.484   7.121  0.0684  0.1179 -0.0836
 1155ERGO    R416153  14.898  15.615   7.369 -0.3725  0.2229 -0.2880
 1155ERGO    R516154  15.042  15.453   7.351 -0.1991  0.3404  0.0182
 1155ERGO    C116155  14.787  15.288   7.582 -0.3473  0.2759 -0.1899
 1155ERGO    C216156  14.662  14.933   7.757  0.2515 -0.3319 -0.0353
 1156ERGO   ROH16157   5.522   7.553   6.586 -0.1853  0.0980 -0.0726
 1156ERGO    R116158   5.347   7.514   6.804 -0.1853  0.0567 -0.0803
 1156ERGO    R216159   5.136   7.336   6.796 -0.0470 -0.1081 -0.0341
 1156ERGO    R316160   5.252   7.238   7.021 -0.0040  0.0754  0.0255
 1156ERGO    R416161   4.970   7.271   7.093 -0.0781 -0.2517 -0.0815
 1156ERGO    R516162   5.142   7.352   7.200 -0.2088 -0.0206 -0.0347
 1156ERGO    C116163   4.983   7.142   7.477 -0.0559 -0.1629 -0.0532
 1156ERGO    C216164   4.893   7.211   7.825  0.0910  0.5525  0.3827
 1157ERGO   ROH16165  14.990   4.429   9.419  0.0354  0.0151  0.0607
 1157ERGO    R116166  14.965   4.489   9.143  0.1141 -0.0193  0.0457
 1157ERGO    R216167  15.135   4.384   8.952  0.0070 -0.2544  0.0749
 1157ERGO    R316168  14.903   4.304   8.836 -0.0814 -0.0217  0.0859
 1157ERGO    R416169  15.102   4.287   8.622 -0.0799 -0.3376  0.1078
 1157ERGO    R516170  14.912   4.394   8.615  0.0454 -0.1132  0.0534
 1157ERGO    C116171  14.865   4.155   8.321 -0.2134 -0.1674  0.1373
 1157ERGO    C216172  14.945   4.011   8.095  0.0145  0.1420 -0.3106
 1158ERGO   ROH16173   1.596   7.454   9.693  0.2319  0.2441  0.0933
 1158ERGO    R116174   1.530   7.472   9.418  0.1423 -0.1014  0.0863
 1158ERGO    R216175   1.568   7.702   9.270 -0.3838 -0.1088 -0.0979
 1158ERGO    R316176   1.708   7.536   9.108 -0.0395  0.0631  0.0168
 1158ERGO    R416177   1.615   7.750   8.931 -0.3561 -0.1818 -0.1029
 1158ERGO    R516178   1.586   7.536   8.902  0.0279 -0.2437 -0.0216
 1158ERGO    C116179   1.774   7.621   8.581 -0.0168 -0.0630  0.0020
 1158ERGO    C216180   1.923   7.657   8.196  0.1960  0.0693 -0.1363
 1159ERGO   ROH16181   2.526   6.294   6.242  0.0747 -0.0412 -0.0413
 1159ERGO    R116182   2.352   6.138   6.402 -0.0730  0.0743 -0.0860
 1159ERGO    R216183   2.335   6.169   6.676  0.0355 -0.0582 -0.0595
 1159ERGO    R316184   2.070   6.200   6.623  0.0563  0.2928  0.0195
 1159ERGO    R416185   2.079   6.062   6.882 -0.0497 -0.1383 -0.2057
 1159ERGO    R516186   1.969   5.999   6.704 -0.1372  0.2586 -0.2982
 1159ERGO    C116187   1.681   6.029   6.952 -0.0797  0.1447 -0.2168
 1159ERGO    C216188   1.559   6.237   7.175  0.0287 -0.0014 -0.0371
 1160ERGO   ROH16189   7.832  14.820   6.660 -0.0806  0.0858  0.0494
 1160ERGO    R116190   7.910  14.777   6.929  0.0150 -0.0816 -0.0033
 1160ERGO    R216191   8.162  14.841   7.023 -0.0161  0.0503 -0.0059
 1160ERGO    R316192   8.021  14.983   7.208 -0.0972 -0.2255  0.1496
 1160ERGO    R416193   8.278  14.927   7.337  0.0585  0.0464 -0.0325
 1160ERGO    R516194   8.080  14.883   7.417  0.1601 -0.2553  0.0662
 1160ERGO    C116195   8.214  15.110   7.693  0.0259 -0.2147  0.0981
 1160ERGO    C216196   8.354  15.246   7.866 -0.3581  0.0010  0.1968
 1161ERGO   ROH16197  10.856  16.551   6.619  0.1710  0.0045  0.0577
 1161ERGO    R116198  10.692  16.597   6.845  0.1502 -0.1359  0.0703
 1161ERGO    R216199  10.638  16.401   7.032  0.3683 -0.1694  0.0926
 1161ERGO    R316200  10.731  16.586   7.206  0.1988 -0.0580  0.0692
 1161ERGO    R416201  10.527  16.439   7.357  0.1370 -0.0564  0.0042
 1161ERGO    R516202  10.538  16.655   7.330  0.0893 -0.0596 -0.0904
 1161ERGO    C116203  10.551  16.635   7.710 -0.1567  0.1140 -0.0692
 1161ERGO    C216204  10.711  16.908   7.890 -0.0545  0.1464 -0.0250
 1162ERGO   ROH16205   5.093  10.431   6.873  0.1486  0.1344  0.0191
 1162ERGO    R116206   5.113  10.473   7.152 -0.0711  0.1312  0.0379
 1162ERGO    R216207   4.897  10.447   7.323 -0.1587 -0.1021 -0.0982
 1162ERGO    R316208   5.062  10.276   7.454 -0.0654  0.0508 -0.0145
 1162ERGO    R416209   4.827  10.299   7.627 -0.1718 -0.1666 -0.1330
 1162ERGO    R516210   5.035  10.332   7.685 -0.2315  0.0252 -0.0292
 1162ERGO    C116211   4.942  10.052   7.927 -0.0920 -0.0605 -0.0747
 1162ERGO    C216212   4.956   9.740   7.998 -0.0022  0.0466  0.1323
 1163ERGO   ROH16213   2.062  17.445   6.367  0.0761  0.1014  0.0384
 1163ERGO    R116214   1.850  17.335   6.519  0.0607  0.0648 -0.0092
 1163ERGO    R216215   1.892  17.180   6.744  0.0379  0.0119 -0.0402
 1163ERGO    R316216   1.728  17.362   6.860  0.0255 -0.0153 -0.0155
 1163ERGO    R416217   1.850  17.218   7.084  0.1295  0.0505 -0.0329
 1163ERGO    R516218   1.637  17.247   7.050  0.1127 -0.0107  0.0281
 1163ERGO    C116219   1.671  17.412   7.393  0.1713  0.0473 -0.0055
 1163ERGO    C216220   1.591  17.653   7.678  0.3773  0.1505 -0.1163
 1164ERGO   ROH16221   7.044   9.903   6.964  0.0178 -0.0808  0.0764
 1164ERGO    R116222   6.992   9.902   7.243 -0.0318  0.0299  0.0683
 1164ERGO    R216223   6.838  10.095   7.366 -0.1226  0.0352 -0.0481
 1164ERGO    R316224   6.698   9.881   7.456 -0.0637  0.0269  0.0236
 1164ERGO    R416225   6.585  10.110   7.601 -0.1119  0.0387 -0.0371
 1164ERGO    R516226   6.663   9.926   7.689 -0.0614  0.0852  0.0116
 1164ERGO    C116227   6.306   9.916   7.823 -0.0504  0.0330  0.0365
 1164ERGO    C216228   5.952   9.927   7.790  0.0320 -0.1846 -0.1311
 1165ERGO   ROH16229  12.716   7.411   9.862  0.2259 -0.0978  0.1665
 1165ERGO    R116230  12.680   7.526   9.605 -0.0353 -0.0394  0.2246
 1165ERGO    R216231  12.872   7.508   9.406 -0.0907  0.2897  0.1281
 1165ERGO    R316232  12.666   7.406   9.262 -0.0246  0.0727  0.1863
 1165ERGO    R416233  12.810   7.578   9.074 -0.2440  0.1914  0.1362
 1165ERGO    R516234  12.598   7.586   9.120 -0.2379 -0.0135  0.1829
 1165ERGO    C116235  12.581   7.522   8.744 -0.2713 -0.0696  0.1955
 1165ERGO    C216236  12.591   7.631   8.443  0.0012 -0.1282 -0.0611
 1166ERGO   ROH16237   7.484  15.790   6.707 -0.2089  0.0479  0.1229
 1166ERGO    R116238   7.610  15.892   6.938 -0.1831  0.4352 -0.0547
 1166ERGO    R216239   7.514  16.113   7.074 -0.5952  0.2372 -0.0034
 1166ERGO    R316240   7.520  15.945   7.287  0.0963  0.2902  0.0413
 1166ERGO    R416241   7.434  16.203   7.397 -0.6113  0.0743  0.0386
 1166ERGO    R516242   7.601  16.081   7.467 -0.1640  0.5916 -0.0620
 1166ERGO    C116243   7.392  16.098   7.787  0.0285  0.0293  0.1051
 1166ERGO    C216244   7.199  16.344   8.042  0.0843 -0.1985 -0.0836
 1167ERGO   ROH16245   9.275   7.115   6.449  0.2146  0.0584 -0.1948
 1167ERGO    R116246   9.385   7.128   6.710  0.1231 -0.1682 -0.1421
 1167ERGO    R216247   9.641   7.039   6.767  0.1722 -0.0477 -0.1710
 1167ERGO    R316248   9.670   7.290   6.868 -0.0451 -0.1403  0.1394
 1167ERGO    R416249   9.849   7.123   7.030  0.1786 -0.1766 -0.1343
 1167ERGO    R516250   9.694   7.257   7.104  0.0670 -0.4217  0.0935
 1167ERGO    C116251   9.999   7.407   7.277 -0.0217 -0.3388  0.1785
 1167ERGO    C216252  10.255   7.357   7.509 -0.3960  0.0852 -0.3494
 1168ERGO   ROH16253  12.912  15.440   6.969  0.0286 -0.4018  0.0165
 1168ERGO    R116254  12.837  15.618   7.176  0.0600 -0.3146 -0.0450
 1168ERGO    R216255  12.655  15.549   7.372 -0.0654 -0.1626 -0.0996
 1168ERGO    R316256  12.856  15.623   7.539 -0.0792 -0.2639 -0.0394
 1168ERGO    R416257  12.624  15.584   7.714 -0.1920  0.0289 -0.1296
 1168ERGO    R516258  12.749  15.762   7.703 -0.0288 -0.0914 -0.1555
 1168ERGO    C116259  12.795  15.673   8.071 -0.2789  0.0455 -0.0905
 1168ERGO    C216260  12.766  15.788   8.405 -0.2532 -0.0292 -0.2443
 1169ERGO   ROH16261  10.663   0.102  10.320  0.1265 -0.1700 -0.1459
 1169ERGO    R116262  10.617   0.255  10.087 -0.2557 -0.0871 -0.0202
 1169ERGO    R216263  10.790   0.255   9.871 -0.2569  0.5044 -0.0252
 1169ERGO    R316264  10.565   0.189   9.733 -0.1117  0.0739 -0.0765
 1169ERGO    R416265  10.755   0.274   9.527 -0.2776  0.7302 -0.0134
 1169ERGO    R516266  10.554   0.350   9.557 -0.4885  0.2258  0.0625
 1169ERGO    C116267  10.524   0.223   9.198 -0.1533  0.4576 -0.0546
 1169ERGO    C216268  10.654   0.135   8.866 -0.2188 -0.0301 -0.3555
 1170ERGO   ROH16269  14.402   7.863   6.116  0.0592  0.1767 -0.0936
 1170ERGO    R116270  14.536   8.071   6.254  0.0909  0.0951 -0.0000
 1170ERGO    R216271  14.403   8.289   6.361  0.1470  0.1743 -0.0873
 1170ERGO    R316272  14.529   8.213   6.589 -0.0524  0.0934 -0.0017
 1170ERGO    R416273  14.572   8.501   6.575  0.0370  0.0848  0.0901
 1170ERGO    R516274  14.725   8.349   6.598 -0.0213  0.0391  0.1806
 1170ERGO    C116275  14.789   8.553   6.914 -0.2145 -0.0432  0.2737
 1170ERGO    C216276  14.829   8.466   7.309 -0.4677  0.0312  0.0975
 1171ERGO   ROH16277   2.887   1.958   6.037 -0.1341 -0.0721  0.0517
 1171ERGO    R116278   2.694   2.092   6.196 -0.1293  0.1835 -0.1518
 1171ERGO    R216279   2.727   2.132   6.467 -0.4010  0.0519 -0.0971
 1171ERGO    R316280   2.684   2.392   6.401  0.0847  0.1473 -0.0843
 1171ERGO    R416281   2.623   2.377   6.688 -0.1030  0.2037 -0.1189
 1171ERGO    R516282   2.493   2.455   6.532  0.1145  0.4578 -0.1818
 1171ERGO    C116283   2.521   2.764   6.754  0.5266  0.3817 -0.1196
 1171ERGO    C216284   2.595   3.023   6.854  0.0567  0.0649 -0.0182
 1172ERGO   ROH16285   7.590  13.121  10.401 -0.2045 -0.0767 -0.1247
 1172ERGO    R116286   7.684  13.203  10.147 -0.2434  0.1313 -0.0743
 1172ERGO    R216287   7.748  13.023   9.947  0.1019  0.2730 -0.0993
 1172ERGO    R316288   7.573  13.172   9.802 -0.0840  0.0421 -0.1184
 1172ERGO    R416289   7.725  13.020   9.602 -0.0493  0.0393 -0.0894
 1172ERGO    R516290   7.697  13.236   9.607 -0.2213  0.0217 -0.2138
 1172ERGO    C116291   7.548  13.158   9.265 -0.3118 -0.3136 -0.1017
 1172ERGO    C216292   7.658  13.116   8.936  0.0237 -0.0608 -0.1570
 1173ERGO   ROH16293  13.253   2.240  10.334 -0.2714  0.1543 -0.0753
 1173ERGO    R116294  13.114   2.296  10.094 -0.0630  0.3015 -0.1687
 1173ERGO    R216295  13.241   2.388   9.866  0.2077  0.0459 -0.1480
 1173ERGO    R316296  13.118   2.174   9.751 -0.0594  0.1868 -0.1228
 1173ERGO    R416297  13.191   2.348   9.527  0.1880  0.0163 -0.1390
 1173ERGO    R516298  12.992   2.269   9.570  0.0908  0.2935 -0.1542
 1173ERGO    C116299  13.045   2.125   9.221 -0.0743  0.1313 -0.1101
 1173ERGO    C216300  13.025   2.111   8.827  0.1473  0.1987  0.2618
 1174ERGO   ROH16301   2.689  11.061   6.765 -0.1042  0.2838 -0.1666
 1174ERGO    R116302   2.572  11.174   6.996 -0.1553  0.1792 -0.1423
 1174ERGO    R216303   2.602  11.063   7.248 -0.1270  0.1236 -0.1762
 1174ERGO    R316304   2.690  11.313   7.311 -0.2223  0.1395 -0.0979
 1174ERGO    R416305   2.591  11.202   7.564  0.3041 -0.1905 -0.0124
 1174ERGO    R516306   2.533  11.392   7.474 -0.0170 -0.1442  0.2598
 1174ERGO    C116307   2.667  11.517   7.808  0.4657 -0.3584  0.1564
 1174ERGO    C216308   2.712  11.462   8.101  0.1437  0.2265 -0.1113
 1175ERGO   ROH16309  14.220   9.164  10.137  0.2686 -0.2671 -0.1139
 1175ERGO    R116310  14.129   9.137   9.870 -0.0815 -0.0377 -0.0256
 1175ERGO    R216311  13.981   9.333   9.742  0.3306  0.3841  0.1115
 1175ERGO    R316312  14.178   9.312   9.555  0.1071 -0.1894 -0.0823
 1175ERGO    R416313  13.946   9.417   9.409  0.1892  0.2457  0.0905
 1175ERGO    R516314  14.064   9.241   9.357 -0.2607 -0.0652  0.0773
 1175ERGO    C116315  14.110   9.447   9.039 -0.1029 -0.3730 -0.1036
 1175ERGO    C216316  14.120   9.445   8.700 -0.0652  0.1488  0.2316
 1176ERGO   ROH16317   8.526   3.781   6.883  0.0914  0.0128 -0.0324
 1176ERGO    R116318   8.542   3.810   7.164  0.0496 -0.0914 -0.0192
 1176ERGO    R216319   8.782   3.817   7.299  0.0329  0.0159 -0.0008
 1176ERGO    R316320   8.684   4.051   7.397 -0.1315 -0.0893  0.0928
 1176ERGO    R416321   8.942   4.016   7.532  0.0002  0.1367 -0.0794
 1176ERGO    R516322   8.749   4.050   7.627  0.0227 -0.0621  0.0535
 1176ERGO    C116323   8.943   4.351   7.760 -0.1732  0.1082 -0.0373
 1176ERGO    C216324   9.157   4.559   7.818 -0.0432  0.3237  0.1254
 1177ERGO   ROH16325   4.630   4.454   6.462 -0.2565  0.0979 -0.0298
 1177ERGO    R116326   4.648   4.482   6.743 -0.3002  0.2410 -0.0405
 1177ERGO    R216327   4.426   4.519   6.904 -0.3499  0.0745 -0.0699
 1177ERGO    R316328   4.525   4.302   7.035 -0.1242  0.2355  0.0317
 1177ERGO    R416329   4.332   4.420   7.222 -0.1670  0.1847  0.0201
 1177ERGO    R516330   4.541   4.373   7.263 -0.1120  0.3870 -0.0149
 1177ERGO    C116331   4.371   4.160   7.530  0.1513  0.4001  0.1679
 1177ERGO    C216332   4.311   4.094   7.858 -0.2067  0.3911  0.0114
 1178ERGO   ROH16333  11.580  13.974   6.770 -0.1961  0.1611  0.0699
 1178ERGO    R116334  11.716  14.003   7.017 -0.4431  0.2856  0.1950
 1178ERGO    R216335  11.592  13.965   7.261 -0.4968 -0.4566  0.0711
 1178ERGO    R316336  11.797  13.790   7.301  0.0757  0.1442 -0.0440
 1178ERGO    R416337  11.718  13.877   7.570 -0.4873 -0.5324  0.0465
 1178ERGO    R516338  11.919  13.883   7.485 -0.3986  0.2828  0.2223
 1178ERGO    C116339  11.983  13.662   7.788  0.0559 -0.0127 -0.0759
 1178ERGO    C216340  11.896  13.349   7.964 -0.0576  0.2780 -0.1675
 1179ERGO   ROH16341  17.248   9.294   6.414  0.1892 -0.1704  0.0996
 1179ERGO    R116342  17.149   9.305   6.679 -0.1252 -0.0961 -0.0157
 1179ERGO    R216343  16.934   9.153   6.764 -0.0118 -0.3369 -0.1390
 1179ERGO    R316344  17.109   9.072   6.956 -0.1015  0.0639  0.1226
 1179ERGO    R416345  16.851   8.958   7.037 -0.0049 -0.3641 -0.1569
 1179ERGO    R516346  16.982   9.082   7.159 -0.3790 -0.0684 -0.0409
 1179ERGO    C116347  16.966   8.769   7.376 -0.0852 -0.0038  0.0783
 1179ERGO    C216348  16.760   8.532   7.529  0.1462 -0.1159 -0.3995
 1180ERGO   ROH16349   2.788   1.685   7.823  0.2204  0.1935  0.2400
 1180ERGO    R116350   3.058   1.711   7.742  0.2788  0.0798  0.3947
 1180ERGO    R216351   3.266   1.586   7.875  0.1179 -0.2742  0.3217
 1180ERGO    R316352   3.323   1.488   7.627  0.1444  0.0113  0.2113
 1180ERGO    R416353   3.577   1.475   7.772  0.1153 -0.2168  0.2504
 1180ERGO    R516354   3.542   1.571   7.580  0.1727  0.0253  0.3548
 1180ERGO    C116355   3.811   1.318   7.480  0.1387  0.0845  0.1052
 1180ERGO    C216356   3.962   1.090   7.502 -0.1205 -0.4195 -0.1634
 1181ERGO   ROH16357  14.272  13.159  10.587 -0.0316  0.0926 -0.1013
 1181ERGO    R116358  14.371  13.156  10.322  0.0186 -0.0148 -0.0821
 1181ERGO    R216359  14.315  12.951  10.144 -0.1643  0.0396 -0.0903
 1181ERGO    R316360  14.228  13.155   9.987  0.0814  0.1323 -0.1099
 1181ERGO    R416361  14.357  12.967   9.802  0.0058  0.0415 -0.0702
 1181ERGO    R516362  14.400  13.180   9.822  0.1792  0.0034 -0.0290
 1181ERGO    C116363  14.300  13.168   9.454  0.3356  0.1299 -0.0768
 1181ERGO    C216364  14.234  13.035   9.164  0.1003 -0.2113 -0.1063
 1182ERGO   ROH16365  15.547   8.781   9.697  0.2132  0.1245  0.0484
 1182ERGO    R116366  15.519   8.730   9.420  0.3625 -0.0178  0.0582
 1182ERGO    R216367  15.323   8.849   9.266  0.2262 -0.3596 -0.0384
 1182ERGO    R316368  15.534   8.925   9.113  0.1605 -0.1030 -0.0078
 1182ERGO    R416369  15.306   8.925   8.929  0.1740 -0.3330 -0.0303
 1182ERGO    R516370  15.495   8.820   8.901  0.2966 -0.1209 -0.0263
 1182ERGO    C116371  15.494   9.040   8.589  0.0819 -0.0766  0.0031
 1182ERGO    C216372  15.572   8.967   8.214 -0.3024  0.1193 -0.1244
 1183ERGO   ROH16373   6.062  10.861  10.454  0.3647 -0.2225  0.1530
 1183ERGO    R116374   6.036  10.711  10.215  0.3694 -0.1653  0.1171
 1183ERGO    R216375   5.860  10.781  10.014  0.1600 -0.2807  0.2613
 1183ERGO    R316376   6.083  10.770   9.859  0.0716  0.0143  0.1026
 1183ERGO    R416377   5.861  10.785   9.668 -0.0782 -0.0593  0.2587
 1183ERGO    R516378   6.019  10.635   9.672  0.0627  0.0727  0.0594
 1183ERGO    C116379   6.072  10.776   9.322 -0.3000  0.3465  0.1081
 1183ERGO    C216380   6.142  10.727   8.947  0.0400  0.1141  0.0266
 1184ERGO   ROH16381   9.351  17.928  10.216  0.3297  0.2251 -0.0189
 1184ERGO    R116382   9.449  17.908   9.951  0.1543  0.0241 -0.0695
 1184ERGO    R216383   9.398  17.688   9.791 -0.1445  0.0051  0.0528
 1184ERGO    R316384   9.305  17.877   9.618 -0.0706  0.0178  0.0249
 1184ERGO    R416385   9.431  17.676   9.447 -0.2235 -0.1116  0.0482
 1184ERGO    R516386   9.472  17.889   9.448 -0.0939 -0.1299 -0.0158
 1184ERGO    C116387   9.363  17.845   9.085 -0.2002 -0.1672  0.0192
 1184ERGO    C216388   9.320  17.895   8.704 -0.3622  0.0651 -0.1600
 1185ERGO   ROH16389   1.567  13.711   6.634  0.0130 -0.0206 -0.0388
 1185ERGO    R116390   1.545  13.706   6.916  0.0230 -0.0576 -0.0380
 1185ERGO    R216391   1.761  13.663   7.081  0.0396 -0.0279 -0.0481
 1185ERGO    R316392   1.680  13.896   7.195 -0.0099 -0.0583 -0.0223
 1185ERGO    R416393   1.757  13.725   7.421  0.2464  0.0172 -0.0527
 1185ERGO    R516394   1.566  13.828   7.395  0.1702 -0.0938  0.0688
 1185ERGO    C116395   1.678  13.980   7.726  0.3203  0.0149 -0.0312
 1185ERGO    C216396   1.724  14.207   7.986  0.1707  0.2323  0.4202
 1186ERGO   ROH16397   8.878   0.833   6.621 -0.2856  0.1319  0.2872
 1186ERGO    R116398   9.071   1.019   6.713 -0.4189  0.2730  0.2857
 1186ERGO    R216399   9.075   1.113   6.973 -0.2145 -0.0802  0.4158
 1186ERGO    R316400   9.332   1.025   6.966 -0.0906  0.2764 -0.0446
 1186ERGO    R416401   9.331   1.237   7.169 -0.2217 -0.2417  0.5295
 1186ERGO    R516402   9.463   1.223   6.996 -0.3397  0.3930  0.3610
 1186ERGO    C116403   9.721   1.227   7.277 -0.1095 -0.0011  0.1636
 1186ERGO    C216404   9.798   1.325   7.614  0.1799 -0.4429 -0.1115
 1187ERGO   ROH16405   6.372   4.762   6.536  0.2842  0.0241  0.0819
 1187ERGO    R116406   6.180   4.809   6.740  0.2395  0.2332 -0.0068
 1187ERGO    R216407   6.212   4.716   6.998  0.0057  0.1719 -0.0029
 1187ERGO    R316408   6.173   4.978   7.062  0.2813  0.2149  0.0055
 1187ERGO    R416409   6.027   4.829   7.268  0.1093  0.3494 -0.0032
 1187ERGO    R516410   5.947   4.987   7.141  0.2800  0.4456 -0.0042
 1187ERGO    C116411   5.882   5.139   7.484  0.4284  0.4931  0.0046
 1187ERGO    C216412   5.941   5.066   7.795  0.2477  0.1397 -0.1053
 1188ERGO   ROH16413  12.112   8.337  10.164  0.0267  0.0216  0.0657
 1188ERGO    R116414  11.984   8.340   9.912  0.0040  0.1206  0.0765
 1188ERGO    R216415  12.029   8.538   9.725  0.1758  0.0655  0.0520
 1188ERGO    R316416  12.088   8.327   9.563 -0.0373 -0.0084  0.0690
 1188ERGO    R416417  11.993   8.538   9.381  0.0691  0.0322  0.0637
 1188ERGO    R516418  11.918   8.333   9.394 -0.0847  0.0933  0.1217
 1188ERGO    C116419  12.028   8.340   9.029 -0.1931 -0.0568  0.0864
 1188ERGO    C216420  12.027   8.498   8.667  0.0052 -0.0204  0.0323
 1189ERGO   ROH16421   1.975   0.860   6.116 -0.0172 -0.1020 -0.0834
 1189ERGO    R116422   1.901   0.970   6.366 -0.0699 -0.0202 -0.1352
 1189ERGO    R216423   1.833   0.814   6.583  0.0047  0.0488 -0.0638
 1189ERGO    R316424   2.026   0.959   6.708 -0.0649  0.2000 -0.1278
 1189ERGO    R416425   1.818   0.922   6.911  0.0431  0.0021 -0.0462
 1189ERGO    R516426   1.905   1.112   6.847 -0.1407  0.0852 -0.0640
 1189ERGO    C116427   1.991   1.121   7.219  0.0001  0.1168 -0.0960
 1189ERGO    C216428   2.090   0.972   7.547 -0.0102  0.0020  0.2537
 1190ERGO   ROH16429  17.783   8.028   9.766 -0.2668 -0.1921 -0.0410
 1190ERGO    R116430  17.806   8.178   9.527 -0.1568 -0.2114 -0.0424
 1190ERGO    R216431  17.974   8.396   9.504 -0.3682 -0.0298  0.1149
 1190ERGO    R316432  18.070   8.259   9.290  0.0326  0.0349  0.2447
 1190ERGO    R416433  18.087   8.540   9.211 -0.4812  0.0406  0.1049
 1190ERGO    R516434  17.990   8.380   9.100 -0.1042 -0.2232  0.1304
 1190ERGO    C116435  18.244   8.495   8.840 -0.1708  0.1421  0.2209
 1190ERGO    C216436  18.285   8.501   8.413 -0.0636  0.4831 -0.2577
 1191ERGO   ROH16437   7.832   4.981   6.740 -0.1808  0.2464  0.0248
 1191ERGO    R116438   7.864   4.838   6.982 -0.0414  0.1442 -0.0530
 1191ERGO    R216439   7.659   4.806   7.164  0.1263  0.2734  0.1635
 1191ERGO    R316440   7.718   4.542   7.135 -0.1386  0.2266  0.0145
 1191ERGO    R416441   7.658   4.574   7.420  0.1521  0.1829  0.0828
 1191ERGO    R516442   7.838   4.485   7.334 -0.0041  0.0472 -0.1139
 1191ERGO    C116443   7.712   4.191   7.542 -0.0815  0.0863 -0.1041
 1191ERGO    C216444   7.422   4.023   7.774  0.2042  0.0850  0.1685
 1192ERGO   ROH16445  13.464  17.863   6.660 -0.1092 -0.3924  0.0090
 1192ERGO    R116446  13.477  17.834   6.942  0.4292 -0.1292  0.0234
 1192ERGO    R216447  13.643  17.989   7.099  0.1490  0.6145 -0.3544
 1192ERGO    R316448  13.413  18.045   7.232  0.1190 -0.1031 -0.0622
 1192ERGO    R416449  13.620  18.190   7.379 -0.1350  0.5942 -0.3613
 1192ERGO    R516450  13.477  18.049   7.462  0.4123  0.1315 -0.1445
 1192ERGO    C116451  13.391  18.359   7.667 -0.3285 -0.0910 -0.0909
 1192ERGO    C216452  13.213  18.584   7.828  0.2423  0.0525  0.3433
 1193ERGO   ROH16453   8.353   8.088   6.676  0.2491  0.1210 -0.0259
 1193ERGO    R116454   8.366   8.117   6.957  0.1173  0.2770 -0.0356
 1193ERGO    R216455   8.238   8.322   7.091 -0.2583  0.1354 -0.1747
 1193ERGO    R316456   8.129   8.117   7.234  0.0292  0.0247 -0.1061
 1193ERGO    R416457   8.173   8.329   7.431 -0.3767  0.2148 -0.1975
 1193ERGO    R516458   8.244   8.124   7.444 -0.0391  0.3258 -0.0692
 1193ERGO    C116459   8.034   8.142   7.762 -0.1755  0.1571 -0.1463
 1193ERGO    C216460   7.885   8.042   8.101 -0.0620  0.1744 -0.0246
 1194ERGO   ROH16461  16.844   0.726   9.670 -0.0270 -0.0502  0.0992
 1194ERGO    R116462  16.715   0.648   9.431 -0.1091  0.1118  0.0890
 1194ERGO    R216463  16.636   0.830   9.238  0.1763  0.2123  0.0583
 1194ERGO    R316464  16.782   0.671   9.074 -0.0248 -0.0178  0.0969
 1194ERGO    R416465  16.658   0.869   8.896  0.1111  0.0016  0.0293
 1194ERGO    R516466  16.648   0.651   8.876 -0.1017  0.0001  0.1494
 1194ERGO    C116467  16.808   0.742   8.541 -0.1155 -0.3371  0.0487
 1194ERGO    C216468  16.815   0.751   8.203 -0.0005  0.2543 -0.1505
 1195ERGO   ROH16469  11.169   1.846   6.655 -0.0246 -0.1842 -0.1199
 1195ERGO    R116470  11.292   1.828   6.910  0.0036 -0.1433 -0.1302
 1195ERGO    R216471  11.501   1.992   6.986 -0.0317 -0.0819 -0.1555
 1195ERGO    R316472  11.339   2.047   7.197 -0.0317 -0.1192 -0.1432
 1195ERGO    R416473  11.611   2.056   7.307 -0.0346 -0.0817 -0.1541
 1195ERGO    R516474  11.444   1.937   7.382 -0.0103 -0.1113 -0.1532
 1195ERGO    C116475  11.523   2.144   7.692 -0.0365 -0.1166 -0.1419
 1195ERGO    C216476  11.837   2.301   7.713  0.3491  0.1180 -0.0164
 1196ERGO   ROH16477   5.213   1.851   6.502 -0.1214 -0.1031 -0.1585
 1196ERGO    R116478   5.152   2.095   6.633 -0.1912 -0.0720 -0.2449
 1196ERGO    R216479   4.892   2.175   6.685 -0.2184 -0.2014 -0.1471
 1196ERGO    R316480   4.984   2.195   6.940 -0.0846 -0.0280 -0.1988
 1196ERGO    R416481   4.694   2.230   6.963 -0.1192 -0.3765 -0.0417
 1196ERGO    R516482   4.847   2.364   7.039 -0.2320 -0.1659 -0.1617
 1196ERGO    C116483   4.665   2.280   7.364  0.0642 -0.3156 -0.0289
 1196ERGO    C216484   4.653   2.409   7.626  0.0296  0.1405 -0.3850
 1197ERGO   ROH16485  14.359   1.702  10.005 -0.0307  0.1581 -0.0066
 1197ERGO    R116486  14.374   1.671   9.724 -0.0188  0.1759 -0.0081
 1197ERGO    R216487  14.454   1.434   9.605  0.0647  0.2072 -0.0193
 1197ERGO    R316488  14.217   1.459   9.473  0.0550  0.1318 -0.0163
 1197ERGO    R416489  14.392   1.319   9.285 -0.0009 -0.0775  0.0929
 1197ERGO    R516490  14.279   1.501   9.246  0.0332 -0.0924 -0.0635
 1197ERGO    C116491  14.134   1.275   8.975 -0.0482 -0.3141  0.1611
 1197ERGO    C216492  14.129   1.216   8.648  0.2791 -0.0185  0.0729
 1198ERGO   ROH16493   8.132  18.105   6.536 -0.0071 -0.2149  0.0153
 1198ERGO    R116494   8.089  18.147   6.813  0.0470 -0.1493  0.0092
 1198ERGO    R216495   8.122  17.947   7.000  0.1790 -0.0629  0.0426
 1198ERGO    R316496   8.287  18.128   7.118  0.1250  0.0372 -0.0196
 1198ERGO    R416497   8.168  17.978   7.341  0.1784  0.0018  0.0409
 1198ERGO    R516498   8.169  18.195   7.316  0.0872  0.0250 -0.0133
 1198ERGO    C116499   8.350  18.165   7.650  0.1274  0.1331 -0.0185
 1198ERGO    C216500   8.651  18.132   7.827 -0.0611 -0.0664 -0.0349
 1199ERGO   ROH16501  10.458   4.321   6.407  0.1942 -0.0834 -0.0537
 1199ERGO    R116502  10.513   4.343   6.684  0.1746 -0.0025 -0.0556
 1199ERGO    R216503  10.344   4.240   6.878  0.1702  0.0376 -0.0375
 1199ERGO    R316504  10.569   4.113   6.960  0.1747  0.0782  0.0119
 1199ERGO    R416505  10.403   4.133   7.201  0.1041  0.0215 -0.0308
 1199ERGO    R516506  10.609   4.200   7.180  0.0963  0.0673  0.0311
 1199ERGO    C116507  10.650   3.951   7.467  0.0700  0.0501  0.0195
 1199ERGO    C216508  10.761   3.839   7.709 -0.3203  0.1903  0.1245
 1200ERGO   ROH16509   5.206   5.374   6.563 -0.1419  0.2037 -0.0066
 1200ERGO    R116510   5.085   5.465   6.803 -0.4083  0.0669 -0.0843
 1200ERGO    R216511   4.834   5.382   6.884 -0.2781 -0.4135 -0.1322
 1200ERGO    R316512   4.966   5.314   7.112 -0.2040 -0.0494 -0.0613
 1200ERGO    R416513   4.690   5.362   7.197 -0.2623 -0.2915 -0.1177
 1200ERGO    R516514   4.870   5.454   7.280 -0.3709 -0.0046 -0.1940
 1200ERGO    C116515   4.730   5.288   7.594 -0.1834  0.1214 -0.0427
 1200ERGO    C216516   4.606   5.070   7.795 -0.0999  0.4649  0.1046
 1201ERGO   ROH16517   4.368   0.738  10.228  0.2805 -0.0309  0.0232
 1201ERGO    R116518   4.335   0.794   9.952  0.2545 -0.0492  0.0240
 1201ERGO    R216519   4.510   0.703   9.759  0.0635 -0.3265 -0.0155
 1201ERGO    R316520   4.284   0.601   9.648 -0.1137 -0.0536  0.0802
 1201ERGO    R416521   4.470   0.635   9.423 -0.0951 -0.4116  0.0184
 1201ERGO    R516522   4.267   0.714   9.436  0.0082 -0.1091  0.0329
 1201ERGO    C116523   4.235   0.500   9.122 -0.3538 -0.2049  0.1279
 1201ERGO    C216524   4.299   0.490   8.737 -0.0992  0.0688 -0.0012
 1202ERGO   ROH16525  14.295   5.771   7.737 -0.1511  0.0200 -0.0028
 1202ERGO    R116526  14.150   5.564   7.865 -0.0572 -0.1081 -0.1010
 1202ERGO    R216527  14.270   5.331   7.953  0.0717 -0.0444 -0.1035
 1202ERGO    R316528  14.154   5.400   8.189 -0.0673 -0.1719 -0.1333
 1202ERGO    R416529  14.249   5.125   8.229 -0.0026 -0.1575 -0.1928
 1202ERGO    R516530  14.047   5.199   8.263 -0.0422 -0.2339 -0.2642
 1202ERGO    C116531  14.128   5.069   8.612 -0.1764 -0.3432 -0.2728
 1202ERGO    C216532  14.180   4.936   8.939 -0.0351 -0.1829 -0.0424
 1203ERGO   ROH16533  18.162  11.297   6.899  0.0798  0.0433  0.1608
 1203ERGO    R116534  18.302  11.255   7.142  0.0655 -0.0034  0.1611
 1203ERGO    R216535  18.526  11.399   7.211  0.1363 -0.1029  0.1450
 1203ERGO    R316536  18.384  11.450   7.437  0.1642 -0.0182  0.1433
 1203ERGO    R416537  18.649  11.566   7.488  0.1921 -0.0657  0.0978
 1203ERGO    R516538  18.543  11.424   7.615  0.1697 -0.0117  0.1382
 1203ERGO    C116539  18.587  11.712   7.861  0.2507  0.0355  0.0687
 1203ERGO    C216540  18.494  12.140   7.866 -0.0590  0.1560 -0.1326
 1204ERGO   ROH16541   1.520   7.077   6.098  0.0844  0.3335 -0.1271
 1204ERGO    R116542   1.680   6.985   6.313 -0.0992  0.1410 -0.0695
 1204ERGO    R216543   1.892   7.129   6.414  0.1349 -0.1727 -0.0894
 1204ERGO    R316544   1.761   7.096   6.650  0.0366  0.1304 -0.0985
 1204ERGO    R416545   2.040   7.145   6.726  0.0745 -0.1325 -0.0635
 1204ERGO    R516546   1.916   6.976   6.788 -0.1314  0.0460  0.0188
 1204ERGO    C116547   2.003   7.123   7.129 -0.0530  0.1753 -0.0572
 1204ERGO    C216548   2.185   7.071   7.367 -0.1831 -0.3913 -0.1954
 1205ERGO   ROH16549   0.347   5.676   9.573 -0.0886 -0.0858 -0.1823
 1205ERGO    R116550   0.431   5.786   9.326 -0.0460 -0.0376 -0.1481
 1205ERGO    R216551   0.548   5.634   9.127 -0.0209 -0.0060 -0.1698
 1205ERGO    R316552   0.350   5.740   8.974  0.0002  0.0355 -0.1657
 1205ERGO    R416553   0.542   5.631   8.782 -0.0456  0.0061 -0.1685
 1205ERGO    R516554   0.464   5.835   8.786  0.0013  0.0122 -0.1666
 1205ERGO    C116555   0.351   5.729   8.437 -0.0401  0.0522 -0.1637
 1205ERGO    C216556   0.263   5.452   8.053  0.0845 -0.1271  0.0792
 1206ERGO   ROH16557   3.681  11.851   6.854 -0.1097 -0.3219  0.2273
 1206ERGO    R116558   3.767  11.667   7.050  0.4085 -0.3420 -0.0006
 1206ERGO    R216559   4.033  11.638   7.121  0.5052  0.4006  0.0415
 1206ERGO    R316560   3.938  11.683   7.371  0.2505 -0.2378  0.0777
 1206ERGO    R416561   4.215  11.597   7.412  0.4426  0.3580  0.0737
 1206ERGO    R516562   4.037  11.511   7.505  0.5883 -0.2276 -0.1543
 1206ERGO    C116563   4.230  11.616   7.817  0.1669 -0.2663  0.1264
 1206ERGO    C216564   4.413  11.518   8.150  0.1352 -0.0207 -0.0482
 1207ERGO   ROH16565  10.242   3.343   6.564 -0.0421  0.1266 -0.0240
 1207ERGO    R116566  10.253   3.317   6.846 -0.2309  0.1826 -0.0101
 1207ERGO    R216567  10.047   3.204   6.992 -0.2239 -0.0227 -0.1508
 1207ERGO    R316568  10.246   3.045   7.086 -0.1154  0.2105  0.0241
 1207ERGO    R416569  10.047   3.047   7.301 -0.2607  0.0570 -0.1104
 1207ERGO    R516570  10.259   3.095   7.320 -0.3228  0.2847  0.0194
 1207ERGO    C116571  10.235   2.807   7.568 -0.1803  0.3224  0.0773
 1207ERGO    C216572  10.140   2.644   7.834 -0.2683  0.0078  0.0898
 1208ERGO   ROH16573   7.656  13.930   6.378  0.1431  0.0191  0.0884
 1208ERGO    R116574   7.695  13.793   6.622  0.4216 -0.0655  0.0003
 1208ERGO    R216575   7.925  13.820   6.773  0.3169  0.4275  0.0914
 1208ERGO    R316576   7.750  13.883   6.971  0.0729 -0.1686  0.0849
 1208ERGO    R416577   8.002  13.829   7.110  0.1949  0.4287  0.1192
 1208ERGO    R516578   7.809  13.737   7.151  0.4183 -0.1301  0.0087
 1208ERGO    C116579   7.882  13.893   7.491 -0.1052 -0.1303  0.1294
 1208ERGO    C216580   8.076  14.013   7.801  0.2433 -0.1629 -0.0397
 1209ERGO   ROH16581   9.571  15.330   6.681 -0.2585  0.0965 -0.1417
 1209ERGO    R116582   9.608  15.189   6.923 -0.1634  0.0974 -0.1546
 1209ERGO    R216583   9.525  15.289   7.168 -0.0747  0.0963 -0.1202
 1209ERGO    R316584   9.395  15.051   7.184 -0.0633  0.0939 -0.0751
 1209ERGO    R416585   9.381  15.161   7.455 -0.1339  0.1739 -0.1156
 1209ERGO    R516586   9.455  14.964   7.398 -0.1099  0.1634 -0.0361
 1209ERGO    C116587   9.176  14.863   7.637 -0.1577  0.2168 -0.0706
 1209ERGO    C216588   9.028  14.700   7.896  0.1540 -0.1053  0.1718
 1210ERGO   ROH16589  13.519  12.599  10.374  0.0412 -0.0028  0.0204
 1210ERGO    R116590  13.415  12.623  10.112 -0.0199 -0.1422  0.0325
 1210ERGO    R216591  13.550  12.753   9.910 -0.1017 -0.1912 -0.0456
 1210ERGO    R316592  13.515  12.518   9.778 -0.0643 -0.2531  0.0510
 1210ERGO    R416593  13.521  12.723   9.567 -0.2152 -0.3085 -0.0272
 1210ERGO    R516594  13.365  12.573   9.598 -0.1552 -0.3610  0.0845
 1210ERGO    C116595  13.471  12.484   9.243 -0.2462 -0.4348  0.0743
 1210ERGO    C216596  13.470  12.553   8.908  0.0726 -0.0014 -0.1952
 1211ERGO   ROH16597  17.048   2.142   9.476 -0.1626  0.0404  0.0821
 1211ERGO    R116598  17.080   1.981   9.245 -0.1438 -0.0171  0.1245
 1211ERGO    R216599  16.866   1.890   9.097 -0.1297  0.0037  0.0895
 1211ERGO    R316600  17.000   2.007   8.892 -0.0480 -0.0721  0.0988
 1211ERGO    R416601  16.851   1.789   8.766 -0.2469  0.0815  0.0702
 1211ERGO    R516602  17.065   1.825   8.750 -0.2174 -0.0997  0.0567
 1211ERGO    C116603  16.968   1.840   8.382 -0.2386  0.0557  0.0677
 1211ERGO    C216604  17.023   1.975   8.085 -0.0960 -0.1007  0.0279
 1212ERGO   ROH16605   2.191   6.762   9.797 -0.2310  0.1278  0.1283
 1212ERGO    R116606   2.225   6.607   9.562 -0.0993  0.1155  0.1550
 1212ERGO    R216607   2.074   6.646   9.334 -0.0984 -0.0178  0.1302
 1212ERGO    R316608   2.318   6.668   9.216 -0.0971  0.1266  0.1578
 1212ERGO    R416609   2.126   6.704   8.997 -0.0958 -0.2672  0.0856
 1212ERGO    R516610   2.290   6.562   9.003  0.0517 -0.0950  0.2460
 1212ERGO    C116611   2.384   6.759   8.690 -0.0930 -0.2770  0.0854
 1212ERGO    C216612   2.387   6.917   8.371  0.0109  0.1513  0.0159
 1213ERGO   ROH16613   6.621   1.970   6.716  0.0920  0.1553  0.1758
 1213ERGO    R116614   6.634   1.932   6.996  0.0024  0.2547  0.1931
 1213ERGO    R216615   6.471   2.068   7.173 -0.3741 -0.0181  0.0604
 1213ERGO    R316616   6.410   1.817   7.259  0.0676 -0.1237  0.0901
 1213ERGO    R416617   6.409   1.980   7.502 -0.4952 -0.0239  0.0376
 1213ERGO    R516618   6.522   1.797   7.469 -0.0760  0.1890  0.2045
 1213ERGO    C116619   6.316   1.694   7.773 -0.1511 -0.1265  0.0523
 1213ERGO    C216620   6.300   1.720   8.182 -0.2687 -0.2562  0.2244
 1214ERGO   ROH16621   0.396   2.421   9.582  0.3276  0.0483 -0.1508
 1214ERGO    R116622   0.472   2.230   9.388  0.2805  0.0725 -0.1946
 1214ERGO    R216623   0.304   2.153   9.183  0.1488 -0.0587 -0.0450
 1214ERGO    R316624   0.514   2.223   9.026 -0.0292  0.0609 -0.2324
 1214ERGO    R416625   0.355   2.040   8.860  0.2301 -0.4980  0.1158
 1214ERGO    R516626   0.568   2.023   8.906  0.2807 -0.0472  0.0762
 1214ERGO    C116627   0.583   2.040   8.525  0.1103 -0.6416  0.0336
 1214ERGO    C216628   0.647   2.080   8.114 -0.0928  0.0129  0.0636
 1215ERGO   ROH16629  12.596  17.424   6.553  0.2076 -0.1465 -0.1859
 1215ERGO    R116630  12.736  17.283   6.755  0.2677 -0.0559 -0.1642
 1215ERGO    R216631  12.832  17.407   6.983  0.1259  0.0015 -0.1358
 1215ERGO    R316632  12.689  17.213   7.109  0.2416 -0.1134 -0.1785
 1215ERGO    R416633  12.839  17.346   7.323  0.0290  0.0507 -0.1245
 1215ERGO    R516634  12.836  17.132   7.280  0.2407  0.0396 -0.1020
 1215ERGO    C116635  12.709  17.129   7.640  0.0812 -0.0288 -0.1579
 1215ERGO    C216636  12.540  17.241   8.077  0.1844 -0.1366 -0.0738
 1216ERGO   ROH16637   6.570   6.869   6.756  0.1205 -0.2008  0.1167
 1216ERGO    R116638   6.576   6.667   6.953  0.1100 -0.1709  0.1472
 1216ERGO    R216639   6.696   6.702   7.199 -0.0257 -0.0857  0.1998
 1216ERGO    R316640   6.453   6.625   7.293 -0.0390 -0.1773  0.0940
 1216ERGO    R416641   6.633   6.598   7.523 -0.0956 -0.2539  0.1339
 1216ERGO    R516642   6.502   6.444   7.443 -0.0455 -0.2420  0.0211
 1216ERGO    C116643   6.368   6.465   7.800 -0.1486 -0.4379 -0.0037
 1216ERGO    C216644   6.285   6.645   8.129 -0.2719 -0.3061  0.3460
 1217ERGO   ROH16645   1.747  12.512   6.496 -0.1810  0.3102 -0.0846
 1217ERGO    R116646   1.864  12.556   6.750 -0.2052  0.0295 -0.0222
 1217ERGO    R216647   1.896  12.809   6.857  0.2138 -0.0546  0.0537
 1217ERGO    R316648   1.760  12.703   7.067 -0.0735  0.1395 -0.0272
 1217ERGO    R416649   1.946  12.894   7.188  0.4823 -0.4451  0.1213
 1217ERGO    R516650   1.924  12.684   7.241 -0.0928 -0.4498 -0.0473
 1217ERGO    C116651   1.847  12.844   7.578  0.3689 -0.4905  0.0847
 1217ERGO    C216652   1.735  12.995   7.838 -0.2424 -0.3162  0.2202
 1218ERGO   ROH16653  17.180   4.531   8.847  0.1107 -0.0414 -0.1453
 1218ERGO    R116654  17.186   4.403   8.595  0.0360 -0.0057 -0.1655
 1218ERGO    R216655  16.974   4.411   8.418  0.0212  0.1007 -0.1425
 1218ERGO    R316656  17.163   4.504   8.246  0.0376  0.0552 -0.1477
 1218ERGO    R416657  16.939   4.427   8.075  0.0513  0.0265 -0.1492
 1218ERGO    R516658  17.145   4.361   8.055  0.0486  0.0149 -0.1176
 1218ERGO    C116659  17.096   4.523   7.713  0.0842 -0.0595 -0.1580
 1218ERGO    C216660  17.125   4.756   7.484  0.2958 -0.0826  0.3834
 1219ERGO   ROH16661   3.468   2.489   9.827  0.0901  0.0065 -0.0331
 1219ERGO    R116662   3.604   2.388   9.600  0.0173 -0.0292 -0.0607
 1219ERGO    R216663   3.478   2.347   9.358 -0.0055  0.1598 -0.0817
 1219ERGO    R316664   3.679   2.504   9.263  0.1319  0.0249 -0.0171
 1219ERGO    R416665   3.568   2.374   9.025  0.0405  0.1896 -0.0670
 1219ERGO    R516666   3.777   2.375   9.087  0.0389 -0.0022 -0.0503
 1219ERGO    C116667   3.809   2.537   8.743  0.1964  0.0803  0.0021
 1219ERGO    C216668   3.646   2.512   8.491  0.1118  0.1098  0.1122
 1220ERGO   ROH16669   9.719   4.882   6.823  0.0350  0.1377  0.1084
 1220ERGO    R116670   9.617   4.825   7.081 -0.0384 -0.0299  0.0426
 1220ERGO    R216671   9.550   5.023   7.262 -0.1354 -0.1469  0.1295
 1220ERGO    R316672   9.311   4.894   7.265 -0.1149 -0.1977 -0.0166
 1220ERGO    R416673   9.261   5.144   7.408 -0.2693 -0.1664 -0.1110
 1220ERGO    R516674   9.219   4.943   7.480 -0.2823 -0.1628 -0.0907
 1220ERGO    C116675   8.869   5.092   7.496 -0.3280 -0.2255 -0.3881
 1220ERGO    C216676   8.639   5.218   7.655 -0.0162 -0.1481 -0.0436
 1221ERGO   ROH16677  14.187  10.622  10.150 -0.0588 -0.1392 -0.0770
 1221ERGO    R116678  14.095  10.614   9.882 -0.1160  0.1086 -0.0672
 1221ERGO    R216679  14.082  10.840   9.722  0.3622  0.1732 -0.0288
 1221ERGO    R316680  14.232  10.688   9.553  0.0105 -0.1385 -0.0714
 1221ERGO    R416681  14.096  10.880   9.379  0.3026  0.1016 -0.0396
 1221ERGO    R516682  14.095  10.663   9.359 -0.1181  0.0938 -0.0134
 1221ERGO    C116683  14.244  10.760   9.021 -0.0620 -0.2327 -0.0859
 1221ERGO    C216684  14.231  10.787   8.723 -0.3575 -0.0715  0.0665
 1222ERGO   ROH16685   7.393  18.088  10.164  0.0156 -0.0157 -0.0740
 1222ERGO    R116686   7.520  18.183   9.930 -0.1042  0.1364 -0.0783
 1222ERGO    R216687   7.598  18.015   9.724  0.2481  0.2015  0.0001
 1222ERGO    R316688   7.449  18.184   9.573 -0.0324 -0.1190 -0.0968
 1222ERGO    R416689   7.569  18.000   9.380  0.2435 -0.0569  0.0091
 1222ERGO    R516690   7.579  18.217   9.375 -0.0953 -0.0382 -0.1264
 1222ERGO    C116691   7.413  18.151   9.038 -0.0225 -0.5081 -0.0767
 1222ERGO    C216692   7.494  18.012   8.852 -0.0057  0.1293 -0.0787
 1223ERGO   ROH16693  13.202   3.536   6.433  0.1024  0.2288 -0.1216
 1223ERGO    R116694  13.316   3.542   6.692  0.0685  0.0593 -0.1019
 1223ERGO    R216695  13.493   3.737   6.773  0.1476 -0.0554  0.0137
 1223ERGO    R316696  13.315   3.769   6.976  0.1305 -0.0686  0.0005
 1223ERGO    R416697  13.568   3.876   7.080  0.0991 -0.0125  0.0062
 1223ERGO    R516698  13.443   3.724   7.174  0.1237 -0.0247  0.0125
 1223ERGO    C116699  13.445   3.987   7.451  0.0549  0.0000 -0.0108
 1223ERGO    C216700  13.648   4.216   7.575  0.2842 -0.4179  0.2019
 1224ERGO   ROH16701  16.299  11.069   6.938 -0.3800 -0.0306 -0.0185
 1224ERGO    R116702  16.205  10.883   7.130 -0.4590 -0.1020 -0.1259
 1224ERGO    R216703  16.273  10.899   7.398 -0.2243 -0.4439 -0.1616
 1224ERGO    R316704  16.003  10.895   7.433 -0.2079 -0.1408  0.0477
 1224ERGO    R416705  16.113  10.890   7.704  0.0036 -0.2276 -0.0325
 1224ERGO    R516706  15.970  10.750   7.620 -0.2218 -0.0832  0.0927
 1224ERGO    C116707  15.767  10.881   7.915  0.1520  0.1827  0.2393
 1224ERGO    C216708  15.656  10.952   8.234  0.1506 -0.0211  0.0175
 1225ERGO   ROH16709  15.432  13.449   6.548 -0.1177 -0.1695 -0.1893
 1225ERGO    R116710  15.416  13.437   6.830 -0.1215 -0.0332 -0.1818
 1225ERGO    R216711  15.288  13.232   6.963 -0.2437  0.0960 -0.0833
 1225ERGO    R316712  15.526  13.209   7.092 -0.2512  0.0165 -0.0859
 1225ERGO    R416713  15.325  13.137   7.294 -0.2663  0.2103 -0.0483
 1225ERGO    R516714  15.482  13.288   7.314 -0.1873  0.1273 -0.1181
 1225ERGO    C116715  15.571  13.060   7.606 -0.2863  0.2022 -0.0303
 1225ERGO    C216716  15.538  12.711   7.749 -0.1726 -0.2755 -0.0119
 1226ERGO   ROH16717   0.455   4.063   9.238 -0.1202 -0.0333 -0.0400
 1226ERGO    R116718   0.361   4.126   8.978 -0.0959  0.0125 -0.0382
 1226ERGO    R216719   0.531   4.189   8.769 -0.0701 -0.0392 -0.0373
 1226ERGO    R316720   0.397   3.989   8.643 -0.1421  0.0129 -0.0423
 1226ERGO    R416721   0.559   4.114   8.433  0.0199 -0.1458 -0.0063
 1226ERGO    R516722   0.344   4.080   8.428  0.0034 -0.0120 -0.0869
 1226ERGO    C116723   0.449   3.883   8.119  0.0048 -0.1590  0.0071
 1226ERGO    C216724   0.488   4.013   7.824  0.1944  0.1536 -0.1948
 1227ERGO   ROH16725   2.572   7.622   9.920 -0.0379 -0.0894  0.1230
 1227ERGO    R116726   2.675   7.653   9.658  0.0779 -0.0931  0.1681
 1227ERGO    R216727   2.555   7.540   9.436  0.1504 -0.0581  0.1126
 1227ERGO    R316728   2.560   7.795   9.343  0.2367 -0.0536  0.1264
 1227ERGO    R416729   2.627   7.630   9.111 -0.0307 -0.0827  0.0642
 1227ERGO    R516730   2.742   7.799   9.188  0.1286 -0.1549 -0.0065
 1227ERGO    C116731   2.673   7.922   8.834 -0.0552 -0.0928  0.0489
 1227ERGO    C216732   2.750   7.942   8.512 -0.0370 -0.4105 -0.0947
 1228ERGO   ROH16733  10.483   0.460   6.522 -0.0317  0.0275 -0.0669
 1228ERGO    R116734  10.444   0.549   6.788 -0.0407  0.1135 -0.0973
 1228ERGO    R216735  10.507   0.394   7.008 -0.1741  0.1327 -0.0474
 1228ERGO    R316736  10.653   0.612   7.079 -0.0700  0.0702 -0.0660
 1228ERGO    R416737  10.637   0.450   7.323 -0.1705  0.1060 -0.0437
 1228ERGO    R516738  10.582   0.660   7.303 -0.0651  0.1334 -0.0759
 1228ERGO    C116739  10.850   0.687   7.573 -0.0709  0.0318 -0.0591
 1228ERGO    C216740  11.027   0.700   7.838 -0.0435 -0.2785 -0.2043
 1229ERGO   ROH16741   0.812  13.407  10.362  0.1797  0.0241  0.1025
 1229ERGO    R116742   0.728  13.451  10.096  0.1627  0.1993  0.1350
 1229ERGO    R216743   0.863  13.620   9.924  0.3462  0.0623  0.1348
 1229ERGO    R316744   0.867  13.401   9.763  0.0060  0.0869  0.0868
 1229ERGO    R416745   0.902  13.629   9.581  0.2305  0.0738  0.1220
 1229ERGO    R516746   0.752  13.471   9.565  0.0232  0.2707  0.1441
 1229ERGO    C116747   0.929  13.428   9.230 -0.1563  0.1037  0.0696
 1229ERGO    C216748   0.900  13.519   8.913 -0.1407  0.1641  0.0435
 1230ERGO   ROH16749  14.188   3.386   9.627 -0.1146  0.1929  0.0771
 1230ERGO    R116750  14.037   3.274   9.415 -0.1297  0.2836  0.0390
 1230ERGO    R216751  13.995   3.407   9.176  0.1056  0.2655 -0.0170
 1230ERGO    R316752  14.098   3.180   9.069 -0.0642  0.1354  0.0904
 1230ERGO    R416753  13.970   3.317   8.844 -0.0367  0.0802  0.0422
 1230ERGO    R516754  13.935   3.111   8.907 -0.1489  0.1389  0.1740
 1230ERGO    C116755  14.052   3.051   8.549 -0.2790 -0.1498  0.1776
 1230ERGO    C216756  13.956   3.101   8.279 -0.0976  0.1063  0.2429
 1231ERGO   ROH16757  12.628   2.513   6.324  0.1461 -0.1062  0.1309
 1231ERGO    R116758  12.552   2.346   6.540  0.2994 -0.1841  0.1261
 1231ERGO    R216759  12.720   2.294   6.754  0.2547  0.1873  0.2609
 1231ERGO    R316760  12.510   2.383   6.900 -0.0189 -0.1515  0.0878
 1231ERGO    R416761  12.660   2.211   7.084  0.1687  0.1611  0.2383
 1231ERGO    R516762  12.448   2.196   7.036  0.2215 -0.2344  0.0884
 1231ERGO    C116763  12.427   2.247   7.413 -0.1383 -0.1721  0.0627
 1231ERGO    C216764  12.351   2.110   7.753  0.0109  0.2855 -0.1762
 1232ERGO   ROH16765   9.240  11.820   6.962  0.0348  0.1872  0.0757
 1232ERGO    R116766   9.221  11.796   7.244  0.0250  0.0268  0.0626
 1232ERGO    R216767   9.286  12.002   7.416  0.0630 -0.0847  0.1861
 1232ERGO    R316768   9.035  11.959   7.511  0.0525 -0.0913  0.1542
 1232ERGO    R416769   9.156  12.146   7.702 -0.0273  0.0226  0.0917
 1232ERGO    R516770   9.062  11.955   7.749  0.0029  0.0260  0.1614
 1232ERGO    C116771   8.845  12.189   7.958 -0.0898  0.0790  0.0069
 1232ERGO    C216772   8.790  12.352   8.230  0.1881 -0.2733  0.1257
 1233ERGO   ROH16773   0.710   1.816   5.734  0.2845 -0.0105 -0.0493
 1233ERGO    R116774   0.750   1.865   6.010  0.1399  0.0923 -0.0455
 1233ERGO    R216775   0.591   2.038   6.155 -0.1445 -0.1020 -0.1182
 1233ERGO    R316776   0.560   1.822   6.317  0.1109 -0.1233 -0.0927
 1233ERGO    R416777   0.516   2.053   6.492 -0.2599 -0.1534 -0.1409
 1233ERGO    R516778   0.656   1.890   6.526 -0.0393  0.0447 -0.0762
 1233ERGO    C116779   0.442   1.859   6.840 -0.0873 -0.2033 -0.1302
 1233ERGO    C216780   0.621   1.918   7.182 -0.0431  0.3979  0.0427
 1234ERGO   ROH16781  15.092   8.035   9.651  0.5141  0.1656 -0.1928
 1234ERGO    R116782  15.251   7.947   9.434  0.2370 -0.0440 -0.3169
 1234ERGO    R216783  15.165   7.753   9.256 -0.0877 -0.0551 -0.1630
 1234ERGO    R316784  15.224   7.944   9.071 -0.1227 -0.1690 -0.2916
 1234ERGO    R416785  15.284   7.691   8.938 -0.0061 -0.2373 -0.0968
 1234ERGO    R516786  15.418   7.861   8.959 -0.0748 -0.1759 -0.1962
 1234ERGO    C116787  15.409   7.833   8.579  0.0087 -0.4503 -0.1790
 1234ERGO    C216788  15.491   7.896   8.244  0.2441  0.0876 -0.1279
 1235ERGO   ROH16789  15.076   3.427   9.488  0.2044  0.0756  0.0267
 1235ERGO    R116790  15.034   3.488   9.215  0.1291 -0.0079  0.0192
 1235ERGO    R216791  15.231   3.456   9.023  0.0923 -0.0165 -0.0156
 1235ERGO    R316792  15.040   3.307   8.900  0.0972 -0.0921  0.0663
 1235ERGO    R416793  15.220   3.391   8.684 -0.0638  0.0386 -0.0220
 1235ERGO    R516794  15.004   3.418   8.691 -0.0765 -0.0719  0.1045
 1235ERGO    C116795  15.035   3.213   8.370 -0.1504 -0.0001  0.0510
 1235ERGO    C216796  15.166   3.120   7.997  0.0467 -0.0359  0.1694
 1236ERGO   ROH16797  17.839  16.761   6.665  0.4191 -0.0669  0.0658
 1236ERGO    R116798  17.691  16.847   6.891  0.1554 -0.0047 -0.1288
 1236ERGO    R216799  17.784  16.818   7.150 -0.1764  0.0037 -0.0130
 1236ERGO    R316800  17.738  17.086   7.162 -0.1313  0.0180 -0.0941
 1236ERGO    R416801  17.701  16.993   7.437 -0.4356  0.0541 -0.1129
 1236ERGO    R516802  17.559  17.109   7.319 -0.2947  0.0734 -0.2770
 1236ERGO    C116803  17.610  17.346   7.614 -0.5444  0.0968 -0.2472
 1236ERGO    C216804  17.455  17.678   7.708 -0.0542  0.1815 -0.2585
 1237ERGO   ROH16805  16.153   5.809   9.199 -0.2201 -0.0010  0.0038
 1237ERGO    R116806  16.112   6.008   9.002 -0.2567  0.0484  0.0617
 1237ERGO    R216807  16.248   6.009   8.761 -0.0970  0.2645  0.1521
 1237ERGO    R316808  15.998   6.019   8.657 -0.0372  0.0974 -0.0118
 1237ERGO    R416809  16.175   6.057   8.427  0.0915 -0.0225  0.0654
 1237ERGO    R516810  16.011   6.187   8.487  0.0092 -0.0305 -0.1369
 1237ERGO    C116811  15.898   6.095   8.134  0.2576 -0.3464 -0.1389
 1237ERGO    C216812  15.794   6.222   7.901 -0.0554 -0.3891 -0.1430
 1238ERGO   ROH16813  11.237   0.855   6.615 -0.1312 -0.0780 -0.0083
 1238ERGO    R116814  11.304   0.886   6.889 -0.2027  0.0368 -0.0023
 1238ERGO    R216815  11.142   0.792   7.093 -0.1482 -0.0851 -0.0071
 1238ERGO    R316816  11.370   0.666   7.171 -0.0341  0.1479  0.0441
 1238ERGO    R416817  11.238   0.742   7.421 -0.2488 -0.1425  0.0134
 1238ERGO    R516818  11.443   0.788   7.363 -0.2759  0.1333  0.1433
 1238ERGO    C116819  11.508   0.594   7.685 -0.2004  0.0428  0.0735
 1238ERGO    C216820  11.463   0.407   7.989 -0.0082  0.2444 -0.1452
 1239ERGO   ROH16821  16.939   8.656   9.713 -0.0452 -0.1523 -0.1829
 1239ERGO    R116822  16.905   8.763   9.453 -0.0029 -0.0272 -0.1379
 1239ERGO    R216823  17.119   8.821   9.287  0.0209 -0.0636 -0.1219
 1239ERGO    R316824  16.985   8.660   9.113 -0.0664  0.0730 -0.1829
 1239ERGO    R416825  17.179   8.805   8.947  0.0325  0.0002 -0.1232
 1239ERGO    R516826  16.963   8.793   8.914  0.0293  0.1447 -0.1439
 1239ERGO    C116827  17.088   8.646   8.585 -0.0422  0.1657 -0.1812
 1239ERGO    C216828  17.255   8.711   8.234  0.0758 -0.0316  0.1996
 1240ERGO   ROH16829   3.916   2.999   7.972 -0.0789  0.1424  0.0154
 1240ERGO    R116830   3.751   3.114   7.773 -0.1463 -0.0218 -0.0266
 1240ERGO    R216831   3.497   3.021   7.718 -0.1343 -0.1267  0.0719
 1240ERGO    R316832   3.427   3.280   7.761 -0.1939 -0.1196 -0.0672
 1240ERGO    R416833   3.204   3.167   7.608 -0.1497 -0.2377 -0.0349
 1240ERGO    R516834   3.318   3.347   7.559 -0.1834 -0.2413 -0.1105
 1240ERGO    C116835   2.968   3.496   7.584 -0.2145 -0.2955 -0.2278
 1240ERGO    C216836   2.642   3.573   7.634 -0.3026  0.1667 -0.1904
 1241ERGO   ROH16837   6.019   3.344   6.537 -0.6571  0.0393  0.1726
 1241ERGO    R116838   6.043   3.290   6.814 -0.5296  0.0383  0.1623
 1241ERGO    R216839   6.282   3.312   6.950 -0.4202 -0.1606  0.0112
 1241ERGO    R316840   6.138   3.475   7.113 -0.1783 -0.0205  0.0908
 1241ERGO    R416841   6.317   3.330   7.294 -0.3413 -0.3186  0.0123
 1241ERGO    R516842   6.100   3.344   7.310 -0.3203 -0.0358  0.0524
 1241ERGO    C116843   6.202   3.493   7.646 -0.0684 -0.2791  0.0877
 1241ERGO    C216844   6.235   3.563   7.933  0.1479 -0.1221 -0.0836
 1242ERGO   ROH16845  18.152  18.127  10.057  0.1063  0.0466 -0.1505
 1242ERGO    R116846  18.018  17.993   9.847  0.0044  0.0349 -0.0787
 1242ERGO    R216847  17.908  18.126   9.632 -0.0263  0.0157 -0.0744
 1242ERGO    R316848  18.062  17.954   9.488 -0.1177 -0.0590 -0.0842
 1242ERGO    R416849  17.932  18.124   9.287  0.0146  0.0577 -0.0721
 1242ERGO    R516850  17.931  17.906   9.293 -0.1252  0.0566 -0.1084
 1242ERGO    C116851  18.090  17.961   8.951 -0.0476  0.0119 -0.0800
 1242ERGO    C216852  17.929  18.160   8.746 -0.1211 -0.1859 -0.0617
 1243ERGO   ROH16853  12.884   0.522   6.624 -0.0834 -0.0799 -0.2332
 1243ERGO    R116854  12.672   0.591   6.799 -0.0229  0.0364 -0.2047
 1243ERGO    R216855  12.645   0.479   7.050 -0.0237  0.0864 -0.1840
 1243ERGO    R316856  12.639   0.739   7.130  0.0995  0.1013 -0.2209
 1243ERGO    R416857  12.511   0.591   7.349  0.0910  0.1850 -0.1684
 1243ERGO    R516858  12.429   0.762   7.241  0.1341  0.2027 -0.1746
 1243ERGO    C116859  12.428   0.901   7.597  0.2734  0.2566 -0.1940
 1243ERGO    C216860  12.219   1.062   7.901  0.0971 -0.2205 -0.4296
 1244ERGO   ROH16861  15.963   0.676   9.782  0.1720  0.3073 -0.1421
 1244ERGO    R116862  15.816   0.540   9.582  0.0693  0.3490 -0.0932
 1244ERGO    R216863  15.785   0.641   9.326  0.3200  0.1863 -0.1831
 1244ERGO    R316864  15.884   0.398   9.254  0.0113 -0.0165  0.0459
 1244ERGO    R416865  15.751   0.498   9.013  0.3986  0.0902 -0.1492
 1244ERGO    R516866  15.718   0.305   9.110 -0.0066  0.1802 -0.0741
 1244ERGO    C116867  15.825   0.187   8.763  0.1547 -0.1561  0.0854
 1244ERGO    C216868  15.730  -0.040   8.532 -0.3888  0.3651  0.1061
 1245ERGO   ROH16869   6.638   0.404   6.574  0.3337 -0.1842 -0.0725
 1245ERGO    R116870   6.579   0.450   6.846  0.2125 -0.0494 -0.1204
 1245ERGO    R216871   6.545   0.245   7.028  0.0351  0.0372 -0.0531
 1245ERGO    R316872   6.736   0.379   7.167  0.0196  0.0148 -0.0104
 1245ERGO    R416873   6.521   0.331   7.362  0.0645 -0.1491 -0.0014
 1245ERGO    R516874   6.612   0.524   7.313  0.0033 -0.0977  0.0880
 1245ERGO    C116875   6.686   0.508   7.687  0.0670 -0.2786  0.0688
 1245ERGO    C216876   6.528   0.723   8.009 -0.0270  0.1183  0.0499
 1246ERGO   ROH16877  13.639  15.411  10.217  0.1873  0.0139  0.0438
 1246ERGO    R116878  13.789  15.470   9.983  0.1933 -0.0981  0.0201
 1246ERGO    R216879  13.852  15.278   9.795 -0.0359 -0.1322 -0.0176
 1246ERGO    R316880  13.735  15.454   9.624  0.0996  0.0065  0.0276
 1246ERGO    R416881  13.913  15.295   9.455 -0.1775 -0.2427 -0.0503
 1246ERGO    R516882  13.908  15.512   9.469  0.1053 -0.2268 -0.0628
 1246ERGO    C116883  13.838  15.469   9.097 -0.1328 -0.1768 -0.0269
 1246ERGO    C216884  13.992  15.319   8.803  0.1741 -0.0142  0.0666
 1247ERGO   ROH16885   2.620   9.781   6.574 -0.0957 -0.0006  0.0792
 1247ERGO    R116886   2.580   9.671   6.832 -0.0789 -0.0661  0.0547
 1247ERGO    R216887   2.690   9.430   6.909  0.0214 -0.0338  0.0252
 1247ERGO    R316888   2.790   9.577   7.114 -0.0706 -0.0231  0.0618
 1247ERGO    R416889   2.724   9.318   7.234  0.0692 -0.0820  0.0034
 1247ERGO    R516890   2.657   9.514   7.303 -0.0420 -0.1359  0.0421
 1247ERGO    C116891   2.837   9.392   7.616  0.0108 -0.0999  0.0250
 1247ERGO    C216892   2.870   9.181   7.885  0.1936  0.1946  0.0924
 1248ERGO   ROH16893  17.747   5.149   5.804 -0.0204  0.1729  0.0759
 1248ERGO    R116894  17.769   5.154   6.086  0.0736  0.0457  0.0712
 1248ERGO    R216895  17.577   5.044   6.252  0.0600  0.0975  0.0855
 1248ERGO    R316896  17.789   4.908   6.354  0.0098 -0.0755 -0.0331
 1248ERGO    R416897  17.570   4.852   6.539  0.0308  0.0012  0.0217
 1248ERGO    R516898  17.766   4.931   6.591  0.1020 -0.1414 -0.0154
 1248ERGO    C116899  17.766   4.613   6.802 -0.0337 -0.2173 -0.1268
 1248ERGO    C216900  17.800   4.436   7.053  0.1576  0.0169 -0.0983
 1249ERGO   ROH16901  16.598  16.962  10.018 -0.1295 -0.0572 -0.0516
 1249ERGO    R116902  16.507  16.873   9.764  0.0090 -0.0546 -0.1020
 1249ERGO    R216903  16.477  17.043   9.549 -0.0086 -0.0286 -0.0732
 1249ERGO    R316904  16.639  16.864   9.425  0.1320  0.0867 -0.0608
 1249ERGO    R416905  16.486  16.988   9.208 -0.1369 -0.1946 -0.0511
 1249ERGO    R516906  16.504  16.774   9.248  0.1285 -0.1609  0.0575
 1249ERGO    C116907  16.643  16.786   8.893 -0.0795 -0.1830 -0.0267
 1249ERGO    C216908  16.549  16.822   8.637 -0.0183 -0.2265  0.1974
 1250ERGO   ROH16909  15.456  11.270  10.312 -0.3513 -0.0149  0.0244
 1250ERGO    R116910  15.435  11.175  10.046 -0.1022 -0.0816  0.0251
 1250ERGO    R216911  15.280  11.301   9.855 -0.1312 -0.2712 -0.0873
 1250ERGO    R316912  15.513  11.301   9.714 -0.0452 -0.0501  0.0521
 1250ERGO    R416913  15.302  11.297   9.510  0.0934 -0.2415 -0.0740
 1250ERGO    R516914  15.469  11.158   9.527  0.2094 -0.0821  0.0208
 1250ERGO    C116915  15.533  11.295   9.177  0.3050 -0.0167  0.0647
 1250ERGO    C216916  15.449  11.470   8.762  0.1955  0.1489 -0.1550
 1251ERGO   ROH16917   4.783  14.063   6.735  0.0803 -0.0317 -0.0413
 1251ERGO    R116918   4.812  14.077   7.017  0.0366 -0.0071 -0.0385
 1251ERGO    R216919   5.007  14.230   7.138  0.0020  0.0192 -0.0225
 1251ERGO    R316920   4.796  14.336   7.272 -0.0264  0.0102 -0.0587
 1251ERGO    R416921   5.015  14.333   7.468 -0.0398  0.0655 -0.0354
 1251ERGO    R516922   4.816  14.247   7.494 -0.0338  0.0412 -0.0431
 1251ERGO    C116923   4.821  14.493   7.786 -0.0908  0.0839 -0.0769
 1251ERGO    C216924   4.920  14.635   8.136  0.0428  0.0654  0.4346
 1252ERGO   ROH16925  18.050  12.728   6.804  0.0764 -0.1863  0.1242
 1252ERGO    R116926  18.135  12.743   7.074  0.1327 -0.0651  0.0997
 1252ERGO    R216927  18.387  12.830   7.145  0.0184  0.3369  0.0288
 1252ERGO    R316928  18.248  13.004   7.301 -0.2168  0.1089  0.0815
 1252ERGO    R416929  18.464  12.907   7.474  0.0011  0.4362  0.0104
 1252ERGO    R516930  18.251  12.905   7.519  0.0096  0.0926  0.0759
 1252ERGO    C116931  18.378  13.115   7.811 -0.2297  0.2800  0.0492
 1252ERGO    C216932  18.560  13.063   8.088 -0.1610 -0.0198  0.0610
 1253ERGO   ROH16933  13.225  12.798   7.361  0.1528  0.1372 -0.0523
 1253ERGO    R116934  13.081  13.012   7.478  0.1179  0.0829  0.0059
 1253ERGO    R216935  13.027  13.024   7.749 -0.0311 -0.0829 -0.0122
 1253ERGO    R316936  13.145  13.268   7.729  0.0172 -0.0876  0.2075
 1253ERGO    R416937  12.897  13.317   7.877 -0.2309 -0.0871 -0.2006
 1253ERGO    R516938  12.963  13.420   7.697  0.0777 -0.0746 -0.0837
 1253ERGO    C116939  12.932  13.717   7.934 -0.3021 -0.0940 -0.1041
 1253ERGO    C216940  13.028  14.066   8.129 -0.2016 -0.3562 -0.1812
 1254ERGO   ROH16941   2.994   5.201   9.800  0.1533 -0.1573  0.0851
 1254ERGO    R116942   2.941   5.166   9.525 -0.0252 -0.1580  0.1194
 1254ERGO    R216943   2.960   5.372   9.342  0.1245 -0.2215  0.0678
 1254ERGO    R316944   3.126   5.199   9.213 -0.1394 -0.4442  0.0158
 1254ERGO    R416945   3.019   5.372   9.002  0.0889 -0.2280  0.0612
 1254ERGO    R516946   3.015   5.154   9.006 -0.2344 -0.2327  0.0136
 1254ERGO    C116947   3.208   5.210   8.682 -0.1794 -0.4409  0.0085
 1254ERGO    C216948   3.413   5.263   8.385  0.3153  0.2870 -0.0648
 1255ERGO   ROH16949   8.691  12.577   6.684 -0.2022  0.1712 -0.1241
 1255ERGO    R116950   8.686  12.590   6.967 -0.0898  0.0498 -0.1143
 1255ERGO    R216951   8.765  12.816   7.108 -0.0489  0.0004 -0.0448
 1255ERGO    R316952   8.518  12.792   7.219 -0.0049 -0.0681  0.0355
 1255ERGO    R416953   8.654  12.990   7.385 -0.0321 -0.0085 -0.0337
 1255ERGO    R516954   8.556  12.809   7.454  0.0536 -0.0263  0.0175
 1255ERGO    C116955   8.357  13.069   7.650  0.0191 -0.0780  0.0480
 1255ERGO    C216956   8.158  13.071   7.941  0.0379 -0.4305 -0.2582
 1256ERGO   ROH16957  12.579   9.475   6.607  0.1041 -0.1336  0.0533
 1256ERGO    R116958  12.669   9.615   6.836  0.1456 -0.2120  0.0876
 1256ERGO    R216959  12.497   9.701   7.034  0.1115  0.1164 -0.0659
 1256ERGO    R316960  12.667   9.563   7.196 -0.2308 -0.1215  0.1005
 1256ERGO    R416961  12.606   9.809   7.344  0.4107  0.2333 -0.2090
 1256ERGO    R516962  12.804   9.732   7.296  0.2170 -0.3441 -0.1249
 1256ERGO    C116963  12.828   9.742   7.676  0.2636  0.0781 -0.1360
 1256ERGO    C216964  12.885   9.718   8.148 -0.0623  0.0044  0.0520
 1257ERGO   ROH16965  12.307   6.172   6.348 -0.1456 -0.2079  0.2832
 1257ERGO    R116966  12.351   6.301   6.596 -0.2293 -0.2706  0.3309
 1257ERGO    R216967  12.364   6.576   6.621  0.2351 -0.2844  0.3214
 1257ERGO    R316968  12.170   6.537   6.807 -0.0856  0.0727  0.0812
 1257ERGO    R416969  12.309   6.779   6.895  0.2941 -0.2044  0.2748
 1257ERGO    R516970  12.273   6.600   7.014 -0.2096 -0.1551  0.2173
 1257ERGO    C116971  12.096   6.859   7.231  0.0274  0.1775  0.0221
 1257ERGO    C216972  12.041   6.831   7.606 -0.0039  0.3225 -0.0541
 1258ERGO   ROH16973  13.286  10.026   6.482 -0.0713  0.0108  0.0294
 1258ERGO    R116974  13.522  10.039   6.636 -0.0779  0.0648  0.0354
 1258ERGO    R216975  13.542  10.194   6.864 -0.1376  0.0237  0.0700
 1258ERGO    R316976  13.620   9.960   6.978 -0.0535  0.0273  0.0196
 1258ERGO    R416977  13.635  10.157   7.195  0.1544  0.0431 -0.0075
 1258ERGO    R516978  13.795  10.023   7.130  0.0871  0.0265 -0.1393
 1258ERGO    C116979  13.763   9.915   7.494  0.4032  0.0577 -0.1000
 1258ERGO    C216980  13.561  10.035   7.924 -0.0037  0.1022  0.1182
 1259ERGO   ROH16981  16.065   1.845   9.667 -0.1513  0.1042 -0.0091
 1259ERGO    R116982  15.910   1.833   9.430 -0.0082  0.2196 -0.1119
 1259ERGO    R216983  16.015   1.883   9.180  0.2339 -0.0176 -0.0648
 1259ERGO    R316984  15.911   1.638   9.123 -0.0528  0.0945 -0.0322
 1259ERGO    R416985  15.900   1.784   8.869  0.2014  0.0390 -0.0706
 1259ERGO    R516986  15.734   1.683   8.968  0.0479  0.2697 -0.0947
 1259ERGO    C116987  15.735   1.496   8.635 -0.0868  0.1772 -0.0431
 1259ERGO    C216988  15.802   1.227   8.267  0.2337  0.1059 -0.2277
 1260ERGO   ROH16989  14.586   0.276   6.522  0.1457  0.1303 -0.1800
 1260ERGO    R116990  14.550   0.143   6.770  0.2115  0.0079 -0.2358
 1260ERGO    R216991  14.746   0.132   6.964  0.1937  0.0806 -0.2169
 1260ERGO    R316992  14.551   0.236   7.122  0.0957 -0.1262 -0.1988
 1260ERGO    R416993  14.728   0.093   7.307  0.3938  0.2428 -0.1850
 1260ERGO    R516994  14.513   0.067   7.287  0.4193 -0.0978 -0.0862
 1260ERGO    C116995  14.534   0.167   7.655  0.4184  0.1430 -0.1495
 1260ERGO    C216996  14.403   0.184   8.010 -0.1689  0.0582  0.0308
 1261ERGO   ROH16997   4.332   0.514   6.477 -0.0112 -0.1110 -0.0869
 1261ERGO    R116998   4.282   0.690   6.693 -0.0758 -0.0666 -0.1394
 1261ERGO    R216999   4.214   0.600   6.945 -0.0417 -0.0168 -0.1194
 1261ERGO    R317000   4.425   0.753   7.021 -0.1007  0.0865 -0.1551
 1261ERGO    R417001   4.245   0.755   7.252 -0.0236 -0.0979 -0.0787
 1261ERGO    R517002   4.328   0.929   7.150 -0.1646 -0.0103 -0.0606
 1261ERGO    C117003   4.461   0.989   7.503 -0.0684 -0.0481 -0.0885
 1261ERGO    C217004   4.389   1.015   7.762  0.0487  0.2517  0.2390
 1262ERGO   ROH17005   9.097   5.512   6.596  0.0872 -0.0516  0.0015
 1262ERGO    R117006   9.008   5.733   6.749 -0.0434 -0.1053  0.0010
 1262ERGO    R217007   8.818   5.710   6.947 -0.0462 -0.2126 -0.0287
 1262ERGO    R317008   9.009   5.830   7.100 -0.1342 -0.1121  0.0066
 1262ERGO    R417009   8.752   5.919   7.214 -0.2267 -0.0089 -0.2274
 1262ERGO    R517010   8.917   6.047   7.148 -0.1654 -0.0631 -0.2204
 1262ERGO    C117011   8.892   6.154   7.514 -0.4143  0.2042 -0.3100
 1262ERGO    C217012   8.761   6.175   7.875 -0.0865 -0.1035  0.3542
 1263ERGO   ROH17013   2.684  16.831   6.553 -0.1143 -0.1319  0.0474
 1263ERGO    R117014   2.750  16.778   6.823 -0.0342  0.0705  0.0699
 1263ERGO    R217015   2.641  16.920   7.034 -0.2072  0.0288  0.0139
 1263ERGO    R317016   2.573  16.673   7.122  0.1091 -0.0227  0.1220
 1263ERGO    R417017   2.539  16.847   7.355 -0.1405  0.0405  0.0371
 1263ERGO    R517018   2.657  16.664   7.346  0.1001  0.1902  0.1333
 1263ERGO    C117019   2.416  16.571   7.626  0.1954 -0.0007  0.1521
 1263ERGO    C217020   2.458  16.332   7.816 -0.2601  0.0796 -0.4476
 1264ERGO   ROH17021   3.074  12.866   6.514 -0.0044  0.0055 -0.0682
 1264ERGO    R117022   3.130  13.052   6.720  0.1459 -0.1252  0.0108
 1264ERGO    R217023   2.931  13.177   6.866  0.2359  0.1548 -0.1010
 1264ERGO    R317024   3.068  13.076   7.078 -0.0644 -0.1102 -0.0250
 1264ERGO    R417025   2.901  13.289   7.191  0.3183  0.2635 -0.1301
 1264ERGO    R517026   3.117  13.268   7.213  0.2751 -0.1856 -0.0300
 1264ERGO    C117027   3.012  13.260   7.580  0.0843  0.0781 -0.0757
 1264ERGO    C217028   3.166  13.431   7.821  0.3115 -0.0100 -0.1961
 1265ERGO   ROH17029  14.018  14.579  10.623 -0.1969  0.0652  0.1352
 1265ERGO    R117030  13.991  14.450  10.373 -0.1257  0.0197  0.1506
 1265ERGO    R217031  13.776  14.495  10.204 -0.1075 -0.0536  0.1060
 1265ERGO    R317032  13.972  14.551  10.024 -0.0881 -0.0389  0.1319
 1265ERGO    R417033  13.755  14.437   9.864 -0.0227 -0.1352  0.1143
 1265ERGO    R517034  13.962  14.370   9.867 -0.0053 -0.0758  0.1698
 1265ERGO    C117035  13.926  14.455   9.497  0.0450 -0.1690  0.1435
 1265ERGO    C217036  14.003  14.482   9.150 -0.0735  0.1577  0.2565
 1266ERGO   ROH17037  18.018   4.957   9.021 -0.0081  0.1582 -0.1196
 1266ERGO    R117038  18.080   5.060   8.765  0.0406  0.0721 -0.1448
 1266ERGO    R217039  18.116   4.898   8.544  0.0583 -0.0065 -0.0942
 1266ERGO    R317040  17.926   5.060   8.435  0.0851 -0.0208 -0.1640
 1266ERGO    R417041  18.090   4.974   8.208  0.1596 -0.0071 -0.1015
 1266ERGO    R517042  18.041   5.179   8.263  0.1280 -0.0150 -0.1244
 1266ERGO    C117043  17.897   5.169   7.910  0.2437 -0.0210 -0.1712
 1266ERGO    C217044  18.069   5.369   7.654  0.0508 -0.3440 -0.3890
 1267ERGO   ROH17045   6.820   5.695   6.788  0.0684 -0.0192  0.0096
 1267ERGO    R117046   6.912   5.527   6.997 -0.0122 -0.1191 -0.0338
 1267ERGO    R217047   6.905   5.603   7.262  0.2488 -0.0836 -0.0334
 1267ERGO    R317048   6.770   5.369   7.292 -0.0322  0.0879  0.0689
 1267ERGO    R417049   6.884   5.422   7.556  0.2310 -0.0520 -0.0154
 1267ERGO    R517050   6.906   5.239   7.440 -0.0887 -0.0852 -0.0293
 1267ERGO    C117051   6.744   5.098   7.755 -0.0431  0.1274  0.0910
 1267ERGO    C217052   6.735   5.122   8.105  0.1021  0.1058 -0.2275
 1268ERGO   ROH17053  14.787   2.540   9.621 -0.1271 -0.1738 -0.0348
 1268ERGO    R117054  14.834   2.491   9.346 -0.0411 -0.1412 -0.0262
 1268ERGO    R217055  14.845   2.236   9.240 -0.2006 -0.1253 -0.0849
 1268ERGO    R317056  14.654   2.332   9.072 -0.0471  0.0742 -0.1486
 1268ERGO    R417057  14.824   2.164   8.903 -0.1345 -0.0516 -0.1055
 1268ERGO    R517058  14.771   2.372   8.867  0.0691  0.0020 -0.0960
 1268ERGO    C117059  14.633   2.212   8.549  0.0482  0.1785 -0.1773
 1268ERGO    C217060  14.672   2.307   8.244  0.2218  0.1281 -0.0718
 1269ERGO   ROH17061   0.595  16.063  10.301  0.0805 -0.0090 -0.0326
 1269ERGO    R117062   0.505  16.163  10.052 -0.1006 -0.1819 -0.0386
 1269ERGO    R217063   0.672  16.292   9.873 -0.3468  0.2230  0.0085
 1269ERGO    R317064   0.579  16.104   9.701  0.1079  0.0201 -0.0312
 1269ERGO    R417065   0.641  16.335   9.532 -0.3926  0.1961  0.0092
 1269ERGO    R517066   0.451  16.228   9.540 -0.1581 -0.2460 -0.0342
 1269ERGO    C117067   0.535  16.183   9.171  0.0075 -0.0099 -0.0275
 1269ERGO    C217068   0.582  16.178   8.844 -0.0904 -0.1827 -0.1835
 1270ERGO   ROH17069  10.351   8.715   6.328  0.0243 -0.0839 -0.0985
 1270ERGO    R117070  10.336   8.920   6.523  0.1306 -0.1411 -0.0294
 1270ERGO    R217071  10.109   9.074   6.560  0.2114 -0.0324  0.0184
 1270ERGO    R317072  10.134   8.990   6.818  0.1631 -0.1325 -0.0090
 1270ERGO    R417073  10.020   9.259   6.838 -0.2425 -0.3027  0.0627
 1270ERGO    R517074  10.199   9.186   6.938 -0.1992 -0.0963  0.1399
 1270ERGO    C117075   9.990   9.289   7.241 -0.5524 -0.5545  0.0628
 1270ERGO    C217076   9.918   9.188   7.602  0.2765 -0.0643 -0.1195
 1271ERGO   ROH17077   1.693   4.779   9.004  0.2504  0.1214 -0.0465
 1271ERGO    R117078   1.827   4.744   8.757  0.0977 -0.1239 -0.0992
 1271ERGO    R217079   1.748   4.558   8.569 -0.2040 -0.1078  0.0044
 1271ERGO    R317080   1.744   4.774   8.404 -0.0366 -0.1604 -0.0702
 1271ERGO    R417081   1.758   4.542   8.224 -0.3544 -0.2385  0.0048
 1271ERGO    R517082   1.892   4.715   8.225 -0.1690 -0.3809 -0.1086
 1271ERGO    C117083   1.761   4.736   7.868 -0.2849 -0.3639 -0.0651
 1271ERGO    C217084   1.700   4.564   7.511 -0.0839 -0.2249  0.0495
 1272ERGO   ROH17085  11.721  17.290   6.460 -0.0420 -0.0887 -0.0667
 1272ERGO    R117086  11.651  17.382   6.718 -0.0616 -0.1293 -0.0583
 1272ERGO    R217087  11.390  17.390   6.807 -0.0758 -0.0483 -0.1152
 1272ERGO    R317088  11.488  17.243   7.013 -0.1819 -0.1419 -0.1290
 1272ERGO    R417089  11.253  17.379   7.124 -0.1678 -0.0907 -0.1553
 1272ERGO    R517090  11.455  17.382   7.206 -0.1870 -0.1832 -0.0983
 1272ERGO    C117091  11.266  17.234   7.503 -0.3210 -0.2031 -0.1917
 1272ERGO    C217092  11.243  17.165   7.828 -0.3123  0.0035  0.1332
 1273ERGO   ROH17093  16.643   4.536   7.492  0.1178 -0.0238  0.1360
 1273ERGO    R117094  16.672   4.284   7.619  0.0749 -0.0704  0.0539
 1273ERGO    R217095  16.466   4.100   7.633  0.0155 -0.0026  0.0728
 1273ERGO    R317096  16.650   3.934   7.521 -0.0812 -0.0359 -0.0392
 1273ERGO    R417097  16.449   3.755   7.636 -0.0792  0.0010  0.0229
 1273ERGO    R517098  16.664   3.750   7.673 -0.0632 -0.0652 -0.0758
 1273ERGO    C117099  16.612   3.398   7.534 -0.2252 -0.0281 -0.1113
 1273ERGO    C217100  16.441   3.114   7.515 -0.1226  0.3142  0.1356
 1274ERGO   ROH17101   3.631   8.298   6.413  0.2527 -0.2517 -0.0691
 1274ERGO    R117102   3.801   8.403   6.613  0.1280 -0.2048  0.0130
 1274ERGO    R217103   3.822   8.674   6.664  0.1752 -0.1857 -0.1104
 1274ERGO    R317104   3.761   8.598   6.918 -0.0513 -0.0348 -0.1162
 1274ERGO    R417105   3.858   8.874   6.944  0.1380 -0.0926 -0.1718
 1274ERGO    R517106   3.932   8.700   7.053 -0.0627 -0.1040 -0.0470
 1274ERGO    C117107   3.822   8.919   7.345 -0.0963  0.1033 -0.2129
 1274ERGO    C217108   3.634   8.945   7.655 -0.2665 -0.2637  0.1113
 1275ERGO   ROH17109   3.295  17.711   6.468 -0.1262 -0.0874 -0.1444
 1275ERGO    R117110   3.256  17.857   6.707 -0.0229  0.0411 -0.2041
 1275ERGO    R217111   3.038  18.022   6.747 -0.0939 -0.0671 -0.1364
 1275ERGO    R317112   3.004  17.871   6.970  0.1767  0.0527 -0.0100
 1275ERGO    R417113   2.821  18.097   7.005 -0.0124 -0.0868 -0.0626
 1275ERGO    R517114   2.974  18.030   7.146  0.1344  0.1491 -0.1024
 1275ERGO    C117115   2.664  17.998   7.366  0.2890  0.0139  0.0991
 1275ERGO    C217116   2.474  17.844   7.663  0.1438 -0.0698  0.1380
 1276ERGO   ROH17117  17.114   0.410  10.011  0.0057 -0.3089  0.2263
 1276ERGO    R117118  17.100   0.258   9.773 -0.1109 -0.2158  0.1739
 1276ERGO    R217119  16.861   0.201   9.647 -0.1493  0.0509  0.1293
 1276ERGO    R317120  16.985   0.311   9.431 -0.0243  0.0053  0.1762
 1276ERGO    R417121  16.756   0.165   9.320 -0.2825  0.4223  0.1255
 1276ERGO    R517122  16.965   0.144   9.260 -0.3189  0.1393  0.0692
 1276ERGO    C117123  16.812   0.247   8.927 -0.2427  0.5958  0.1672
 1276ERGO    C217124  16.739   0.220   8.534 -0.2887  0.4169 -0.2898
 1277ERGO   ROH17125  17.802   9.991   6.605  0.4085  0.2270  0.1243
 1277ERGO    R117126  17.922   9.898   6.844  0.1987  0.1786  0.2130
 1277ERGO    R217127  17.867  10.008   7.091 -0.0090  0.1374  0.1874
 1277ERGO    R317128  17.808   9.751   7.157 -0.0800  0.1285  0.0913
 1277ERGO    R417129  17.871   9.882   7.413  0.0573 -0.0101  0.1292
 1277ERGO    R517130  17.961   9.699   7.334 -0.0368 -0.0083  0.0149
 1277ERGO    C117131  17.818   9.567   7.662  0.0294 -0.1045  0.0051
 1277ERGO    C217132  17.867   9.306   7.832  0.1759  0.1854  0.2872
 1278ERGO   ROH17133   1.654  16.600   6.234 -0.2304 -0.2033 -0.0739
 1278ERGO    R117134   1.738  16.575   6.504 -0.1140 -0.3606 -0.1237
 1278ERGO    R217135   1.683  16.767   6.695  0.2954 -0.2896 -0.0728
 1278ERGO    R317136   1.577  16.556   6.830  0.0388 -0.1393 -0.0314
 1278ERGO    R417137   1.610  16.765   7.033  0.6545 -0.2475  0.0090
 1278ERGO    R517138   1.686  16.561   7.043  0.2870 -0.4057 -0.1420
 1278ERGO    C117139   1.468  16.566   7.356  0.6226 -0.0821  0.0956
 1278ERGO    C217140   1.412  16.528   7.767  0.1142  0.3039 -0.0773
 1279ERGO   ROH17141  13.254   6.203   9.833  0.2267 -0.1499 -0.0347
 1279ERGO    R117142  13.217   6.076   9.583  0.0628 -0.1330 -0.0212
 1279ERGO    R217143  12.968   6.044   9.468  0.0002  0.0363  0.0486
 1279ERGO    R317144  13.085   6.168   9.257  0.0294 -0.0489  0.0192
 1279ERGO    R417145  12.825   6.080   9.155 -0.1761  0.4030  0.1660
 1279ERGO    R517146  13.020   6.038   9.067 -0.3111  0.1442  0.0045
 1279ERGO    C117147  12.852   6.217   8.775 -0.2514  0.5366  0.2068
 1279ERGO    C217148  12.934   6.166   8.401 -0.2770 -0.0716  0.2199
 1280ERGO   ROH17149   2.532   3.730   9.750 -0.1409 -0.0486 -0.0520
 1280ERGO    R117150   2.691   3.702   9.518 -0.2426 -0.2436 -0.1019
 1280ERGO    R217151   2.606   3.562   9.295 -0.5755  0.0350 -0.1667
 1280ERGO    R317152   2.665   3.794   9.167 -0.1440 -0.0012 -0.0454
 1280ERGO    R417153   2.673   3.590   8.957 -0.2967  0.0736 -0.1100
 1280ERGO    R517154   2.830   3.732   9.005 -0.1216 -0.1760  0.0493
 1280ERGO    C117155   2.767   3.824   8.640  0.2708  0.0621  0.0369
 1280ERGO    C217156   2.657   3.816   8.285  0.2327 -0.1460 -0.1714
 1281ERGO   ROH17157   3.116   5.184   5.970  0.0913 -0.0706  0.0244
 1281ERGO    R117158   3.017   5.344   6.181  0.2060  0.0611 -0.0195
 1281ERGO    R217159   2.840   5.248   6.370  0.0294  0.2774 -0.0679
 1281ERGO    R317160   3.028   5.338   6.545  0.0811  0.0724 -0.0159
 1281ERGO    R417161   2.775   5.353   6.693  0.1116  0.0209  0.0346
 1281ERGO    R517162   2.919   5.515   6.663  0.1533  0.0030  0.1533
 1281ERGO    C117163   2.914   5.499   7.045  0.2081 -0.3209  0.1431
 1281ERGO    C217164   2.851   5.698   7.234 -0.0559 -0.3713 -0.0849
 1282ERGO   ROH17165   3.687   8.227   8.135 -0.0379 -0.0664 -0.0375
 1282ERGO    R117166   3.896   8.362   8.000 -0.0445 -0.0439 -0.0248
 1282ERGO    R217167   4.087   8.512   8.134  0.0091 -0.1336 -0.0016
 1282ERGO    R317168   4.260   8.351   7.999 -0.0461 -0.1047 -0.1085
 1282ERGO    R417169   4.363   8.622   7.957  0.1580 -0.1222  0.2329
 1282ERGO    R517170   4.316   8.476   7.803  0.1189  0.0774  0.0494
 1282ERGO    C117171   4.686   8.535   7.727  0.1928 -0.0884  0.2691
 1282ERGO    C217172   5.012   8.689   7.767  0.2706 -0.3500 -0.2830
 1283ERGO   ROH17173  12.343   7.413   6.440 -0.0734 -0.0673  0.0336
 1283ERGO    R117174  12.274   7.547   6.680 -0.0342 -0.0351  0.0238
 1283ERGO    R217175  12.276   7.422   6.927  0.1211  0.0353  0.0446
 1283ERGO    R317176  12.438   7.630   6.994  0.0526  0.1274 -0.0591
 1283ERGO    R417177  12.278   7.580   7.234  0.3702 -0.1263  0.1323
 1283ERGO    R517178  12.302   7.771   7.130  0.0972 -0.0443  0.1862
 1283ERGO    C117179  12.432   7.867   7.476  0.4510 -0.1340  0.0861
 1283ERGO    C217180  12.359   7.902   7.793  0.1019 -0.1603  0.1660
 1284ERGO   ROH17181  16.304  15.074  10.274  0.0686  0.0077 -0.0206
 1284ERGO    R117182  16.194  15.024  10.018  0.0090 -0.0230  0.0111
 1284ERGO    R217183  16.169  15.221   9.826  0.0127 -0.0581 -0.0236
 1284ERGO    R317184  16.308  15.045   9.673 -0.0537 -0.1182 -0.0163
 1284ERGO    R417185  16.119  15.171   9.488  0.0464  0.0058 -0.0385
 1284ERGO    R517186  16.146  14.957   9.521 -0.0752 -0.0141 -0.0557
 1284ERGO    C117187  16.221  14.977   9.147  0.0040 -0.0133 -0.0405
 1284ERGO    C217188  16.275  14.998   8.859  0.1248  0.1811 -0.1540
 1285ERGO   ROH17189  11.945  16.153   6.935  0.2405 -0.0676 -0.0198
 1285ERGO    R117190  12.061  16.241   7.178  0.0720  0.0626  0.0147
 1285ERGO    R217191  11.957  16.451   7.325 -0.1752 -0.0152 -0.0434
 1285ERGO    R317192  11.956  16.268   7.525 -0.0818  0.0021 -0.0264
 1285ERGO    R417193  11.983  16.525   7.661 -0.2303  0.0284 -0.0483
 1285ERGO    R517194  12.113  16.352   7.685 -0.1354  0.1027 -0.0269
 1285ERGO    C117195  11.998  16.396   8.046 -0.1748  0.0701 -0.0351
 1285ERGO    C217196  12.126  16.452   8.243 -0.0003 -0.0184  0.4533
 1286ERGO   ROH17197  11.146   6.830  10.433  0.0226 -0.1473  0.0337
 1286ERGO    R117198  11.222   6.715  10.186 -0.0215 -0.1231  0.0086
 1286ERGO    R217199  11.070   6.522  10.058 -0.0394 -0.1194  0.0215
 1286ERGO    R317200  11.085   6.696   9.849 -0.0880 -0.0994  0.0348
 1286ERGO    R417201  11.053   6.432   9.725  0.1305 -0.1123  0.0101
 1286ERGO    R517202  11.210   6.577   9.682  0.0458 -0.0054  0.0688
 1286ERGO    C117203  11.057   6.542   9.335  0.1838 -0.0895  0.0158
 1286ERGO    C217204  10.988   6.521   9.004 -0.0729 -0.2786 -0.0179
 1287ERGO   ROH17205  11.501   4.947   6.530 -0.1802 -0.1815 -0.0412
 1287ERGO    R117206  11.614   5.059   6.764 -0.1259 -0.1747 -0.0705
 1287ERGO    R217207  11.489   5.258   6.910 -0.0332 -0.0765 -0.1193
 1287ERGO    R317208  11.525   5.084   7.116 -0.1141 -0.0434 -0.0766
 1287ERGO    R417209  11.490   5.344   7.245 -0.2678 -0.0430 -0.1251
 1287ERGO    R517210  11.656   5.206   7.275 -0.2490  0.0077 -0.0060
 1287ERGO    C117211  11.526   5.231   7.632 -0.4804  0.0076 -0.0885
 1287ERGO    C217212  11.659   5.402   7.971 -0.3311  0.0874 -0.0510
 1288ERGO   ROH17213   5.010  13.088   6.918 -0.1906  0.1406  0.1017
 1288ERGO    R117214   4.954  13.032   7.190 -0.1689 -0.0286  0.0728
 1288ERGO    R217215   4.861  12.786   7.274 -0.0017 -0.1380 -0.0476
 1288ERGO    R317216   5.074  12.799   7.442 -0.0198 -0.0651 -0.0312
 1288ERGO    R417217   4.863  12.669   7.599 -0.0103 -0.0631 -0.0211
 1288ERGO    R517218   4.977  12.845   7.657 -0.0452 -0.0327 -0.0511
 1288ERGO    C117219   5.064  12.613   7.946 -0.0323  0.0489  0.0097
 1288ERGO    C217220   5.088  12.255   8.229  0.0838 -0.0910 -0.0686
 1289ERGO   ROH17221  14.074   5.406   9.686  0.1360  0.0212 -0.1047
 1289ERGO    R117222  13.860   5.361   9.506  0.0694 -0.1559  0.0158
 1289ERGO    R217223  13.845   5.484   9.259 -0.2677 -0.0152  0.0999
 1289ERGO    R317224  13.821   5.228   9.169  0.0207  0.0031 -0.0423
 1289ERGO    R417225  13.757   5.394   8.936 -0.4188  0.0714  0.1161
 1289ERGO    R517226  13.634   5.235   9.019 -0.1231 -0.1621  0.1236
 1289ERGO    C117227  13.684   5.103   8.665 -0.2360  0.1390 -0.0081
 1289ERGO    C217228  13.674   4.887   8.378 -0.0067  0.0482  0.2543
 1290ERGO   ROH17229  12.665   4.233   6.891  0.0466  0.2268  0.0273
 1290ERGO    R117230  12.485   4.330   7.086 -0.1037  0.2522 -0.1234
 1290ERGO    R217231  12.215   4.359   7.037 -0.1219 -0.0812 -0.2268
 1290ERGO    R317232  12.190   4.205   7.259 -0.0191  0.1330 -0.0626
 1290ERGO    R417233  11.915   4.282   7.191 -0.1022 -0.3233 -0.3037
 1290ERGO    R517234  12.014   4.309   7.384 -0.2350  0.0355 -0.2743
 1290ERGO    C117235  11.718   4.093   7.490  0.0058 -0.2634 -0.1944
 1290ERGO    C217236  11.309   3.916   7.617 -0.2856  0.0932  0.0274
 1291ERGO   ROH17237   3.254   2.868   9.720 -0.2325  0.1108 -0.0586
 1291ERGO    R117238   3.381   2.807   9.475 -0.2234 -0.0601 -0.0136
 1291ERGO    R217239   3.241   2.728   9.250 -0.2283 -0.1069 -0.0019
 1291ERGO    R317240   3.374   2.935   9.134 -0.1232 -0.2143 -0.0725
 1291ERGO    R417241   3.339   2.740   8.919 -0.2060 -0.2609 -0.0007
 1291ERGO    R517242   3.526   2.830   8.983 -0.1701 -0.3331 -0.0299
 1291ERGO    C117243   3.522   2.941   8.618 -0.0943 -0.4515 -0.0662
 1291ERGO    C217244   3.522   2.965   8.217  0.3435 -0.3537 -0.0932
 1292ERGO   ROH17245  12.235  10.274   9.701 -0.0009  0.1780 -0.0869
 1292ERGO    R117246  12.357  10.375   9.467  0.1045 -0.0487 -0.1326
 1292ERGO    R217247  12.473  10.211   9.277 -0.2399 -0.2691 -0.1620
 1292ERGO    R317248  12.307  10.344   9.108 -0.0675  0.0148 -0.1145
 1292ERGO    R417249  12.463  10.166   8.934 -0.3933 -0.2313 -0.1629
 1292ERGO    R517250  12.439  10.382   8.912 -0.0491 -0.1869 -0.1423
 1292ERGO    C117251  12.301  10.265   8.576 -0.3210  0.0572 -0.1190
 1292ERGO    C217252  12.237  10.347   8.283  0.0412 -0.3528  0.0037
 1293ERGO   ROH17253  17.706   9.609   9.700 -0.0275 -0.1473 -0.0725
 1293ERGO    R117254  17.627   9.709   9.447  0.2691  0.1137 -0.0688
 1293ERGO    R217255  17.806   9.819   9.268  0.6282 -0.4391 -0.0726
 1293ERGO    R317256  17.701   9.634   9.099  0.0287 -0.1248 -0.0729
 1293ERGO    R417257  17.820   9.836   8.923  0.5984 -0.4346 -0.0737
 1293ERGO    R517258  17.615   9.762   8.916  0.3575  0.1667 -0.0361
 1293ERGO    C117259  17.729   9.672   8.563  0.0182 -0.1369 -0.0746
 1293ERGO    C217260  17.801   9.713   8.169  0.0531  0.1355  0.0681
 1294ERGO   ROH17261   9.244   8.684   6.747 -0.0396 -0.1878 -0.0022
 1294ERGO    R117262   9.230   8.800   7.004  0.1085 -0.4001  0.1050
 1294ERGO    R217263   9.043   8.993   7.071  0.5042 -0.0302  0.1981
 1294ERGO    R317264   8.985   8.820   7.272  0.0203 -0.1073  0.0057
 1294ERGO    R417265   8.888   9.080   7.367  0.4199 -0.0090  0.1483
 1294ERGO    R517266   9.024   8.946   7.472  0.0919 -0.3541  0.1487
 1294ERGO    C117267   8.743   8.968   7.729 -0.0833 -0.0690 -0.0615
 1294ERGO    C217268   8.611   9.075   7.798  0.2475  0.4739 -0.2314
 1295ERGO   ROH17269   6.625   9.310   6.688  0.2398 -0.0597  0.0018
 1295ERGO    R117270   6.583   9.073   6.838  0.1557 -0.0811 -0.0566
 1295ERGO    R217271   6.792   8.925   6.945  0.0934 -0.0990  0.0297
 1295ERGO    R317272   6.652   8.959   7.176 -0.0271 -0.1373 -0.0356
 1295ERGO    R417273   6.873   8.783   7.249 -0.0532 -0.1468  0.0483
 1295ERGO    R517274   6.662   8.746   7.284 -0.0751 -0.1583 -0.0650
 1295ERGO    C117275   6.790   8.731   7.643 -0.2518 -0.2106 -0.0021
 1295ERGO    C217276   6.898   8.918   7.883  0.0428  0.1014  0.2346
 1296ERGO   ROH17277   5.574  14.883   6.629  0.2030 -0.0776  0.1537
 1296ERGO    R117278   5.670  14.872   6.896  0.1251  0.0011  0.1853
 1296ERGO    R217279   5.742  15.099   7.037  0.0856  0.0434  0.1394
 1296ERGO    R317280   5.565  15.002   7.219  0.0308  0.0991  0.1161
 1296ERGO    R417281   5.752  15.164   7.376  0.0916 -0.0047  0.1487
 1296ERGO    R517282   5.699  14.956   7.413 -0.0030  0.0153  0.1191
 1296ERGO    C117283   5.592  15.112   7.745  0.0436  0.0195  0.1321
 1296ERGO    C217284   5.633  15.267   8.049 -0.0279 -0.2456  0.0875
 1297ERGO   ROH17285   0.307  14.217  10.186 -0.1635  0.2334 -0.0237
 1297ERGO    R117286   0.157  14.295   9.958 -0.0216  0.3365 -0.0837
 1297ERGO    R217287   0.259  14.461   9.762  0.2358  0.1230 -0.1382
 1297ERGO    R317288   0.186  14.258   9.597 -0.0021  0.1449 -0.0630
 1297ERGO    R417289   0.282  14.469   9.417  0.1458  0.0041 -0.1472
 1297ERGO    R517290   0.089  14.367   9.407  0.0473  0.1824 -0.0653
 1297ERGO    C117291   0.227  14.282   9.062 -0.1300 -0.0444 -0.0818
 1297ERGO    C217292   0.200  14.335   8.735 -0.2082 -0.1504 -0.2024
 1298ERGO   ROH17293  17.905   2.744   5.975 -0.1110  0.1406  0.0365
 1298ERGO    R117294  17.914   2.700   6.254  0.0594  0.0433  0.0158
 1298ERGO    R217295  17.723   2.800   6.427  0.1885  0.0124  0.1670
 1298ERGO    R317296  17.703   2.540   6.504  0.1948 -0.0095  0.1011
 1298ERGO    R417297  17.514   2.684   6.676  0.1261 -0.0534  0.0860
 1298ERGO    R517298  17.674   2.551   6.741  0.1287 -0.0571  0.1020
 1298ERGO    C117299  17.373   2.373   6.893  0.0957 -0.1122 -0.0231
 1298ERGO    C217300  17.247   2.172   7.035  0.1735  0.2388  0.1738
 1299ERGO   ROH17301   3.807   9.082  10.293  0.3049  0.0734 -0.0446
 1299ERGO    R117302   3.726   9.079  10.022  0.3835 -0.0838 -0.0649
 1299ERGO    R217303   3.723   9.305   9.865  0.0791 -0.1101 -0.0815
 1299ERGO    R317304   3.876   9.155   9.699  0.3553  0.1082 -0.0384
 1299ERGO    R417305   3.727   9.334   9.520 -0.1368 -0.3120 -0.1054
 1299ERGO    R517306   3.737   9.116   9.508  0.3389 -0.3247  0.0381
 1299ERGO    C117307   3.874   9.209   9.164 -0.0032 -0.2247 -0.0790
 1299ERGO    C217308   3.872   9.356   8.817 -0.1842 -0.1576  0.0931
 1300ERGO   ROH17309  12.968   2.552  10.478  0.2520 -0.1373 -0.0425
 1300ERGO    R117310  12.866   2.689  10.252 -0.0023 -0.0793  0.1021
 1300ERGO    R217311  13.017   2.736  10.026 -0.1579  0.2395  0.0511
 1300ERGO    R317312  12.810   2.613   9.901 -0.0948  0.1077  0.0776
 1300ERGO    R417313  12.975   2.719   9.684 -0.1374  0.0930  0.0564
 1300ERGO    R517314  12.762   2.753   9.713 -0.1460  0.0112  0.0262
 1300ERGO    C117315  12.755   2.593   9.367 -0.0663 -0.1161  0.0841
 1300ERGO    C217316  12.874   2.523   9.018  0.1293 -0.2904 -0.0624
 1301ERGO   ROH17317  11.118  13.874  10.557 -0.0839 -0.0277  0.0427
 1301ERGO    R117318  11.077  13.733  10.315  0.0161 -0.1049  0.0700
 1301ERGO    R217319  10.880  13.803  10.133  0.0073 -0.2415  0.0261
 1301ERGO    R317320  11.089  13.810   9.959  0.0280 -0.1832  0.0534
 1301ERGO    R417321  10.852  13.809   9.788  0.0395  0.2137  0.0249
 1301ERGO    R517322  11.020  13.672   9.777 -0.0639  0.0962 -0.1305
 1301ERGO    C117323  11.032  13.819   9.425  0.0776  0.5335  0.0498
 1301ERGO    C217324  11.032  13.772   9.108 -0.1321 -0.1366  0.1889
 1302ERGO   ROH17325  16.107  16.152  10.339 -0.2372  0.0414  0.3070
 1302ERGO    R117326  15.875  16.129  10.178 -0.1444 -0.0738  0.1914
 1302ERGO    R217327  15.834  16.284   9.953 -0.1638 -0.0095  0.2504
 1302ERGO    R317328  15.802  16.043   9.832  0.0765  0.0201  0.1162
 1302ERGO    R417329  15.704  16.238   9.636 -0.3219  0.0435  0.3054
 1302ERGO    R517330  15.596  16.064   9.711 -0.0462 -0.1617  0.2727
 1302ERGO    C117331  15.597  15.984   9.338 -0.1884  0.1020  0.2114
 1302ERGO    C217332  15.582  15.933   9.007  0.0902  0.1435 -0.0437
 1303ERGO   ROH17333  17.352  15.548   6.585 -0.1016  0.0368  0.0775
 1303ERGO    R117334  17.233  15.528   6.842 -0.0206 -0.1040  0.1047
 1303ERGO    R217335  17.303  15.331   7.023  0.1894 -0.0768  0.0554
 1303ERGO    R317336  17.347  15.543   7.187  0.0549 -0.0666  0.0788
 1303ERGO    R417337  17.413  15.308   7.349  0.2171 -0.0447  0.0483
 1303ERGO    R517338  17.274  15.467   7.402  0.1123 -0.1421  0.0727
 1303ERGO    C117339  17.519  15.494   7.694  0.1067 -0.0164  0.0662
 1303ERGO    C217340  17.600  15.222   8.051 -0.3052 -0.0226 -0.1910
 1304ERGO   ROH17341  16.845  13.542  10.520  0.1149 -0.0083 -0.0991
 1304ERGO    R117342  16.721  13.509  10.268  0.0471  0.0869 -0.0772
 1304ERGO    R217343  16.611  13.720  10.127  0.2928  0.1885 -0.1062
 1304ERGO    R317344  16.775  13.632   9.929  0.1589 -0.0545 -0.1147
 1304ERGO    R417345  16.531  13.719   9.791  0.2172  0.2085 -0.0896
 1304ERGO    R517346  16.627  13.524   9.774 -0.0100  0.0789 -0.0611
 1304ERGO    C117347  16.638  13.635   9.409  0.0477 -0.0080 -0.0878
 1304ERGO    C217348  16.579  13.716   9.028  0.2284 -0.2059  0.0932
 1305ERGO   ROH17349   1.464   5.707   9.541 -0.2309  0.1071  0.1824
 1305ERGO    R117350   1.570   5.772   9.287 -0.1361 -0.0069  0.1921
 1305ERGO    R217351   1.458   5.682   9.051 -0.1615  0.0435  0.1835
 1305ERGO    R317352   1.456   5.947   8.989  0.0464  0.0382  0.1478
 1305ERGO    R417353   1.449   5.809   8.730  0.0187  0.0131  0.1654
 1305ERGO    R517354   1.591   5.962   8.792  0.1116 -0.0823  0.1836
 1305ERGO    C117355   1.442   6.132   8.484  0.3188 -0.0096  0.1214
 1305ERGO    C217356   1.545   6.397   8.182  0.6358 -0.2305 -0.0851
 1306ERGO   ROH17357   2.517   3.889   6.104  0.0081  0.1979 -0.0938
 1306ERGO    R117358   2.542   3.738   6.343 -0.1895  0.0424 -0.1703
 1306ERGO    R217359   2.633   3.847   6.579  0.1235 -0.2355 -0.1623
 1306ERGO    R317360   2.400   3.748   6.678 -0.0376  0.1740 -0.1063
 1306ERGO    R417361   2.561   3.809   6.915  0.3161 -0.4678 -0.1443
 1306ERGO    R517362   2.466   3.618   6.868 -0.1640 -0.2142 -0.3093
 1306ERGO    C117363   2.300   3.693   7.203  0.2770 -0.2186 -0.0813
 1306ERGO    C217364   2.187   3.731   7.613  0.1693  0.0828 -0.0200
 1307ERGO   ROH17365   9.930  11.295  10.447 -0.1469 -0.0817 -0.1185
 1307ERGO    R117366   9.825  11.355  10.192 -0.0510 -0.0447 -0.1504
 1307ERGO    R217367   9.914  11.568  10.040 -0.0317  0.0102 -0.0635
 1307ERGO    R317368   9.952  11.376   9.852  0.0897  0.0624 -0.0919
 1307ERGO    R417369   9.923  11.625   9.700 -0.1468  0.0606 -0.0580
 1307ERGO    R517370   9.810  11.441   9.671 -0.0017 -0.0323 -0.0557
 1307ERGO    C117371   9.964  11.478   9.324 -0.0996  0.1389 -0.0815
 1307ERGO    C217372  10.000  11.507   8.925  0.1086  0.1980 -0.0583
 1308ERGO   ROH17373   0.465  18.166  10.064 -0.1539 -0.0437  0.0806
 1308ERGO    R117374   0.364  18.055   9.824 -0.2764  0.1309  0.0497
 1308ERGO    R217375   0.298  18.210   9.605  0.1200  0.2486  0.0059
 1308ERGO    R317376   0.467  18.041   9.475 -0.1529 -0.1047  0.0931
 1308ERGO    R417377   0.274  18.126   9.271  0.2129  0.4395 -0.0501
 1308ERGO    R517378   0.326  17.920   9.324 -0.3145  0.2840 -0.0802
 1308ERGO    C117379   0.419  17.919   8.954  0.0109  0.2190 -0.0007
 1308ERGO    C217380   0.361  18.051   8.610  0.0174 -0.3756  0.1253
 1309ERGO   ROH17381  15.046   6.051   9.199  0.2447  0.0186 -0.0076
 1309ERGO    R117382  15.007   5.960   8.933  0.0845  0.1304 -0.0240
 1309ERGO    R217383  14.956   6.131   8.724  0.2404  0.2456  0.0314
 1309ERGO    R317384  15.170   6.007   8.611  0.0751  0.0240 -0.0448
 1309ERGO    R417385  15.024   6.123   8.385  0.2387  0.3856  0.0271
 1309ERGO    R517386  15.084   5.914   8.407 -0.0493  0.2810 -0.1129
 1309ERGO    C117387  15.263   6.001   8.082  0.0823  0.2592 -0.0470
 1309ERGO    C217388  15.314   5.968   7.628 -0.1191 -0.0654  0.2718
 1310ERGO   ROH17389   1.469   9.684  10.349 -0.1066 -0.0020 -0.0073
 1310ERGO    R117390   1.414   9.796  10.095 -0.1058 -0.0102 -0.0110
 1310ERGO    R217391   1.562  10.005   9.990 -0.1999  0.0872  0.0472
 1310ERGO    R317392   1.592   9.835   9.780 -0.0449  0.1229  0.0394
 1310ERGO    R417393   1.589  10.103   9.659 -0.1713  0.1289  0.0615
 1310ERGO    R517394   1.462   9.934   9.604 -0.0570  0.0595  0.0140
 1310ERGO    C117395   1.633  10.000   9.270 -0.0091  0.1867  0.0626
 1310ERGO    C217396   1.675  10.022   8.978  0.1077  0.2336 -0.1911
 1311ERGO   ROH17397  10.611  14.026   6.636  0.2038  0.0832  0.0807
 1311ERGO    R117398  10.490  13.914   6.866  0.1455  0.1915  0.1039
 1311ERGO    R217399  10.516  13.648   6.934 -0.2052  0.1271  0.0182
 1311ERGO    R317400  10.603  13.750   7.171  0.0513 -0.0563  0.0063
 1311ERGO    R417401  10.437  13.520   7.246 -0.3095  0.2083  0.0247
 1311ERGO    R517402  10.417  13.725   7.319  0.0591  0.2330  0.0674
 1311ERGO    C117403  10.472  13.542   7.649 -0.1294  0.0833  0.0174
 1311ERGO    C217404  10.271  13.420   7.976  0.3675  0.0664 -0.1403
 1312ERGO   ROH17405  10.143  17.038  10.112 -0.0193 -0.0601  0.0158
 1312ERGO    R117406  10.116  16.911   9.861  0.0088 -0.0740  0.0201
 1312ERGO    R217407   9.889  16.934   9.706  0.0220 -0.0911 -0.0017
 1312ERGO    R317408  10.066  17.015   9.516  0.0365 -0.0937  0.0103
 1312ERGO    R417409   9.837  16.907   9.366 -0.0622  0.1423 -0.0093
 1312ERGO    R517410  10.046  16.849   9.344 -0.1043  0.0193 -0.0843
 1312ERGO    C117411   9.973  16.967   8.989 -0.0977  0.2755 -0.0025
 1312ERGO    C217412  10.041  17.001   8.629  0.1793 -0.0756  0.1533
 1313ERGO   ROH17413  10.126  11.732   6.793 -0.2446 -0.0483  0.0872
 1313ERGO    R117414  10.189  11.494   6.933 -0.2127 -0.1287 -0.0610
 1313ERGO    R217415  10.240  11.491   7.205  0.2049 -0.2255 -0.1342
 1313ERGO    R317416  10.044  11.303   7.207  0.0541 -0.0722  0.1242
 1313ERGO    R417417  10.194  11.255   7.453  0.2812 -0.1210 -0.0196
 1313ERGO    R517418  10.149  11.108   7.299  0.0006 -0.1298  0.0656
 1313ERGO    C117419   9.984  10.941   7.600  0.1841  0.0838  0.2898
 1313ERGO    C217420   9.935  10.652   7.839  0.1133 -0.0991  0.1128
 1314ERGO   ROH17421  15.010  17.532   6.591 -0.0633  0.0649 -0.0469
 1314ERGO    R117422  14.926  17.360   6.799  0.0865  0.1452  0.0812
 1314ERGO    R217423  15.010  17.391   7.061  0.0138  0.4513  0.0687
 1314ERGO    R317424  14.743  17.394   7.112 -0.0003  0.2085  0.0253
 1314ERGO    R417425  14.864  17.293   7.359  0.0602  0.3326  0.0537
 1314ERGO    R517426  14.705  17.198   7.245  0.1621  0.1766  0.0314
 1314ERGO    C117427  14.529  17.239   7.580  0.0739  0.0356  0.0042
 1314ERGO    C217428  14.480  17.358   7.860 -0.0368  0.1911 -0.2214
 1315ERGO   ROH17429  15.966   0.789   6.676 -0.1631  0.0242  0.0180
 1315ERGO    R117430  16.017   0.836   6.950 -0.0536 -0.0478  0.0111
 1315ERGO    R217431  16.257   0.936   7.043 -0.0469  0.0116 -0.0672
 1315ERGO    R317432  16.098   1.123   7.159 -0.0640 -0.0857  0.0674
 1315ERGO    R417433  16.339   1.117   7.326  0.1203  0.1213 -0.1843
 1315ERGO    R517434  16.134   1.093   7.394  0.2068 -0.0194  0.0375
 1315ERGO    C117435  16.238   1.397   7.600  0.2013  0.0939 -0.1262
 1315ERGO    C217436  16.173   1.709   7.642 -0.1550  0.2473  0.1641
 1316ERGO   ROH17437   4.201   4.733   6.561 -0.2483 -0.0995 -0.0780
 1316ERGO    R117438   4.036   4.963   6.563 -0.1315 -0.0151  0.0370
 1316ERGO    R217439   3.857   5.016   6.767 -0.1136 -0.0329  0.0573
 1316ERGO    R317440   3.990   5.253   6.777  0.0073 -0.1046  0.1908
 1316ERGO    R417441   3.782   5.275   6.982 -0.1940  0.0090 -0.0204
 1316ERGO    R517442   3.818   5.415   6.819  0.0501 -0.0105  0.0141
 1316ERGO    C117443   3.862   5.649   7.118 -0.1274 -0.0340  0.0596
 1316ERGO    C217444   3.997   5.765   7.435 -0.1624 -0.1666  0.0080
 1317ERGO   ROH17445  18.033  17.893   6.274  0.1189 -0.0910  0.1172
 1317ERGO    R117446  18.148  18.049   6.480  0.2238 -0.1662  0.1173
 1317ERGO    R217447  18.002  18.233   6.625  0.3921  0.0924 -0.0301
 1317ERGO    R317448  18.097  18.093   6.837  0.0892  0.0371  0.0748
 1317ERGO    R417449  17.970  18.329   6.956  0.0599  0.0845 -0.0569
 1317ERGO    R517450  18.174  18.261   6.990 -0.0082 -0.0082  0.1724
 1317ERGO    C117451  18.041  18.253   7.348 -0.4180  0.0283  0.0259
 1317ERGO    C217452  17.921  18.300   7.710 -0.0475 -0.1097  0.1971
 1318ERGO   ROH17453  17.775   6.217   9.537  0.1785  0.0070 -0.0325
 1318ERGO    R117454  17.742   6.200   9.256  0.1080 -0.0466 -0.0220
 1318ERGO    R217455  17.616   6.398   9.109  0.1293 -0.0423 -0.0380
 1318ERGO    R317456  17.847   6.393   8.966  0.0956 -0.1409 -0.0891
 1318ERGO    R417457  17.642   6.480   8.775  0.1124  0.0733 -0.0107
 1318ERGO    R517458  17.781   6.314   8.750 -0.0047 -0.0104 -0.1067
 1318ERGO    C117459  17.874   6.524   8.445  0.0707  0.0481 -0.0427
 1318ERGO    C217460  17.972   6.462   8.180 -0.0702 -0.0925 -0.1155
 1319ERGO   ROH17461   2.314   9.020  10.357 -0.0558  0.0080  0.0252
 1319ERGO    R117462   2.295   8.969  10.079  0.0502 -0.0760  0.0328
 1319ERGO    R217463   2.074   9.041   9.929  0.0160 -0.3084 -0.0338
 1319ERGO    R317464   2.260   9.167   9.776 -0.0613 -0.1783 -0.0213
 1319ERGO    R417465   2.074   9.045   9.584 -0.0116 -0.2284 -0.0331
 1319ERGO    R517466   2.291   9.021   9.588 -0.0002 -0.1181 -0.0570
 1319ERGO    C117467   2.247   9.166   9.238 -0.1002 -0.0597 -0.0209
 1319ERGO    C217468   2.298   9.211   8.901  0.0423 -0.4556  0.0630
 1320ERGO   ROH17469  13.886  16.461   6.704 -0.0758 -0.1655 -0.0935
 1320ERGO    R117470  13.876  16.404   6.981  0.0900 -0.1911 -0.0917
 1320ERGO    R217471  14.098  16.419   7.145  0.1208  0.1251 -0.1597
 1320ERGO    R317472  13.939  16.584   7.291 -0.0769 -0.1067 -0.1048
 1320ERGO    R417473  14.075  16.416   7.490  0.2305  0.0702 -0.1523
 1320ERGO    R517474  13.860  16.447   7.471  0.1733 -0.2368 -0.0867
 1320ERGO    C117475  13.913  16.570   7.828  0.1087 -0.1795 -0.0965
 1320ERGO    C217476  14.064  16.495   8.159 -0.0621 -0.1846 -0.0983
 1321ERGO   ROH17477  13.294   6.338   6.294 -0.0690 -0.1111 -0.0875
 1321ERGO    R117478  13.321   6.255   6.563  0.0551 -0.0813 -0.0906
 1321ERGO    R217479  13.346   6.433   6.773 -0.0822 -0.0533 -0.0994
 1321ERGO    R317480  13.134   6.295   6.872  0.0650 -0.2562 -0.0604
 1321ERGO    R417481  13.270   6.405   7.108 -0.0181 -0.0903 -0.0873
 1321ERGO    R517482  13.218   6.196   7.074  0.1879 -0.1495 -0.0567
 1321ERGO    C117483  13.026   6.259   7.398  0.1571 -0.3024 -0.0437
 1321ERGO    C217484  13.112   6.141   7.583  0.3205 -0.1965 -0.1928
 1322ERGO   ROH17485  17.110   3.624   9.262 -0.1342  0.3013 -0.0915
 1322ERGO    R117486  17.126   3.473   9.023 -0.1656  0.1611 -0.0070
 1322ERGO    R217487  16.980   3.537   8.797 -0.1109  0.0962 -0.0631
 1322ERGO    R317488  17.224   3.534   8.678 -0.0960 -0.0700 -0.0293
 1322ERGO    R417489  17.040   3.439   8.471 -0.1257  0.0172 -0.0418
 1322ERGO    R517490  17.221   3.339   8.540 -0.1970 -0.0856 -0.0043
 1322ERGO    C117491  17.304   3.380   8.170 -0.1203 -0.1849  0.0024
 1322ERGO    C217492  17.457   3.136   7.913  0.3927  0.3075  0.0255
 1323ERGO   ROH17493   2.560  13.604   6.959 -0.1204 -0.0238  0.0947
 1323ERGO    R117494   2.629  13.630   7.233 -0.0550 -0.0371  0.0801
 1323ERGO    R217495   2.440  13.651   7.433 -0.0106 -0.1328  0.1377
 1323ERGO    R317496   2.574  13.440   7.538  0.0946 -0.1006  0.0674
 1323ERGO    R417497   2.488  13.594   7.771  0.0124 -0.2324  0.1172
 1323ERGO    R517498   2.690  13.529   7.726  0.0432 -0.1121  0.1009
 1323ERGO    C117499   2.641  13.361   8.065  0.1244 -0.2601  0.0394
 1323ERGO    C217500   2.677  13.286   8.353 -0.1895 -0.0420  0.0736
 1324ERGO   ROH17501   0.946   4.094   9.299 -0.1145 -0.2204 -0.0374
 1324ERGO    R117502   0.999   4.142   9.025  0.0393 -0.2007 -0.0058
 1324ERGO    R217503   1.122   3.956   8.862 -0.0508 -0.2706  0.0017
 1324ERGO    R317504   0.902   3.994   8.707  0.0412 -0.0462 -0.0788
 1324ERGO    R417505   1.114   3.919   8.519  0.0794 -0.0569 -0.0267
 1324ERGO    R517506   0.987   4.095   8.507  0.1906  0.0248  0.0206
 1324ERGO    C117507   0.902   3.932   8.173  0.2416  0.2782 -0.1187
 1324ERGO    C217508   0.991   3.815   7.835 -0.0173 -0.0808  0.3134
 1325W        W17509   7.033   0.619  15.187 -0.0620 -0.0783 -0.1430
 1326W        W17510  12.514   6.404  12.213  0.4824 -0.0432 -0.2780
 1327W        W17511   8.122  17.234   1.360  0.2935  0.2701  0.3944
 1328W        W17512   7.948  13.081  14.125  0.1183  0.0615  0.1972
 1329W        W17513  18.077   6.423  15.804  0.0314 -0.0789  0.0255
 1330W        W17514  14.497   8.996  15.262  0.3563 -0.2277 -0.0187
 1331W        W17515   1.988   7.056  13.865 -0.1391  0.1498  0.0727
 1332W        W17516   5.959  10.481   1.426  0.1949 -0.2212 -0.3655
 1333W        W17517   6.474   7.714  13.951 -0.0980 -0.3547 -0.0678
 1334W        W17518   3.908   4.075   0.306  0.1355 -0.1680  0.0329
 1335W        W17519  12.667   7.466  15.286 -0.1392  0.0764  0.4260
 1336W        W17520   3.254   7.953   3.466  0.1615  0.1822 -0.0655
 1337W        W17521   1.249  13.275   0.435 -0.2047  0.0270  0.2889
 1338W        W17522   5.026  18.062   5.665 -0.0937 -0.1001  0.2260
 1339W        W17523  10.880   3.370   4.380  0.2464  0.0410 -0.3117
 1340W        W17524  14.044   9.228   3.899 -0.0407 -0.1147  0.0937
 1341W        W17525   6.070  14.209   4.327 -0.0402  0.0109  0.0294
 1342W        W17526  11.233  16.608  15.811 -0.1076  0.4134 -0.2174
 1343W        W17527  11.752   8.937   5.036  0.1636 -0.0847  0.0176
 1344W        W17528   1.666   7.874  11.947  0.1365  0.0058  0.3239
 1345W        W17529   0.670   1.557  10.683 -0.2014  0.1480  0.2536
 1346W        W17530  10.917   7.031   5.711 -0.0078 -0.0229 -0.3133
 1347W        W17531   8.210  10.798  12.811  0.1560  0.1666 -0.2273
 1348W        W17532   7.654   8.379  14.603 -0.1731  0.1464  0.3048
 1349W        W17533  17.483   0.974   2.085  0.0456  0.1390 -0.1247
 1350W        W17534  16.730   7.295   0.758  0.0119  0.0694  0.0007
 1351W        W17535  12.786   0.083  13.117  0.2277  0.1311  0.3872
 1352W        W17536  12.766  16.780  12.851 -0.1761 -0.0495 -0.0511
 1353W        W17537  15.050   2.280  15.091 -0.1250 -0.1348  0.0600
 1354W        W17538  13.737   0.456   3.202 -0.1701  0.3206 -0.1499
 1355W        W17539   7.423  10.056   1.230  0.1066 -0.1070 -0.1263
 1356W        W17540   6.015   5.500   2.778 -0.1602  0.0326  0.3072
 1357W        W17541   6.482   3.079   4.885  0.1549  0.0932  0.3626
 1358W        W17542  15.277  10.914  14.405  0.3694  0.1221  0.1963
 1359W        W17543   7.820  17.166  16.054  0.2521 -0.1348  0.0869
 1360W        W17544   5.678  13.090  11.981  0.0268  0.1511 -0.0202
 1361W        W17545  12.273  12.393  14.439  0.3607  0.1230 -0.0621
 1362W        W17546   4.377   4.306   3.634  0.2153 -0.1639 -0.1314
 1363W        W17547  14.373   3.247  14.951 -0.0902 -0.2590  0.1512
 1364W        W17548   4.724  16.960  12.636 -0.1157  0.1187  0.0058
 1365W        W17549  18.055  10.784  15.208  0.0636 -0.0585  0.0507
 1366W        W17550   2.947  18.083  11.779  0.3424 -0.2591 -0.1133
 1367W        W17551  12.501  16.509  12.117  0.3755 -0.0089  0.0314
 1368W        W17552   0.079   0.222   2.056 -0.0864  0.0436 -0.0767
 1369W        W17553  12.559   2.356  15.022  0.1495 -0.4077  0.5487
 1370W        W17554   7.169   5.435   2.657  0.2168 -0.1155  0.0098
 1371W        W17555  11.768  12.778  13.719  0.1617  0.2488  0.0860
 1372W        W17556  11.066  16.590   6.203 -0.4153 -0.1117 -0.0454
 1373W        W17557   3.155  12.263   2.507 -0.0825  0.1233  0.4340
 1374W        W17558   5.411   1.367   5.053 -0.0434  0.0001  0.0287
 1375W        W17559   3.722  13.189   2.608 -0.3060 -0.0959  0.0931
 1376W        W17560  15.385  14.152  11.838  0.0364  0.3881  0.1989
 1377W        W17561  15.403   4.670  13.619  0.0850  0.1998 -0.2815
 1378W        W17562   2.738  16.951   3.694  0.1467 -0.1120  0.1579
 1379W        W17563   6.053  10.488  14.335 -0.1871 -0.3797 -0.0143
 1380W        W17564   1.743   9.561   5.662 -0.0886  0.1940  0.0593
 1381W        W17565  12.995  15.118  14.555  0.2093  0.0646 -0.2112
 1382W        W17566  14.693  10.668  11.941  0.0598 -0.0139 -0.1133
 1383W        W17567  12.576   1.869   1.969  0.2671  0.3638 -0.0150
 1384W        W17568  16.142   9.666  13.879 -0.1007 -0.0364  0.2861
 1385W        W17569  12.062   0.267   4.163 -0.1044 -0.3435  0.2489
 1386W        W17570   7.894  11.568   0.892 -0.1022  0.2890  0.1501
 1387W        W17571   2.673  17.296  11.704 -0.4117 -0.1318 -0.1026
 1388W        W17572  12.334   6.180   2.861  0.1182  0.2561 -0.0595
 1389W        W17573   5.848  12.992  15.141  0.2095 -0.0104  0.1419
 1390W        W17574  17.477  13.565   4.674 -0.2741  0.1053 -0.3515
 1391W        W17575   6.374   8.770   2.466 -0.1103  0.0165 -0.3672
 1392W        W17576  10.603   3.806   5.039  0.0503 -0.0060 -0.1029
 1393W        W17577  16.841  16.449  11.681 -0.1619  0.0524 -0.3062
 1394W        W17578   7.436   5.326   3.877 -0.1600  0.2000 -0.0396
 1395W        W17579   6.906   4.205   4.360 -0.0812 -0.0064 -0.2884
 1396W        W17580   6.264   7.850  11.885 -0.0966  0.2396  0.0346
 1397W        W17581   8.097   9.217  14.498 -0.0305  0.0131  0.1100
 1398W        W17582   5.250  14.013   3.260  0.1164  0.0960  0.1022
 1399W        W17583  13.996   4.513   4.570 -0.1413 -0.2519  0.2223
 1400W        W17584   4.539  16.838   3.713  0.1907  0.0045  0.0804
 1401W        W17585   3.704  15.252   5.752 -0.0962 -0.1193 -0.0276
 1402W        W17586   1.454   9.146   5.687  0.1568  0.1335 -0.1274
 1403W        W17587   8.012  18.030   0.478 -0.0177 -0.3021 -0.0388
 1404W        W17588   8.599   5.570   4.617  0.0252 -0.5127 -0.4309
 1405W        W17589  13.362   1.852  13.419  0.4786  0.1695 -0.1664
 1406W        W17590   6.019  14.297   2.746 -0.3153 -0.0166  0.0783
 1407W        W17591   3.639   4.425   2.236  0.0013 -0.5097 -0.2822
 1408W        W17592  11.037  15.503  11.763  0.1464 -0.2265  0.2525
 1409W        W17593  10.667  14.397   0.381  0.0974 -0.1557 -0.0085
 1410W        W17594  16.667   8.684  11.905 -0.1607  0.1682 -0.3098
 1411W        W17595  13.692   5.929   5.091 -0.1795 -0.0563 -0.0311
 1412W        W17596   5.548   4.793  11.951  0.1709  0.0139  0.1440
 1413W        W17597   0.696   8.561   2.902  0.2635 -0.3032  0.2681
 1414W        W17598   9.952   0.837   4.699  0.0253 -0.0605  0.1769
 1415W        W17599   0.090  15.093   5.475  0.0515  0.1592  0.0318
 1416W        W17600  18.014   3.248   0.893 -0.1315 -0.1463  0.0401
 1417W        W17601  15.133  10.674   4.199 -0.1793  0.0803  0.0869
 1418W        W17602   8.038   6.773  12.052  0.0227 -0.1816 -0.1157
 1419W        W17603   6.361  17.838   3.214  0.1778 -0.1381 -0.0520
 1420W        W17604   8.572   8.865  13.190 -0.0370  0.0908  0.1108
 1421W        W17605   3.552  12.620   3.800  0.1329  0.1377 -0.0167
 1422W        W17606  16.318  16.869   4.222 -0.1065  0.0089 -0.2278
 1423W        W17607   9.647   7.511   2.047  0.0661  0.0383 -0.0693
 1424W        W17608  13.372  11.141  15.045  0.0474  0.1702 -0.0687
 1425W        W17609   2.676   3.265   0.654  0.0788  0.1351  0.0453
 1426W        W17610  13.702   3.076   1.979  0.3061  0.0962 -0.3669
 1427W        W17611   3.753   4.702  12.621 -0.0943  0.3996  0.2246
 1428W        W17612  14.048   0.286  14.329 -0.0922 -0.0333  0.0778
 1429W        W17613   4.270  11.239   5.289 -0.1725 -0.1732 -0.0091
 1430W        W17614   3.791  16.083   5.586 -0.1532 -0.1207  0.1775
 1431W        W17615  14.519  15.644  12.720 -0.0725 -0.1272  0.4495
 1432W        W17616  12.515   5.250  12.491  0.0842  0.2029 -0.0997
 1433W        W17617  17.705   4.893  16.500  0.3522  0.0858  0.1375
 1434W        W17618   0.827   7.633   2.440 -0.1885 -0.0150  0.4664
 1435W        W17619   2.438   6.532   4.532  0.1679  0.1386  0.0941
 1436W        W17620   7.426   7.277  15.000 -0.1706 -0.1871  0.0645
 1437W        W17621  17.397  16.201   1.971  0.0725  0.1950  0.3094
 1438W        W17622   2.366   7.823  13.312  0.0909  0.0542 -0.0001
 1439W        W17623  13.726   9.849   3.685  0.0165 -0.1099  0.2670
 1440W        W17624   7.438  17.058   1.999 -0.3290 -0.0845 -0.1168
 1441W        W17625  13.689   4.179  13.315  0.2044 -0.2300 -0.0785
 1442W        W17626   9.399   3.132  13.174 -0.0130  0.1374 -0.3026
 1443W        W17627  17.058  11.055   5.331  0.1050 -0.0425  0.3228
 1444W        W17628   6.699  14.792   0.066 -0.1769  0.2833  0.2363
 1445W        W17629   2.895  14.421  16.578 -0.1880  0.2326  0.0433
 1446W        W17630   4.224   6.554   3.926  0.1374 -0.0546 -0.0427
 1447W        W17631  12.791  15.536  12.451  0.0979 -0.1077 -0.1149
 1448W        W17632   6.714  11.715  14.645 -0.1573 -0.0065  0.2303
 1449W        W17633  12.549  11.873   4.355 -0.0551  0.0365 -0.4532
 1450W        W17634  16.946   9.201  14.462  0.0861  0.2145 -0.1088
 1451W        W17635  13.160   1.610  15.463  0.2868  0.0609  0.3961
 1452W        W17636  10.185   4.820   5.078 -0.2065  0.3110 -0.0425
 1453W        W17637   1.647   7.744  14.550  0.0943 -0.0667  0.0582
 1454W        W17638   5.825   7.394   3.490  0.2165 -0.1583 -0.1175
 1455W        W17639   0.779   5.068  12.384 -0.1477 -0.0528 -0.1185
 1456W        W17640   4.501  13.656   2.616 -0.0706  0.1534 -0.2226
 1457W        W17641   0.942  17.895   1.603  0.0240 -0.0171 -0.0438
 1458W        W17642  17.263   2.705  15.240  0.0498 -0.1252  0.2028
 1459W        W17643   5.478   4.994  13.698  0.0461  0.1872  0.0297
 1460W        W17644  13.721   7.828  10.908 -0.1426  0.2405 -0.0452
 1461W        W17645  11.689   6.731   4.385 -0.1806 -0.2322  0.0266
 1462W        W17646   4.425  14.825   2.022  0.2079 -0.0577 -0.3484
 1463W        W17647   6.351  15.147   4.134  0.3100 -0.1184  0.2634
 1464W        W17648   3.282   8.438   4.295 -0.0428  0.1882 -0.3656
 1465W        W17649  15.817  16.605   0.027 -0.2363  0.1098  0.1725
 1466W        W17650   0.541  15.692   4.643  0.0046 -0.0990 -0.1221
 1467W        W17651  15.500   3.355  11.912 -0.1896  0.3607 -0.1258
 1468W        W17652  17.578   0.786  16.141  0.0849 -0.1920 -0.0732
 1469W        W17653   1.876  18.061  15.596  0.1246  0.2687 -0.2931
 1470W        W17654  13.292   5.978   3.733  0.0960 -0.0886 -0.2763
 1471W        W17655   1.430   1.826  15.954 -0.0822 -0.3950 -0.4132
 1472W        W17656  11.445   4.797  13.202 -0.0334 -0.0474 -0.0461
 1473W        W17657   7.145  17.663   4.373 -0.1953  0.3148 -0.1616
 1474W        W17658  15.234   4.581   5.710 -0.3067 -0.5575  0.3015
 1475W        W17659  10.464   4.128   2.742  0.2223 -0.3644  0.0069
 1476W        W17660   8.256  11.379   4.932 -0.0755 -0.0054 -0.1139
 1477W        W17661  17.231   5.082   3.209  0.0696 -0.0498 -0.0985
 1478W        W17662   8.161  12.217  12.915 -0.1863  0.0991  0.3689
 1479W        W17663  15.022   4.666  13.373  0.2650  0.1423  0.1117
 1480W        W17664  11.890   5.208  15.778  0.0011 -0.0902 -0.2796
 1481W        W17665   7.302   1.811   5.104  0.0325 -0.4450 -0.0306
 1482W        W17666   5.771   0.631   2.511  0.0311 -0.0052  0.0341
 1483W        W17667   1.922   0.550   2.262 -0.1190  0.0360  0.3619
 1484W        W17668   7.913  16.873  14.368 -0.2513 -0.1051 -0.0703
 1485W        W17669  15.597   3.582  15.827 -0.0852 -0.1506  0.2773
 1486W        W17670   3.465   0.355   5.165  0.2090 -0.0309 -0.1055
 1487W        W17671  10.868   3.074   2.025  0.0493  0.0030  0.0926
 1488W        W17672   6.580  15.710  13.273 -0.0427  0.4000  0.3629
 1489W        W17673   7.919   0.812  12.056  0.1280  0.0605 -0.2127
 1490W        W17674   5.468  13.992  15.615  0.0911  0.0655  0.1158
 1491W        W17675   7.580   4.868   1.866  0.0227  0.1315 -0.1405
 1492W        W17676  15.011  17.694  15.440 -0.1917 -0.2250 -0.1701
 1493W        W17677   3.262   7.294   1.777  0.0098 -0.2096  0.1014
 1494W        W17678   6.350  17.974  11.256 -0.0511 -0.0020  0.3450
 1495W        W17679   8.121   0.435  11.570  0.1605  0.0199 -0.3421
 1496W        W17680   0.543  11.319   0.274 -0.0607 -0.1251 -0.2864
 1497W        W17681   0.627  15.606  13.007 -0.3026  0.0552 -0.0202
 1498W        W17682  14.388   0.704   4.912  0.1457 -0.2830 -0.2154
 1499W        W17683  15.057   2.241  13.799  0.1042 -0.1286  0.2234
 1500W        W17684  11.895  12.924   4.065  0.1728  0.0793 -0.0470
 1501W        W17685  11.222  17.506   1.758 -0.0210 -0.0854 -0.1357
 1502W        W17686   4.555  15.531   0.387 -0.0511 -0.0819  0.0251
 1503W        W17687  13.604  17.047   2.338 -0.1896 -0.1472 -0.0611
 1504W        W17688   1.192  13.629   1.112 -0.2882 -0.3100 -0.2394
 1505W        W17689   0.860   7.899  12.885 -0.0421 -0.0954 -0.2723
 1506W        W17690   3.779   4.409  14.263  0.0376  0.1016 -0.1920
 1507W        W17691   7.382   3.396   3.174  0.3774 -0.0681  0.1222
 1508W        W17692   8.537  14.346  13.057  0.0127 -0.1662 -0.0145
 1509W        W17693  16.400   0.945  13.952  0.3089  0.1979 -0.2636
 1510W        W17694   3.553  10.422   1.898 -0.1120 -0.1626  0.1765
 1511W        W17695  15.710  14.323  14.496  0.0784  0.0816  0.2029
 1512W        W17696   7.745   2.999   3.017  0.3045 -0.0784  0.1568
 1513W        W17697  12.231  15.571   7.012 -0.0476 -0.0171 -0.0753
 1514W        W17698   4.384  11.436   0.043 -0.0180  0.0098 -0.1179
 1515W        W17699   5.296   4.245  14.257 -0.0513  0.3597  0.0980
 1516W        W17700   9.619  11.178  15.464  0.1011 -0.1557 -0.0775
 1517W        W17701  13.930   1.695  13.450  0.1006 -0.0897  0.0380
 1518W        W17702  14.430   6.809   1.041  0.3332  0.2147 -0.0834
 1519W        W17703  12.721   9.668   2.751  0.3495  0.2326  0.0614
 1520W        W17704   0.014   2.673  14.290  0.0355  0.1855  0.2993
 1521W        W17705   9.816   0.256   5.727 -0.0972  0.1884 -0.2107
 1522W        W17706   8.637  15.533   1.407 -0.1513  0.1871  0.2534
 1523W        W17707  11.650  17.572   1.389  0.0976  0.2607  0.1747
 1524W        W17708  17.542   7.591   0.925  0.4371  0.0151 -0.1344
 1525W        W17709   7.859   7.483   0.772 -0.1993  0.0376  0.0098
 1526W        W17710  14.326  14.042  12.332  0.0036  0.1186 -0.3843
 1527W        W17711  17.705   5.047  14.231  0.3781 -0.6000 -0.3365
 1528W        W17712  12.914  15.108   2.950  0.0681  0.1008  0.0581
 1529W        W17713  17.966  11.243  15.085  0.0692  0.3177  0.1479
 1530W        W17714   9.787  16.640   0.231 -0.1925 -0.0352 -0.4131
 1531W        W17715   0.038  10.881   4.017  0.2472 -0.0921 -0.1609
 1532W        W17716  13.427  17.422  12.114 -0.2381 -0.5145  0.0422
 1533W        W17717   5.880   4.965  11.628 -0.1943  0.3595 -0.1133
 1534W        W17718  17.530   3.595  15.687 -0.1460  0.0619 -0.1856
 1535W        W17719  10.897   7.786   3.269  0.2735  0.0615 -0.1804
 1536W        W17720  15.692  17.229   1.562  0.1377  0.5524 -0.1141
 1537W        W17721  11.592  11.732  12.976  0.0549  0.0596 -0.1273
 1538W        W17722  13.260  18.062  13.384  0.2956 -0.0584 -0.3147
 1539W        W17723  15.291  16.871  14.279  0.1608 -0.1438  0.0738
 1540W        W17724   5.609   9.534   4.659 -0.3728 -0.2536  0.0800
 1541W        W17725   9.542   3.280   1.929  0.0704 -0.3101 -0.0936
 1542W        W17726  12.924  10.533  10.504 -0.0691  0.0411  0.0094
 1543W        W17727   2.382   4.137   0.172 -0.0452 -0.0112  0.0937
 1544W        W17728  14.855   2.490  12.507 -0.3629  0.1428 -0.2069
 1545W        W17729  10.699  15.363   0.509 -0.1288  0.2399  0.1234
 1546W        W17730  14.008  10.584   1.242  0.5011  0.4247 -0.0319
 1547W        W17731  16.656  12.612  12.713  0.3569 -0.2697  0.3904
 1548W        W17732   6.056   2.267  11.459 -0.5223  0.5944  0.0947
 1549W        W17733  15.873   5.924  12.635  0.0651 -0.3263 -0.0097
 1550W        W17734   9.017  12.041   4.891 -0.1446 -0.0618  0.2042
 1551W        W17735  16.503  17.500  10.820  0.1128  0.1214  0.0648
 1552W        W17736  17.542   7.983   2.212  0.1069  0.1561  0.1592
 1553W        W17737   4.450  13.213   4.402  0.1061  0.0034 -0.2548
 1554W        W17738  13.615   4.259   1.159 -0.1283  0.1972  0.0062
 1555W        W17739   2.459  12.088  12.218  0.1389  0.2274 -0.3573
 1556W        W17740   7.998   4.479  14.269  0.2007  0.2011 -0.2076
 1557W        W17741   7.010  16.940  16.069 -0.2554  0.4894  0.0298
 1558W        W17742   4.738   2.305  14.434 -0.3985  0.1489 -0.1557
 1559W        W17743   5.848   3.080   0.702  0.1912 -0.3390  0.0445
 1560W        W17744  12.538  11.980   2.348 -0.0197 -0.0188 -0.3939
 1561W        W17745  16.559   2.248   0.058 -0.4219  0.0854 -0.0117
 1562W        W17746   7.217   0.355  11.504 -0.0095  0.1364  0.1717
 1563W        W17747  15.233  10.496  13.984 -0.0230  0.1680 -0.1771
 1564W        W17748   5.447   1.063   2.248 -0.1505 -0.0476  0.1613
 1565W        W17749  14.327   4.310  10.911  0.1843  0.2361 -0.3226
 1566W        W17750  10.114  10.110  14.283  0.2608 -0.1574  0.2207
 1567W        W17751  15.466  11.370   2.927 -0.0053  0.0598 -0.0197
 1568W        W17752  17.447   3.381  10.571 -0.0738  0.1228 -0.2207
 1569W        W17753  13.941   7.755  16.359 -0.0568  0.2008 -0.0237
 1570W        W17754  11.844  11.760   0.707  0.3223  0.1838 -0.2602
 1571W        W17755  10.914   1.763  12.089  0.0515 -0.0157 -0.0708
 1572W        W17756  12.042   8.896   5.553 -0.1603 -0.3504 -0.1319
 1573W        W17757  13.699  14.841   0.306 -0.1623  0.0657  0.1961
 1574W        W17758  13.580   4.034   4.581  0.1670  0.0674 -0.0342
 1575W        W17759   0.921  17.166   3.427 -0.0398  0.1818  0.2236
 1576W        W17760  17.378   5.371   1.090  0.0416 -0.2209 -0.2476
 1577W        W17761   4.177   4.094  14.398 -0.0999 -0.1937 -0.4656
 1578W        W17762  16.723   4.755  14.244  0.1582  0.0596 -0.3294
 1579W        W17763  17.686  11.748  13.006 -0.3244  0.0246  0.0122
 1580W        W17764  14.520  16.748   2.034 -0.0124 -0.0151 -0.0000
 1581W        W17765  15.456  13.836  13.755  0.0108  0.0377  0.0241
 1582W        W17766   2.892  15.178   4.767  0.1605 -0.0608  0.2002
 1583W        W17767   1.785   3.659  11.209 -0.5031 -0.0186 -0.1105
 1584W        W17768  11.769   6.490   2.898 -0.1428 -0.2566  0.1049
 1585W        W17769   2.397  16.024  13.869  0.1697  0.5756 -0.0220
 1586W        W17770  18.066   9.763   2.903  0.1405 -0.1506 -0.1501
 1587W        W17771  12.767  16.632  11.729 -0.0804 -0.1347 -0.0344
 1588W        W17772  10.190  13.510  14.316 -0.0265  0.0113 -0.2812
 1589W        W17773   6.324   2.939  16.094 -0.0928  0.1585 -0.1121
 1590W        W17774   5.020  14.096   0.792  0.1114  0.2237 -0.2319
 1591W        W17775   6.676  14.557   5.754 -0.0527 -0.0342  0.1130
 1592W        W17776  13.143   9.479   1.954  0.1812 -0.0311  0.1989
 1593W        W17777   5.590   5.285   1.517 -0.2126 -0.0591 -0.1677
 1594W        W17778   2.838   3.713   0.930  0.0527  0.3925  0.3090
 1595W        W17779  15.655   4.325  10.477 -0.0789  0.1561 -0.0514
 1596W        W17780  12.499   8.738  15.481 -0.0555  0.3594  0.3395
 1597W        W17781  13.023   9.416   3.061 -0.2399 -0.2217  0.0123
 1598W        W17782   3.692   9.695  16.009  0.2033  0.2001  0.2387
 1599W        W17783   4.806  10.282  14.982 -0.1019 -0.1127 -0.1565
 1600W        W17784   1.163  12.075   2.637 -0.4120 -0.1551 -0.2196
 1601W        W17785  17.760   7.290  11.132  0.0562  0.1140  0.0008
 1602W        W17786   2.533   3.123   1.199 -0.0579  0.2623  0.0623
 1603W        W17787  14.256  15.810  16.192  0.2131  0.0676  0.2645
 1604W        W17788   2.720  12.280   4.961  0.4507  0.1799  0.0914
 1605W        W17789  16.323   4.458  10.389  0.1047 -0.0634  0.0892
 1606W        W17790   1.442   7.867   3.127 -0.2623 -0.2634 -0.1304
 1607W        W17791   8.592   9.764   1.112  0.1494 -0.1161  0.2508
 1608W        W17792  13.231  14.154   1.403 -0.3770  0.2314 -0.0506
 1609W        W17793  13.340  10.422   2.115  0.1861  0.0571 -0.2142
 1610W        W17794  12.127   2.742  16.393 -0.3849  0.2795 -0.2651
 1611W        W17795   8.525  11.468   1.925 -0.3890 -0.0506 -0.0707
 1612W        W17796   7.161   7.152  13.260 -0.1119 -0.2200  0.0151
 1613W        W17797  16.734   6.604   5.699 -0.1004  0.1574  0.0724
 1614W        W17798  12.893  13.464  13.734 -0.0520 -0.2903  0.0059
 1615W        W17799  13.544  15.093  14.629 -0.1361 -0.0648 -0.2948
 1616W        W17800   2.475   8.641  14.477  0.0116  0.0940  0.4209
 1617W        W17801   3.262   7.328  16.183  0.1156 -0.0249 -0.0673
 1618W        W17802  14.412  10.735  13.327  0.1883 -0.2477  0.2122
 1619W        W17803  15.386  14.297   1.458 -0.3231  0.2288  0.1246
 1620W        W17804  12.308   8.891   3.972  0.1995  0.3381 -0.2417
 1621W        W17805   4.452   2.359   3.865  0.1173  0.0415  0.0307
 1622W        W17806  17.092   7.297   1.880 -0.2238  0.0700 -0.0546
 1623W        W17807   4.609   8.805   5.613  0.0957  0.1829  0.2075
 1624W        W17808   9.560   7.803  12.741  0.1869  0.1044 -0.1314
 1625W        W17809  15.313  17.265  14.621 -0.1500  0.0648  0.1678
 1626W        W17810   3.365   1.997  15.864  0.2876 -0.1389 -0.1990
 1627W        W17811  18.138   3.092  12.937 -0.2285 -0.0818 -0.0573
 1628W        W17812  17.714   8.968   2.997  0.0321  0.1068 -0.1791
 1629W        W17813  17.147   3.942  12.332  0.1850 -0.1935  0.2022
 1630W        W17814   8.997   2.517  13.765 -0.0499 -0.0208 -0.2606
 1631W        W17815  14.439  15.218  13.023 -0.2027  0.2388 -0.0104
 1632W        W17816  14.986   4.258   4.624 -0.0128  0.1497  0.0684
 1633W        W17817  12.705  14.235  13.341  0.2772  0.1258  0.2058
 1634W        W17818   4.814   5.315  14.436 -0.0009 -0.0193  0.1885
 1635W        W17819   7.494  15.244  14.753 -0.0200  0.0131  0.0259
 1636W        W17820  14.809  14.016   6.659  0.0478 -0.0829 -0.0029
 1637W        W17821  17.130   4.663  14.953 -0.0419 -0.2032 -0.0476
 1638W        W17822   3.507  11.218   3.141 -0.0060  0.2069 -0.0358
 1639W        W17823  12.527   6.546  15.893 -0.0985  0.1862  0.1871
 1640W        W17824  11.030   7.095   1.957 -0.2108 -0.0346 -0.3327
 1641W        W17825  10.106  11.904  15.755  0.0658  0.1679 -0.1662
 1642W        W17826  12.085   9.409   2.134  0.1212  0.4687 -0.0247
 1643W        W17827  16.221   5.300   4.151  0.3513 -0.1478  0.0054
 1644W        W17828   7.116   0.916   2.947 -0.3302 -0.1810  0.1822
 1645W        W17829   4.384  13.062   3.789 -0.1381  0.0872 -0.1637
 1646W        W17830   1.260  13.705   2.804  0.3752  0.0307 -0.0104
 1647W        W17831   5.871  15.787   1.452 -0.1797  0.2037  0.2894
 1648W        W17832   7.813  18.117   1.070 -0.0052  0.0754  0.3711
 1649W        W17833   4.492   5.115  12.686 -0.3055  0.1970 -0.0604
 1650W        W17834  11.173   4.781  16.153 -0.4547 -0.2135  0.3372
 1651W        W17835   8.950   7.545  16.004  0.1895  0.2824  0.0608
 1652W        W17836  16.095   8.351   0.162 -0.1492 -0.2195  0.1298
 1653W        W17837   6.179   0.834  12.717  0.3575 -0.2981 -0.0537
 1654W        W17838  14.807  18.087   1.465  0.0815  0.0028 -0.1283
 1655W        W17839  13.812  14.762  14.993 -0.3425  0.0563  0.2604
 1656W        W17840   6.657   9.707  16.281  0.0119 -0.2211  0.1790
 1657W        W17841   1.730   0.284   3.280  0.2654  0.2031 -0.0378
 1658W        W17842  14.185   8.209  16.404 -0.3247  0.0491 -0.0104
 1659W        W17843  14.225  12.212  11.707 -0.0083  0.0711  0.1290
 1660W        W17844  11.687   7.070  15.336  0.4232  0.0674  0.2133
 1661W        W17845  11.723  17.393   0.279 -0.0864 -0.0822  0.1973
 1662W        W17846   5.533  15.137   1.475  0.2581  0.1923  0.0339
 1663W        W17847  16.860  15.268  13.860  0.0845 -0.2520  0.1935
 1664W        W17848   0.614   6.390  10.671  0.3079 -0.2296 -0.0495
 1665W        W17849   3.102   4.582   2.296 -0.1912 -0.2357  0.1525
 1666W        W17850   8.395   2.445  12.236  0.1250  0.0674 -0.2768
 1667W        W17851  17.843   6.141  16.657 -0.2183  0.1174 -0.0071
 1668W        W17852  10.363  17.084   1.726  0.1487  0.2998  0.0921
 1669W        W17853  16.491  17.843  13.296  0.1478  0.1342  0.2335
 1670W        W17854   2.395   7.438  12.460 -0.0978  0.0678 -0.1936
 1671W        W17855  16.614  16.675   3.640 -0.1046 -0.5100 -0.3217
 1672W        W17856  12.418   3.838   4.780  0.3743  0.0864 -0.0229
 1673W        W17857   5.651  14.556  13.684 -0.0784  0.4195  0.3754
 1674W        W17858   9.450   6.402  14.655  0.0791  0.2171  0.3237
 1675W        W17859  18.070   3.495   3.291  0.3170 -0.1466  0.2575
 1676W        W17860   6.407   2.095   6.181 -0.0392 -0.1583  0.0844
 1677W        W17861   2.817  14.759  14.628 -0.0567 -0.1634  0.1909
 1678W        W17862   5.177  13.727   1.447 -0.2675 -0.0888 -0.3822
 1679W        W17863   8.506  16.035  13.830 -0.0499 -0.1548 -0.3086
 1680W        W17864  10.096   4.405   0.902 -0.0279  0.0607 -0.1538
 1681W        W17865  16.591  11.359  13.517 -0.0335 -0.3236 -0.1303
 1682W        W17866   7.561  10.155  15.248  0.0712  0.4275  0.0798
 1683W        W17867   6.231  13.531  15.774  0.0733 -0.0236  0.0536
 1684W        W17868  18.143  14.657   1.332 -0.1851  0.0684 -0.1175
 1685W        W17869   9.569  15.142   2.900 -0.1773  0.0453  0.1473
 1686W        W17870   6.289   1.972   3.600  0.1032  0.3666 -0.3463
 1687W        W17871   5.070   5.562   0.572 -0.0164 -0.3916 -0.1039
 1688W        W17872   6.678   0.934   1.994 -0.1164 -0.1363  0.1017
 1689W        W17873   9.446  16.543   3.737  0.0088 -0.0181  0.3124
 1690W        W17874   0.279   5.065   4.188 -0.0138 -0.0845 -0.3788
 1691W        W17875  12.939  14.046  10.753  0.1526  0.0624 -0.2290
 1692W        W17876  17.825   3.977  15.961  0.2684 -0.0817  0.1505
 1693W        W17877   5.941  17.033  11.129 -0.6348  0.1609  0.1583
 1694W        W17878  14.930   8.627  16.641  0.0355  0.1949  0.1265
 1695W        W17879   5.010  16.132   6.459  0.0481 -0.1642  0.2118
 1696W        W17880   4.012   5.632  11.695 -0.2086  0.2012  0.1188
 1697W        W17881  11.407  13.542   3.111  0.2104  0.1355  0.1095
 1698W        W17882  12.323   8.388  15.815  0.3158  0.0018 -0.0661
 1699W        W17883  12.630   1.544  16.156 -0.1033 -0.0167  0.1093
 1700W        W17884   2.906  11.181   2.045 -0.1105  0.0497 -0.2044
 1701W        W17885  18.045  10.117   2.062  0.0700  0.0662 -0.4740
 1702W        W17886  14.144   2.185   2.432  0.2467 -0.1908 -0.1861
 1703W        W17887  10.749   9.960   3.385  0.2573  0.1363  0.1484
 1704W        W17888  11.423  11.271   1.844 -0.4538  0.1769  0.1723
 1705W        W17889  15.757   9.677   3.030 -0.0446 -0.1764  0.1667
 1706W        W17890   0.202  16.020  15.070  0.2269  0.3629  0.0509
 1707W        W17891  15.819   6.783  15.742  0.0102 -0.1075  0.1566
 1708W        W17892   1.576   9.617   1.235 -0.0247  0.1496  0.2015
 1709W        W17893  15.634  11.079   2.391 -0.0492 -0.1294 -0.1321
 1710W        W17894  15.602   7.490  14.687 -0.1952 -0.2975  0.1161
 1711W        W17895  15.140   3.671  15.398  0.1390  0.2292  0.3708
 1712W        W17896  13.747   7.299   5.028 -0.1175  0.2776 -0.1365
 1713W        W17897  13.793   2.982  12.496  0.1899 -0.4388 -0.1693
 1714W        W17898   7.990   2.570   3.152 -0.0832  0.0825 -0.1789
 1715W        W17899  16.520  13.424   1.056  0.1541 -0.1937 -0.2524
 1716W        W17900  15.495   8.063  14.642 -0.0981 -0.2190  0.1020
 1717W        W17901  15.238  13.282   2.829  0.1781  0.0079  0.0838
 1718W        W17902  12.504   7.230  16.416 -0.2063  0.2264 -0.0005
 1719W        W17903  11.389   4.419   0.392  0.0650 -0.0527  0.2576
 1720W        W17904  17.965   8.126   3.906  0.1745  0.1212  0.0645
 1721W        W17905  10.071  13.815  13.949 -0.0094 -0.0308 -0.1481
 1722W        W17906  10.477   0.880   1.139 -0.0643 -0.0216 -0.2713
 1723W        W17907   4.592  14.673   5.094  0.0827  0.2460  0.0883
 1724W        W17908  13.510   8.709  12.010 -0.0765  0.0934  0.2507
 1725W        W17909   3.777   8.780   5.066 -0.0601  0.0488  0.0982
 1726W        W17910   3.526  13.983   4.249  0.0415  0.0488 -0.1039
 1727W        W17911   0.915   8.552  14.332  0.0171 -0.0466 -0.0321
 1728W        W17912   5.637   5.478   5.701 -0.5181 -0.1874  0.0090
 1729W        W17913   1.127   7.145   3.189  0.2584  0.1486  0.3124
 1730W        W17914  11.330  17.035  15.491  0.1685  0.0682 -0.1659
 1731W        W17915  14.651   1.922  14.524  0.1280  0.0606 -0.2518
 1732W        W17916   4.181  14.062  13.146  0.0592 -0.2556  0.0908
 1733W        W17917  12.999   2.676   5.126 -0.2644 -0.1267  0.3211
 1734W        W17918   6.239  15.247  13.356 -0.3863  0.1613 -0.0995
 1735W        W17919  12.934   5.004   0.359  0.0435  0.0560 -0.3841
 1736W        W17920  15.141  12.712   4.743 -0.0767 -0.2799 -0.1425
 1737W        W17921  14.100  14.278   4.645 -0.0237  0.1845 -0.0823
 1738W        W17922  11.608  12.342  12.877  0.1360 -0.0253 -0.1591
 1739W        W17923  10.904  11.128   5.515 -0.2685  0.0109  0.2396
 1740W        W17924   2.871   9.018  12.099  0.0415 -0.1088 -0.4059
 1741W        W17925  13.121   4.568   1.114  0.1963  0.4574  0.3082
 1742W        W17926   3.129   2.301   0.926 -0.1911 -0.2664  0.1876
 1743W        W17927  16.380   6.849   9.571  0.0600 -0.0581 -0.1512
 1744W        W17928   8.836   7.920   5.418 -0.1548 -0.1749 -0.1258
 1745W        W17929   7.247   0.644  13.345 -0.1108 -0.2632 -0.1466
 1746W        W17930  13.946   0.351   5.469  0.0321  0.0851  0.1716
 1747W        W17931  10.649   6.045   5.640 -0.0843  0.0839 -0.0405
 1748W        W17932   4.702   8.755  13.839 -0.1886 -0.0895  0.2248
 1749W        W17933  13.013   8.796   4.284  0.0279  0.1780 -0.1906
 1750W        W17934   1.828  10.117   5.608 -0.2452  0.0770 -0.3238
 1751W        W17935   9.236   9.428  14.491 -0.0624  0.0429 -0.0762
 1752W        W17936   4.761  10.533  14.239  0.0271  0.0881 -0.1742
 1753W        W17937  14.309  17.747   0.206 -0.2605  0.0411 -0.1011
 1754W        W17938   8.189  13.907   5.367 -0.0218  0.4159  0.0346
 1755W        W17939   9.143  12.585   1.489  0.1118 -0.2503 -0.1980
 1756W        W17940   7.222  15.245   4.667 -0.0501  0.1559 -0.1335
 1757W        W17941  14.891   6.063   1.902  0.3016 -0.1268 -0.0185
 1758W        W17942   4.124   0.620   0.714 -0.0869 -0.1300 -0.2161
 1759W        W17943  17.405   9.169   5.989  0.1307 -0.1413  0.0138
 1760W        W17944   5.811   1.971  12.114 -0.0258  0.1945  0.2501
 1761W        W17945   0.389   8.959  15.800 -0.1436 -0.1794  0.0461
 1762W        W17946  11.373   3.573  16.628  0.0478  0.2738 -0.0285
 1763W        W17947  11.443   1.040  13.173  0.0088 -0.0627  0.0143
 1764W        W17948   2.996  16.842   1.588  0.1186 -0.0348 -0.1027
 1765W        W17949   0.045   3.807  15.692  0.1077 -0.1189 -0.2584
 1766W        W17950  13.588   0.279  14.479 -0.0839 -0.1027 -0.0212
 1767W        W17951  13.423   7.341  15.954 -0.3592  0.0414  0.4733
 1768W        W17952  15.947   5.131  14.293 -0.3616  0.0233  0.2363
 1769W        W17953  11.571  17.789   4.149 -0.0084 -0.1956  0.0765
 1770W        W17954  14.386   0.352  13.825  0.0331 -0.0872 -0.0950
 1771W        W17955   1.294   9.471   1.956  0.0335  0.1217 -0.0699
 1772W        W17956   5.030   8.940   5.951 -0.1907  0.1615  0.2188
 1773W        W17957   9.448   2.513   4.935  0.1275 -0.0208 -0.0254
 1774W        W17958  10.135   3.723  11.406 -0.0297 -0.3364 -0.1311
 1775W        W17959  11.221  11.165  14.698 -0.1309  0.2615 -0.0607
 1776W        W17960   5.640   6.941  13.664 -0.2090 -0.0110  0.1725
 1777W        W17961   3.769   7.106  15.404 -0.2722  0.0336 -0.0014
 1778W        W17962  14.044   8.833  11.611  0.1185  0.0957 -0.2995
 1779W        W17963   9.911   0.590  14.747  0.0344  0.0229  0.0456
 1780W        W17964   9.015  11.725  13.353 -0.1091 -0.1186  0.2268
 1781W        W17965   8.219   4.265   1.268  0.1170 -0.1282 -0.1845
 1782W        W17966  11.543  13.286  16.337 -0.1190  0.4233 -0.0595
 1783W        W17967  16.719   2.363   0.703 -0.2868  0.2125 -0.3345
 1784W        W17968   6.928   6.037   1.100 -0.0350 -0.1998 -0.0841
 1785W        W17969  13.887   8.106  12.656 -0.0522 -0.0213 -0.1859
 1786W        W17970   0.814   2.275  13.257  0.3317  0.0658 -0.2577
 1787W        W17971  16.274  11.861   5.179  0.0051  0.0570  0.2357
 1788W        W17972   2.234   8.905  14.030  0.1448  0.1992  0.0396
 1789W        W17973  15.936   6.451   0.766  0.0783 -0.1413 -0.2171
 1790W        W17974   9.465  12.951   2.008  0.3850  0.1431  0.2168
 1791W        W17975   1.462   3.455  15.371  0.1431 -0.2236 -0.4637
 1792W        W17976  10.063  17.611   0.074  0.1514  0.1286  0.1927
 1793W        W17977   1.045  18.145   2.977 -0.1292 -0.0066  0.1437
 1794W        W17978  14.134   5.422  14.641 -0.2783 -0.0419  0.0521
 1795W        W17979   6.023  10.164   2.241  0.0069  0.1215 -0.1349
 1796W        W17980  16.653   2.177   2.158  0.0462 -0.0001 -0.0026
 1797W        W17981   7.319   2.165   3.214  0.0914  0.0513 -0.2253
 1798W        W17982   3.172   2.851   4.390  0.1776 -0.2379  0.1126
 1799W        W17983   3.346   4.891  11.702 -0.0668  0.0472  0.0003
 1800W        W17984   9.022   8.905  13.448 -0.2137 -0.0321  0.3541
 1801W        W17985   6.563   2.813  13.756  0.1953 -0.1124  0.2137
 1802W        W17986   8.700  17.118  13.152  0.0273 -0.0767 -0.1939
 1803W        W17987   6.065   6.513  12.356  0.0211 -0.0992  0.2103
 1804W        W17988  13.082  16.288  12.035 -0.3149 -0.1557 -0.0227
 1805W        W17989   9.511  14.582   4.567  0.0252 -0.1251 -0.1488
 1806W        W17990  14.603  15.360  13.528 -0.1808 -0.2292 -0.0139
 1807W        W17991  12.397  11.469  11.502  0.0191 -0.1839  0.1229
 1808W        W17992   6.125   6.797  13.727 -0.3444 -0.1865  0.2014
 1809W        W17993  14.110   5.716   0.760  0.0736  0.0054  0.2355
 1810W        W17994  16.123  13.510  15.374  0.0834  0.1793 -0.0251
 1811W        W17995   4.392   2.375  11.588 -0.1188 -0.0343  0.3407
 1812W        W17996  13.105   9.397   4.461 -0.2046 -0.1232 -0.2163
 1813W        W17997   6.936   0.106   5.734  0.0311 -0.0112  0.1457
 1814W        W17998  11.672   3.273   0.246  0.0918  0.2602  0.0536
 1815W        W17999   2.992  12.636  15.892  0.0466  0.0644 -0.1330
 1816W        W18000   5.296   4.956   1.243 -0.2326 -0.0228 -0.0943
 1817W        W18001   2.647  14.690   5.021  0.1231  0.0915 -0.0448
 1818W        W18002  17.805   9.681  11.609 -0.0774  0.3165  0.1865
 1819W        W18003  11.532  13.662   4.506 -0.2553  0.0042  0.0210
 1820W        W18004   0.740   2.046  11.048 -0.1185  0.0768 -0.1691
 1821W        W18005   9.277  13.949  13.490 -0.0614  0.2849 -0.1829
 1822W        W18006   3.086   2.192  12.801 -0.0901  0.0060  0.1668
 1823W        W18007   7.027   6.482   5.334  0.4634  0.3139 -0.4581
 1824W        W18008   3.671  15.754   1.021 -0.0392  0.0411  0.0075
 1825W        W18009   8.299  11.861  11.735  0.1607 -0.0336  0.2582
 1826W        W18010   8.689  13.750   1.838  0.2565 -0.2461  0.1255
 1827W        W18011  12.315   2.312  15.447 -0.2607 -0.2605  0.2360
 1828W        W18012   3.451   9.402  12.603  0.0865 -0.2390 -0.1326
 1829W        W18013   6.159  15.335  13.814  0.0893  0.3327 -0.4395
 1830W        W18014  13.961   6.570   1.119  0.0410  0.1375  0.0453
 1831W        W18015   5.271   6.156  15.374 -0.1038 -0.6692  0.0907
 1832W        W18016   1.760   5.502  13.057 -0.2366  0.1467 -0.2750
 1833W        W18017   7.292  14.201  13.069 -0.2393  0.1167 -0.1611
 1834W        W18018  14.206   3.419   1.030 -0.2936 -0.0174  0.5893
 1835W        W18019  12.696  15.238  16.210  0.1296  0.0990  0.0648
 1836W        W18020  10.414  12.767   5.294  0.2557 -0.0508 -0.1002
 1837W        W18021  11.629  15.170   1.468  0.1911 -0.1759  0.2415
 1838W        W18022   3.650   6.140   4.350 -0.0162  0.3051 -0.1095
 1839W        W18023  10.485   0.051   0.450  0.0422  0.2409 -0.2443
 1840W        W18024   5.090  12.725   5.740  0.0649 -0.4674  0.0669
 1841W        W18025  12.247  12.024   0.610  0.0927 -0.0294  0.1817
 1842W        W18026  14.331  11.426   3.234 -0.1867  0.1262  0.1241
 1843W        W18027  18.067  12.762  15.186 -0.1336  0.0396 -0.1398
 1844W        W18028   1.038   4.009   2.991  0.0700  0.2670 -0.1325
 1845W        W18029   7.262   6.216   3.943  0.0330  0.0556  0.4200
 1846W        W18030  17.021  13.662  16.371  0.1624  0.0172  0.0417
 1847W        W18031  10.362  11.164   5.441  0.0455 -0.0087  0.2075
 1848W        W18032  10.475  10.302   1.239 -0.2206 -0.3240 -0.1983
 1849W        W18033  12.682  16.095   2.979  0.0791  0.2592 -0.3489
 1850W        W18034  15.642   2.264   5.095 -0.4498  0.0032  0.1609
 1851W        W18035   6.867   8.207   1.510 -0.2729  0.0720 -0.2971
 1852W        W18036  11.482  15.581  13.189  0.2929  0.4265  0.1178
 1853W        W18037   4.694   3.452   1.131  0.1733  0.3043 -0.1154
 1854W        W18038  18.041   8.776   0.359  0.1159 -0.0003  0.0477
 1855W        W18039  11.319   5.270  14.081  0.0319 -0.0608 -0.2935
 1856W        W18040  10.529   8.100   5.009 -0.3582 -0.0632  0.0567
 1857W        W18041   8.183  13.459   0.611 -0.1683 -0.0934  0.0998
 1858W        W18042   6.157  16.918  15.796 -0.2541  0.0837  0.0747
 1859W        W18043   4.196   9.779  12.295  0.2836 -0.4054 -0.0809
 1860W        W18044  16.530  10.878   2.513  0.2694 -0.0083  0.0497
 1861W        W18045   7.771   2.682   0.266 -0.0800 -0.0631  0.2330
 1862W        W18046   2.020  17.704  16.458 -0.0593  0.2890  0.0133
 1863W        W18047  13.703  15.101  13.880  0.2406  0.0845  0.0397
 1864W        W18048   4.993  13.123  12.164 -0.0645  0.0709 -0.2285
 1865W        W18049  14.960  17.329  13.133 -0.1073 -0.1556  0.3680
 1866W        W18050   1.645   8.552   0.251 -0.0821 -0.1185  0.4858
 1867W        W18051   0.404   7.086  13.492 -0.0675  0.2052  0.1951
 1868W        W18052  15.424  17.529  11.710  0.2006 -0.3148 -0.0680
 1869W        W18053  10.690   2.579   3.695  0.0755 -0.0845 -0.2995
 1870W        W18054   1.252  10.451   5.853 -0.1799  0.0550  0.0820
 1871W        W18055   7.236   0.021  16.525 -0.2149 -0.0491 -0.0003
 1872W        W18056   7.414   2.384   1.046 -0.0459 -0.0288  0.0871
 1873W        W18057   3.035   8.981  14.622  0.1068 -0.1443 -0.0463
 1874W        W18058   0.410   3.214  12.684  0.1185  0.0129  0.2079
 1875W        W18059  14.298   8.449  14.631  0.1959  0.2518  0.2629
 1876W        W18060   7.074  12.250   0.720  0.0357  0.0229 -0.1485
 1877W        W18061   9.290  14.695   3.061  0.0114 -0.4766 -0.0736
 1878W        W18062   4.221   0.067  11.905 -0.0357  0.5193 -0.0148
 1879W        W18063   9.988   6.597   5.651  0.0270 -0.1811 -0.0022
 1880W        W18064  18.097   5.016  13.484 -0.2070 -0.0663  0.1006
 1881W        W18065   7.922   1.159  12.438  0.1148 -0.2045  0.1290
 1882W        W18066   2.520  11.800   3.816  0.0721  0.0633  0.1493
 1883W        W18067   1.391  11.919   5.192  0.0354  0.2289  0.0505
 1884W        W18068  11.341  16.596   5.780  0.1280  0.3012 -0.0207
 1885W        W18069  15.347   1.063  12.127 -0.1554  0.0798  0.3700
 1886W        W18070  13.231  11.266   2.520 -0.4789  0.1826 -0.1533
 1887W        W18071   4.990   5.003  16.043 -0.1476 -0.0784 -0.0282
 1888W        W18072   2.014  11.151  12.931  0.2762  0.2667 -0.2763
 1889W        W18073  12.586  16.278  16.566 -0.3652  0.0300  0.0810
 1890W        W18074   0.425  18.051   1.159  0.2636 -0.2637  0.2604
 1891W        W18075   7.176   0.975   3.901 -0.1109 -0.0380 -0.1475
 1892W        W18076  16.932   9.478  16.655  0.2137 -0.0583  0.0208
 1893W        W18077   0.927   3.662   3.398 -0.1284 -0.0408  0.0416
 1894W        W18078   2.634  16.896  15.347  0.0778 -0.3491 -0.1619
 1895W        W18079   7.100   4.163  14.410  0.2245 -0.2348 -0.3261
 1896W        W18080  12.474  17.884   6.432  0.3591  0.0338 -0.1874
 1897W        W18081   4.230   0.547   2.661 -0.2665 -0.0928 -0.1847
 1898W        W18082   8.478  12.399  16.073 -0.7062 -0.0811  0.0850
 1899W        W18083  14.991   6.553   4.763  0.1687  0.2295 -0.0129
 1900W        W18084   0.039   8.840  14.189  0.3297 -0.2183 -0.0318
 1901W        W18085   1.468   7.015  16.051 -0.0655  0.2304 -0.1951
 1902W        W18086  11.626  17.826   1.937  0.1860  0.1066  0.4681
 1903W        W18087   2.953  14.513   4.616 -0.1541 -0.0650 -0.1718
 1904W        W18088  14.329  12.038  13.669  0.0019 -0.1902  0.0609
 1905W        W18089   0.732  13.800  15.874  0.0116 -0.0928  0.0221
 1906W        W18090  11.420   1.494   4.609 -0.1667 -0.4278 -0.0412
 1907W        W18091   9.211   2.302  15.227 -0.0587  0.3741  0.1991
 1908W        W18092   3.331  14.711   1.310  0.0469 -0.3420  0.0432
 1909W        W18093   2.460  16.875  14.500 -0.3046 -0.0345 -0.3278
 1910W        W18094   8.042   6.083  12.818 -0.1722 -0.2557  0.0114
 1911W        W18095   8.046   2.079  12.328 -0.1931  0.0031  0.0047
 1912W        W18096  16.235  12.532  14.323  0.0681 -0.2146 -0.1174
 1913W        W18097   9.560   5.529   3.456 -0.1897 -0.0996 -0.1786
 1914W        W18098  11.080   3.038   5.564  0.2346 -0.2998  0.1709
 1915W        W18099  13.682   8.252   5.552  0.0130  0.0143 -0.2008
 1916W        W18100   4.890   8.815  11.066  0.0589 -0.5113 -0.4414
 1917W        W18101  14.041   7.620   4.082  0.1199 -0.1863 -0.0774
 1918W        W18102  15.995   6.189  15.084  0.1358 -0.1631  0.1661
 1919W        W18103   6.873   7.789   0.844 -0.2413  0.4637  0.0096
 1920W        W18104   4.043   6.661   3.053 -0.0959  0.0626  0.0148
 1921W        W18105  13.652   4.528  15.440  0.0537  0.2614 -0.0955
 1922W        W18106  14.294  13.738   3.691 -0.2305 -0.0139  0.1452
 1923W        W18107   6.769   8.038   1.963 -0.3606 -0.0319  0.1118
 1924W        W18108  13.785  15.375   3.366 -0.3402 -0.3738  0.0448
 1925W        W18109  12.788   7.792  11.254  0.1191  0.0202  0.1485
 1926W        W18110   2.465  11.982   1.454  0.2999 -0.4341  0.4089
 1927W        W18111  15.412  13.329   5.893  0.2169 -0.1867 -0.1433
 1928W        W18112  10.918   8.253   3.660  0.1685  0.0052 -0.0769
 1929W        W18113   8.054   4.603   1.643 -0.1563 -0.2494 -0.0109
 1930W        W18114  12.043   3.564   0.638 -0.2769 -0.1313  0.3449
 1931W        W18115   5.182   8.863   0.267 -0.1597 -0.0793  0.1567
 1932W        W18116   0.851   9.022   4.873  0.2916  0.3752  0.2540
 1933W        W18117  14.994  15.386   1.097 -0.0713  0.0547 -0.3299
 1934W        W18118   8.800   2.412   2.546  0.0730  0.1037  0.2637
 1935W        W18119   6.305  17.570   0.322 -0.0826 -0.2252  0.0153
 1936W        W18120   5.958   4.041   4.052 -0.0390 -0.1434  0.1784
 1937W        W18121  17.420   5.857   5.445  0.3577 -0.0937  0.0350
 1938W        W18122   8.550  14.663  12.588  0.1360 -0.0569 -0.4251
 1939W        W18123   6.441   5.918   4.411 -0.1341  0.1427 -0.1511
 1940W        W18124  11.441  15.872  14.610 -0.0901  0.4021  0.0835
 1941W        W18125  17.111   2.464   2.376 -0.2776 -0.2446 -0.2393
 1942W        W18126   0.178   0.654   1.657 -0.0909 -0.0703  0.0457
 1943W        W18127  15.805   8.390   1.073  0.0019  0.1735 -0.2021
 1944W        W18128   0.333   6.935   0.913  0.1172 -0.3774 -0.0614
 1945W        W18129  12.337   0.910  16.219 -0.3564 -0.0398 -0.1904
 1946W        W18130  16.462  11.217  14.927 -0.0299  0.1642 -0.3113
 1947W        W18131  16.840   6.399  15.159  0.1470  0.1809  0.0948
 1948W        W18132  10.197  16.559  13.994 -0.0922 -0.1234  0.0269
 1949W        W18133   9.505   9.301  12.466 -0.2445 -0.0207 -0.1597
 1950W        W18134   1.929   9.098  12.013  0.0460 -0.2305 -0.2660
 1951W        W18135   6.437  16.551   0.951  0.1332 -0.0393  0.0666
 1952W        W18136  17.114  13.417   5.727  0.1174  0.2052 -0.1476
 1953W        W18137  11.790  10.895  14.867  0.1916 -0.0481  0.3014
 1954W        W18138   2.923   9.173   4.299  0.0246 -0.1119 -0.3289
 1955W        W18139  17.253  10.288  12.475  0.0064  0.0202 -0.0225
 1956W        W18140  15.483   2.340   5.915 -0.2091 -0.2024  0.4307
 1957W        W18141  10.639   6.555   5.587  0.1185 -0.2261 -0.1016
 1958W        W18142   0.932  15.052   1.098  0.1340 -0.3690  0.1253
 1959W        W18143  13.072   2.271  14.667 -0.3038  0.1721  0.3323
 1960W        W18144  16.412   0.351  16.108  0.0459  0.2832 -0.1125
 1961W        W18145  15.118   6.312  14.172 -0.2063 -0.1052 -0.0382
 1962W        W18146  11.318   7.949  16.206  0.4533 -0.4946 -0.3000
 1963W        W18147  13.058   0.305   5.347  0.0560  0.1232 -0.0811
 1964W        W18148  10.615  15.297  14.089  0.1876 -0.0778  0.0399
 1965W        W18149   7.576  12.085  15.781  0.0524  0.0855 -0.1075
 1966W        W18150   4.050  12.248  14.883  0.0556 -0.0831 -0.1192
 1967W        W18151  10.388  11.873   1.213  0.3137  0.0620 -0.2255
 1968W        W18152  11.827  10.143  15.752 -0.3005 -0.0633  0.0225
 1969W        W18153   9.235  11.249  12.035  0.1219 -0.0074 -0.1145
 1970W        W18154   5.428   0.923  16.416  0.1628 -0.1839  0.2502
 1971W        W18155  12.015   8.532   3.024  0.1686 -0.3262  0.0867
 1972W        W18156   9.186  14.309   1.172  0.2078  0.0859  0.1856
 1973W        W18157   1.398   6.831  16.661 -0.1040 -0.0752  0.0185
 1974W        W18158   6.909   0.640   5.612  0.0887  0.1171 -0.0365
 1975W        W18159  10.311  12.136  11.926  0.0566 -0.2787  0.3160
 1976W        W18160   0.771  10.004  11.931  0.1476 -0.0507  0.0676
 1977W        W18161  10.862  12.013   5.195 -0.2685 -0.2152  0.1107
 1978W        W18162   2.572  14.271  15.528 -0.0954 -0.1720 -0.2618
 1979W        W18163  10.139  17.765  13.813 -0.1371 -0.1685  0.2181
 1980W        W18164   9.665  10.544  12.623  0.2086 -0.1087 -0.1497
 1981W        W18165   7.815   0.110   3.136  0.1843  0.2358  0.0115
 1982W        W18166  10.772   5.777  13.396  0.2024  0.0279  0.2064
 1983W        W18167  13.054   2.220   0.356  0.3002  0.0106  0.1430
 1984W        W18168  10.965   1.032   5.672 -0.0092  0.0383  0.0720
 1985W        W18169   4.324  12.333  13.412 -0.2871  0.0740 -0.1536
 1986W        W18170   2.575  13.942   5.445  0.0091 -0.0449  0.1686
 1987W        W18171   0.703   3.077   4.807 -0.1042 -0.3013 -0.3164
 1988W        W18172  13.722   4.598  11.717 -0.0779 -0.4071  0.1829
 1989W        W18173   4.941   7.744   4.632 -0.1174  0.1978  0.1217
 1990W        W18174   7.567   4.408   0.498 -0.0857 -0.0115  0.0420
 1991W        W18175   1.829  15.562   2.019 -0.2437 -0.2995 -0.2023
 1992W        W18176  14.158   0.481   3.486  0.0595  0.2768  0.0922
 1993W        W18177  12.546  10.174   3.340  0.0692 -0.0376  0.0203
 1994W        W18178   1.112   5.062  12.913 -0.0577  0.0742  0.3013
 1995W        W18179  13.110   3.891  15.904 -0.1550 -0.1201  0.2131
 1996W        W18180  16.832   6.791  12.788  0.0565 -0.0409  0.0152
 1997W        W18181   5.104   7.183  11.658 -0.0326 -0.0130 -0.1801
 1998W        W18182   5.675   1.495  14.007 -0.3078 -0.0268  0.0497
 1999W        W18183   5.226  14.005  14.683  0.0119  0.1567 -0.0680
 2000W        W18184   0.663   0.956  12.500 -0.3891 -0.0465  0.1335
 2001W        W18185  16.944  17.374   0.484  0.0398 -0.0628  0.1727
 2002W        W18186  18.167  12.297   4.498  0.0284 -0.0826  0.0391
 2003W        W18187   6.801   2.539   3.095 -0.2065 -0.0531 -0.1133
 2004W        W18188  13.327   2.222   2.730 -0.1466 -0.1343 -0.3481
 2005W        W18189  17.478   3.325  14.869  0.2777  0.1128  0.0324
 2006W        W18190  11.600  15.332   0.367 -0.1658 -0.1010  0.1090
 2007W        W18191  14.518   9.909   5.036  0.0137 -0.1898 -0.2320
 2008W        W18192   2.605   9.074   3.868  0.2371 -0.0060  0.1983
 2009W        W18193  12.299  12.866   6.188 -0.1205 -0.5628  0.0666
 2010W        W18194  15.102  10.420   4.627  0.4179 -0.0036 -0.0378
 2011W        W18195  17.320   9.866   5.533 -0.1360  0.1792  0.2730
 2012W        W18196  15.206   5.599  14.532  0.2031 -0.0391  0.1600
 2013W        W18197   9.556  13.914   3.663  0.0806  0.0564  0.0442
 2014W        W18198   8.292   1.343  11.663 -0.0138  0.0973 -0.0212
 2015W        W18199   8.574   3.202  16.300 -0.0534 -0.2003  0.0958
 2016W        W18200  10.902  14.116   0.000  0.1566  0.2126 -0.1727
 2017W        W18201  15.870  10.120   0.576 -0.3252  0.1211  0.1476
 2018W        W18202  16.036  16.761  11.745  0.3158 -0.3093  0.1790
 2019W        W18203   3.174   9.936   3.622  0.1942  0.1404 -0.0765
 2020W        W18204   7.489   6.748   1.481  0.3052  0.1128  0.1297
 2021W        W18205  11.823  12.082  11.146 -0.1690  0.0635 -0.0537
 2022W        W18206   0.244   5.037   1.296 -0.4913  0.1103  0.1827
 2023W        W18207   0.748  16.306   4.942  0.0719 -0.0418  0.1819
 2024W        W18208  14.486  10.544  12.625  0.1115  0.3761  0.0646
 2025W        W18209   4.969   7.322   2.842  0.0594  0.1711 -0.1138
 2026W        W18210   6.029   6.382   3.266  0.0568  0.1421  0.0742
 2027W        W18211   0.115   9.945   3.404  0.0972 -0.0877 -0.0607
 2028W        W18212  17.417  12.734   3.864 -0.0781  0.1265  0.1878
 2029W        W18213   6.636   3.950  14.491 -0.1017  0.0302 -0.0538
 2030W        W18214  17.131  17.477   4.202  0.0511 -0.0004  0.2226
 2031W        W18215  16.405   4.206  13.746 -0.0837  0.0911 -0.1237
 2032W        W18216   7.052  17.214   4.625  0.0718  0.0215  0.0989
 2033W        W18217  15.035  12.392   3.035  0.2172 -0.1270 -0.1200
 2034W        W18218   9.551  11.573  16.141 -0.2987 -0.0691 -0.0781
 2035W        W18219   6.389   6.734  12.823  0.0974 -0.0653 -0.0751
 2036W        W18220   8.977   2.411   5.589 -0.0442 -0.0525  0.1037
 2037W        W18221  13.933   7.567   0.110  0.1110 -0.0664 -0.2929
 2038W        W18222  14.717   1.602   5.034  0.2053 -0.0726 -0.2119
 2039W        W18223  12.013   3.704  14.393 -0.1735 -0.0771 -0.2052
 2040W        W18224   8.071  17.333  14.123 -0.1531 -0.1076 -0.1550
 2041W        W18225  18.171   9.250   0.719  0.0976  0.2831 -0.1442
 2042W        W18226   4.433   6.431  16.585 -0.1456 -0.3048 -0.0837
 2043W        W18227  11.735   1.397   1.305 -0.3686 -0.1919 -0.0485
 2044W        W18228  11.881   0.594  15.725  0.1236  0.2062 -0.2631
 2045W        W18229   5.869  12.894   3.709 -0.0394 -0.2338 -0.0200
 2046W        W18230  12.417  10.686   4.362  0.1136  0.2292  0.0722
 2047W        W18231  11.731   9.285   1.022  0.0800  0.0562  0.3625
 2048W        W18232   0.445  10.732   1.092  0.4373 -0.2778  0.0622
 2049W        W18233   4.698   1.014  13.571  0.0410  0.2572  0.0894
 2050W        W18234   8.780  14.734   3.809  0.0828  0.0871  0.0044
 2051W        W18235  12.413   3.415   5.415  0.2322 -0.2350 -0.2638
 2052W        W18236   6.834  16.720   0.675  0.1001 -0.2201  0.0676
 2053W        W18237  15.316   3.049   2.797 -0.0695 -0.1057 -0.1879
 2054W        W18238   5.461  14.712  13.122 -0.3780  0.0055  0.0529
 2055W        W18239  13.573   0.465  13.576  0.0423 -0.4101 -0.1939
 2056W        W18240   5.759  12.230   2.304  0.0120 -0.0988 -0.4191
 2057W        W18241   5.397   3.542  14.762  0.0305 -0.0099  0.0733
 2058W        W18242   1.280   8.787  11.297  0.0538  0.2352 -0.5208
 2059W        W18243  15.042  15.945   5.620 -0.1791  0.1854  0.2739
 2060W        W18244  18.091  15.240  15.804  0.0236 -0.1504 -0.0829
 2061W        W18245  10.199  10.604   1.965 -0.2757 -0.1630 -0.1846
 2062W        W18246  15.068  13.492  13.774 -0.0155  0.1173 -0.1407
 2063W        W18247   7.421  15.304   0.933 -0.1256 -0.0753 -0.1685
 2064W        W18248   3.903   8.413   3.929  0.1012  0.1831 -0.2195
 2065W        W18249   1.798   7.696   5.070  0.0664 -0.0000  0.2230
 2066W        W18250  14.504   0.758   3.680 -0.2202 -0.3445 -0.2490
 2067W        W18251   5.836  15.239   3.153  0.1289 -0.1084 -0.3139
 2068W        W18252  15.998   3.448   0.673  0.1956  0.1484  0.2340
 2069W        W18253   2.720  12.935  12.642 -0.0051 -0.2689  0.0154
 2070W        W18254  17.345   4.547   3.283  0.0412 -0.0227  0.3350
 2071W        W18255  17.880  11.136   2.924  0.2711  0.1495 -0.0659
 2072W        W18256  14.120   9.120   1.098  0.1181  0.0906  0.4446
 2073W        W18257   4.166   2.441  15.858  0.0412  0.3677 -0.1904
 2074W        W18258  16.860   7.943  10.910  0.3507 -0.2422 -0.1044
 2075W        W18259   7.533  16.715  12.544 -0.2355 -0.0813 -0.0443
 2076W        W18260  13.899   8.646   1.562 -0.0813 -0.0438 -0.1460
 2077W        W18261   8.410   7.952   0.091 -0.3077 -0.2511  0.3710
 2078W        W18262   7.316  14.135  16.495 -0.0565  0.0234 -0.3165
 2079W        W18263   9.133  12.859  15.804 -0.0681  0.0505  0.0182
 2080W        W18264  10.362  10.428   0.617 -0.1891 -0.2767  0.0982
 2081W        W18265  14.771  10.180  14.792  0.2730  0.0853 -0.3458
 2082W        W18266  12.565  11.824  16.297 -0.0766 -0.1329 -0.1159
 2083W        W18267   7.475   7.123  13.625 -0.0607 -0.0242 -0.0180
 2084W        W18268   6.705   8.274   3.941 -0.2767 -0.1343  0.1604
 2085W        W18269   7.055  11.354  15.501 -0.1540  0.1309  0.0905
 2086W        W18270   6.948  13.472  16.467  0.2465  0.0152 -0.2332
 2087W        W18271  14.204   9.528  16.218 -0.0011 -0.0604  0.0415
 2088W        W18272   2.551   0.322  12.628  0.0980 -0.2096 -0.0155
 2089W        W18273   2.309   1.753  14.400  0.1470  0.3062 -0.0046
 2090W        W18274   7.746  13.763   4.123  0.0977  0.0499 -0.3692
 2091W        W18275  12.822   2.240   0.824  0.2065 -0.1251 -0.1177
 2092W        W18276  11.877  14.983  16.463 -0.0348 -0.3359 -0.0774
 2093W        W18277   4.108  13.073   0.219  0.1405 -0.0573 -0.1538
 2094W        W18278  12.924  14.768   0.598  0.1087  0.1507 -0.1361
 2095W        W18279   3.502   2.678  15.220 -0.0344 -0.4366  0.1767
 2096W        W18280  17.425   6.568   1.194  0.1068  0.1072 -0.0374
 2097W        W18281  16.979  17.618   4.740 -0.1573  0.1721  0.0980
 2098W        W18282  14.498   9.899  14.340  0.0282  0.1238  0.0084
 2099W        W18283  17.915  16.257  15.967 -0.0438  0.2241  0.2734
 2100W        W18284   4.234   1.869   1.213 -0.1768 -0.2632 -0.0434
 2101W        W18285  13.802   5.600  10.949  0.2060  0.0739  0.1384
 2102W        W18286  11.009   8.542   0.955 -0.1234  0.3474  0.4556
 2103W        W18287   9.365   5.120   2.263 -0.0802 -0.0280 -0.0035
 2104W        W18288  10.299   8.595  15.993  0.1272  0.0670 -0.0905
 2105W        W18289   9.870  12.663   0.844  0.1295 -0.0516 -0.2590
 2106W        W18290   9.971  16.231   0.001  0.0561 -0.0525 -0.0884
 2107W        W18291  16.671   7.546   0.293 -0.5256 -0.1481  0.2760
 2108W        W18292   8.076   4.376   5.900  0.2242 -0.1406 -0.0531
 2109W        W18293  14.868   6.084  11.126  0.1716  0.0094  0.3781
 2110W        W18294  11.455  10.181   1.352  0.0663  0.1518 -0.2419
 2111W        W18295  15.610   6.351  15.998 -0.1217  0.2008  0.2212
 2112W        W18296   0.785  11.107   3.716 -0.0464 -0.0800 -0.1230
 2113W        W18297   7.838  13.535  15.414 -0.0945  0.1202  0.0236
 2114W        W18298  14.262  15.803   5.779 -0.0455  0.2183  0.1115
 2115W        W18299  12.609  10.316   0.699 -0.2424  0.1727  0.0510
 2116W        W18300   1.009   1.568   3.602  0.1998 -0.1596 -0.0743
 2117W        W18301  14.764  15.846   2.148 -0.1863 -0.3633 -0.1722
 2118W        W18302  15.183   9.589   4.353  0.1561  0.0865  0.2247
 2119W        W18303   7.402   8.646   5.129  0.2147 -0.1025  0.1348
 2120W        W18304  17.796  12.012  13.728 -0.1132 -0.1229  0.1110
 2121W        W18305   8.893  15.060  16.414  0.0469  0.1723 -0.0659
 2122W        W18306  17.250  11.822  16.431 -0.1563  0.1946 -0.1219
 2123W        W18307  17.320  10.958   0.242 -0.1814  0.2554  0.0294
 2124W        W18308   4.332   0.529  15.376 -0.0411  0.0380  0.0882
 2125W        W18309  17.661   0.701   2.456 -0.0630 -0.1515 -0.0228
 2126W        W18310   6.628   8.672  16.441  0.1644  0.0560  0.2330
 2127W        W18311   6.973   7.673  14.247  0.3167  0.0298 -0.2831
 2128W        W18312  10.213  17.775   2.878  0.0935 -0.0512  0.1337
 2129W        W18313  14.014   8.948  10.780 -0.5095 -0.1515  0.0457
 2130W        W18314   3.150  16.767   5.866  0.5616  0.5609  0.1593
 2131W        W18315   6.714   1.049   0.218  0.0602  0.1212 -0.1034
 2132W        W18316   5.729  17.272  13.402 -0.1342  0.1863 -0.1249
 2133W        W18317   4.081  15.696   0.328 -0.3796  0.2375 -0.2178
 2134W        W18318   7.867   9.538   4.595 -0.2137 -0.2272 -0.0132
 2135W        W18319  15.535  13.445   0.013 -0.1458 -0.1007  0.3698
 2136W        W18320  15.192   0.114   3.399 -0.0566  0.0438 -0.2522
 2137W        W18321  13.446  13.590  15.808  0.1822 -0.3284 -0.3383
 2138W        W18322   1.974  13.965   2.873 -0.0760  0.1975 -0.3503
 2139W        W18323   3.547  11.291   0.830 -0.3939 -0.0770 -0.0852
 2140W        W18324  11.573  10.705  12.865 -0.3962  0.0129 -0.0244
 2141W        W18325   3.901  13.668  13.405  0.1094 -0.0720  0.0802
 2142W        W18326  13.081  13.698  16.166  0.1477  0.1834  0.0223
 2143W        W18327  15.968   2.299  14.166 -0.0136 -0.0747 -0.0802
 2144W        W18328   6.848  18.157  16.031  0.3440  0.0018 -0.3321
 2145W        W18329   8.365   9.277  12.274 -0.1813 -0.0769  0.0600
 2146W        W18330  10.707   5.504   0.740 -0.1554 -0.3841 -0.0889
 2147W        W18331   4.716   6.748   0.777  0.1152  0.2504 -0.1368
 2148W        W18332   6.720   4.661  12.659 -0.3962  0.0644 -0.2818
 2149W        W18333   1.572   5.006   1.564  0.0819 -0.0318  0.2021
 2150W        W18334  16.535   2.547   1.610  0.3485  0.1669  0.0280
 2151W        W18335   4.028  16.112  14.765  0.1878 -0.0898  0.1558
 2152W        W18336   8.833  13.572  14.049  0.1328 -0.1119 -0.0105
 2153W        W18337  17.004  12.989   5.069 -0.2457  0.0393  0.1653
 2154W        W18338   3.511   8.710   3.972  0.1420  0.0443 -0.1029
 2155W        W18339   0.661  11.242   3.190  0.2158  0.2019 -0.1164
 2156W        W18340   7.819  11.351  13.218 -0.1695  0.0542 -0.0262
 2157W        W18341   4.475   5.216  15.842 -0.4351  0.1359  0.2051
 2158W        W18342   0.277  15.251  12.992 -0.0548  0.0171 -0.1441
 2159W        W18343   3.945   0.791   1.283  0.1867 -0.2724 -0.2249
 2160W        W18344   1.183   8.721   5.676  0.0191 -0.1225 -0.2554
 2161W        W18345  12.145   2.111  13.553  0.2396 -0.0335 -0.0018
 2162W        W18346   1.553  16.540   1.511 -0.3029 -0.1829 -0.1572
 2163W        W18347  15.835  13.468  14.017  0.2338 -0.0396 -0.1174
 2164W        W18348  12.119  15.184  12.569 -0.1806  0.1801  0.1232
 2165W        W18349   2.182   1.980   0.817  0.3358  0.1543  0.0751
 2166W        W18350  17.871  12.337  14.110 -0.3565 -0.1439 -0.0210
 2167W        W18351   2.422   6.381   1.904  0.0020 -0.2610 -0.0182
 2168W        W18352  12.393  10.163  13.337  0.0921 -0.2864  0.2288
 2169W        W18353   0.688  16.496  13.395  0.4441  0.0380 -0.1786
 2170W        W18354   3.408  18.033   4.156 -0.0673  0.0105 -0.2272
 2171W        W18355   8.775  13.686   1.278  0.2377  0.0990 -0.1127
 2172W        W18356  16.820   2.527  11.318 -0.0949  0.0674  0.1157
 2173W        W18357  16.662  12.784   1.168 -0.1124 -0.0432 -0.0432
 2174W        W18358  13.917  15.622   3.985 -0.2722  0.1456  0.0530
 2175W        W18359  17.330   4.810   1.659  0.0522  0.1577 -0.1863
 2176W        W18360   5.129   5.208  13.266  0.0457  0.1191 -0.0037
 2177W        W18361  15.414  13.555   4.441 -0.0493  0.1235 -0.0096
 2178W        W18362  11.695  16.287  16.143 -0.2012 -0.0619  0.1716
 2179W        W18363  13.067   6.450  12.437  0.1416  0.0354 -0.0770
 2180W        W18364   1.848  13.665   2.099  0.2037  0.0414 -0.0195
 2181W        W18365  10.660   4.077  16.169 -0.1159  0.0668 -0.1340
 2182W        W18366   1.777  15.858   2.505 -0.0803 -0.2756  0.1837
 2183W        W18367   0.813   9.212  15.951 -0.2787  0.0333 -0.3457
 2184W        W18368  16.843  10.733   3.880 -0.3013 -0.2512  0.0202
 2185W        W18369  14.031   5.589  13.837  0.1385 -0.2595 -0.0546
 2186W        W18370  14.671  11.015   2.077 -0.0474  0.1026 -0.1165
 2187W        W18371   4.822   7.466  14.718 -0.1047  0.0580 -0.1044
 2188W        W18372  14.252  10.668  12.242  0.0017  0.2447 -0.2005
 2189W        W18373  11.196  12.016  16.287 -0.0090 -0.1127 -0.0559
 2190W        W18374   9.179   7.713  13.392 -0.3653  0.0433  0.0125
 2191W        W18375   3.829   8.518   0.665 -0.0040  0.1205  0.1248
 2192W        W18376   6.992   8.604  16.032  0.1392 -0.0375  0.0789
 2193W        W18377  15.742  11.687  15.858  0.0062 -0.1266  0.1660
 2194W        W18378   1.960   2.722  13.280 -0.4212  0.0232  0.0781
 2195W        W18379   9.061  12.228   2.779 -0.0249 -0.0337  0.2484
 2196W        W18380  16.059   9.931  12.010 -0.0428  0.1654 -0.2492
 2197W        W18381  16.635  11.071   3.282  0.0816 -0.1875 -0.0307
 2198W        W18382   5.994   2.803   5.075  0.4176  0.0023  0.1189
 2199W        W18383  11.757   3.133  15.085  0.0898 -0.1308  0.3099
 2200W        W18384   8.654  10.732   5.570 -0.1211 -0.2502  0.3918
 2201W        W18385   5.612  17.165   5.232  0.0590 -0.0214  0.0552
 2202W        W18386   3.057   8.266   0.994  0.0125  0.1273  0.2092
 2203W        W18387  14.505  12.154  15.109 -0.1560 -0.1111  0.1693
 2204W        W18388   6.672   4.503  15.706 -0.1290 -0.1921  0.1822
 2205W        W18389  15.838   4.535  13.904 -0.0150 -0.3167 -0.0450
 2206W        W18390  16.688  14.281   3.267  0.3024 -0.1070  0.0256
 2207W        W18391   2.147  11.400   2.952  0.0684  0.0135 -0.1304
 2208W        W18392  12.255   5.093   4.383  0.1095  0.0531  0.2004
 2209W        W18393   4.923  12.731   3.530 -0.2901 -0.3647 -0.2020
 2210W        W18394   2.513   1.953  15.990  0.1177 -0.0301 -0.0826
 2211W        W18395   1.740   9.470   1.700 -0.4859  0.0824  0.1363
 2212W        W18396  17.568  13.620   5.491  0.3532 -0.4015  0.2023
 2213W        W18397   8.874   2.182  15.585 -0.3918  0.0510 -0.0797
 2214W        W18398  13.526  16.333   1.930  0.1194  0.1161  0.1782
 2215W        W18399   6.333  12.534  13.419 -0.1164  0.2169 -0.3924
 2216W        W18400   6.244   2.229  12.393  0.1018  0.0414 -0.2391
 2217W        W18401   3.759   0.848  11.717  0.2160  0.2398  0.1945
 2218W        W18402   4.955  11.803  12.671  0.0607 -0.0559 -0.0432
 2219W        W18403   2.733  15.822   0.116 -0.0430 -0.1418  0.2531
 2220W        W18404  14.929  11.426   2.992  0.0501  0.0348  0.1446
 2221W        W18405  17.178   0.537  13.685 -0.1758  0.1382 -0.0844
 2222W        W18406  16.947  16.516   4.650  0.2910  0.0427 -0.0484
 2223W        W18407  10.487   3.550  16.220 -0.2489  0.0866 -0.2398
 2224W        W18408   4.571  11.752  15.965 -0.4071 -0.0464 -0.4547
 2225W        W18409  15.683   1.716  11.365  0.1031 -0.1719  0.4263
 2226W        W18410   1.712   3.115   2.973  0.2171 -0.2009 -0.0462
 2227W        W18411   3.406  14.134   1.867  0.3300  0.1314  0.1872
 2228W        W18412  16.174  12.488   4.355  0.2987 -0.0655  0.1361
 2229W        W18413  15.532   0.396   1.929 -0.0325  0.3093  0.4642
 2230W        W18414  11.079   7.296   5.083  0.3351  0.1708  0.1736
 2231W        W18415  17.095   1.194  14.338 -0.1218 -0.1638 -0.2014
 2232W        W18416   0.901   5.671  16.247 -0.0975  0.2045 -0.2602
 2233W        W18417   2.054  10.585  15.449  0.2073  0.2777  0.4453
 2234W        W18418   2.248   5.386   2.635 -0.1101  0.2306 -0.5172
 2235W        W18419  17.775   8.736  16.570  0.0632  0.1062  0.0507
 2236W        W18420  16.425   7.327  13.399 -0.1790 -0.0410 -0.2370
 2237W        W18421  13.042  14.435   3.537  0.1717 -0.1273 -0.2025
 2238W        W18422  15.897   4.655  11.897  0.2716  0.1227 -0.0851
 2239W        W18423  12.709  10.224   4.416  0.0426 -0.1472  0.2934
 2240W        W18424   4.398   2.233  13.007  0.0388 -0.0403 -0.2807
 2241W        W18425   8.115   0.213  12.425  0.1675  0.1809  0.0019
 2242W        W18426   0.442  14.175  12.326  0.0560 -0.1584 -0.1350
 2243W        W18427  16.360   1.393   4.083 -0.2575 -0.0645  0.1264
 2244W        W18428   1.210  14.549  12.188 -0.0852 -0.0051  0.1333
 2245W        W18429  13.779  12.170   2.389 -0.3027 -0.2028  0.1021
 2246W        W18430   0.805   0.802  15.932  0.0666  0.0170  0.0968
 2247W        W18431  15.543   4.074  15.417  0.0323  0.0186  0.0259
 2248W        W18432  15.360   1.013   5.864 -0.2848 -0.0197 -0.1269
 2249W        W18433   7.107   0.487   3.927 -0.0171  0.0952 -0.1705
 2250W        W18434  10.253  14.807  11.791 -0.3092  0.0673 -0.0824
 2251W        W18435   7.159   2.752   6.294  0.2496 -0.0224 -0.0156
 2252W        W18436   1.597  14.398   2.566  0.0825 -0.1530  0.0060
 2253W        W18437  15.906   7.393  13.471 -0.0928  0.4471  0.3151
 2254W        W18438  12.769   8.402  16.518 -0.2317  0.0579 -0.3889
 2255W        W18439   5.675  16.459  12.271 -0.1057  0.0595 -0.0113
 2256W        W18440   1.146   0.671  16.283  0.1626  0.3965 -0.2567
 2257W        W18441   3.434   8.274   5.074  0.1854 -0.5349 -0.2488
 2258W        W18442  10.720  13.833  10.846 -0.1246  0.0837  0.3471
 2259W        W18443   9.344  15.186   5.615  0.2000 -0.0430  0.0398
 2260W        W18444   5.447  17.047   2.974 -0.0929  0.3320 -0.2318
 2261W        W18445  13.110  10.053   1.542  0.3775 -0.2345 -0.1522
 2262W        W18446  14.408   2.211   4.048  0.1213  0.2511  0.1031
 2263W        W18447   7.338   6.834   2.608 -0.0161 -0.1919 -0.3208
 2264W        W18448  15.211   8.988   0.454  0.1157 -0.1568  0.0365
 2265W        W18449  12.356   6.141  14.662  0.2019 -0.3008 -0.1835
 2266W        W18450   7.141   2.986  16.559 -0.0829 -0.1069 -0.0681
 2267W        W18451  15.198   4.474  11.326  0.0892 -0.0132  0.1478
 2268W        W18452   4.797   8.712  16.644  0.0068 -0.2166 -0.1243
 2269W        W18453   4.829   3.028  13.110  0.3604 -0.2610 -0.0429
 2270W        W18454  12.221   6.171  12.536  0.2391  0.0587 -0.1675
 2271W        W18455   7.897   9.624  16.655 -0.1961  0.3439 -0.0738
 2272W        W18456  16.985  11.818  14.173  0.0841 -0.0892  0.4633
 2273W        W18457   0.027   8.971  13.612  0.0318 -0.1727  0.2940
 2274W        W18458  17.512   8.218   1.701 -0.1811 -0.1925  0.3067
 2275W        W18459  14.525   3.090  16.004  0.0290  0.0332 -0.2467
 2276W        W18460   2.877   6.457   2.269  0.0633 -0.3278  0.0946
 2277W        W18461   9.092  17.524   1.958  0.0577  0.2707 -0.0444
 2278W        W18462   3.695   8.730  15.613  0.0983  0.2113 -0.1213
 2279W        W18463  13.150   5.203  15.726 -0.0169 -0.4570 -0.1187
 2280W        W18464   1.143   9.620  11.232 -0.0025 -0.2281  0.0649
 2281W        W18465  16.896   0.644   0.495 -0.0909  0.0045  0.0893
 2282W        W18466   8.150  11.142  14.672 -0.3843 -0.0276  0.0251
 2283W        W18467  10.248  16.079   5.721  0.0615  0.0413 -0.2344
 2284W        W18468  17.990   1.044   3.241  0.0051  0.0353 -0.0020
 2285W        W18469   7.096  13.078  13.158 -0.0473  0.1291  0.0032
 2286W        W18470   6.573  16.395  11.644 -0.0685  0.0135 -0.2886
 2287W        W18471   8.093   9.031   1.401  0.4864  0.0753 -0.0857
 2288W        W18472  12.779   3.938  13.885 -0.0314  0.1165  0.0034
 2289W        W18473   8.295  16.686  16.053  0.1843  0.1296 -0.2272
 2290W        W18474  13.304  16.686  12.694  0.0716  0.1651 -0.0274
 2291W        W18475   2.446   2.075   2.833  0.1628 -0.0072  0.1129
 2292W        W18476  13.152  14.018  12.349  0.0819 -0.1524 -0.2354
 2293W        W18477   2.677  16.995   2.714  0.1718 -0.0323  0.1244
 2294W        W18478  12.075   1.318  11.452 -0.0139 -0.0017 -0.0389
 2295W        W18479   3.789   9.658   1.959 -0.0007 -0.1073 -0.0469
 2296W        W18480   5.967   5.376   4.153 -0.1899  0.2213 -0.0205
 2297W        W18481   9.661   2.513   3.146 -0.2359  0.0497  0.0249
 2298W        W18482   2.187  12.022   3.512  0.2946  0.3678  0.2333
 2299W        W18483   3.403  15.559  15.583  0.4429 -0.3146 -0.1604
 2300W        W18484  16.305   0.161  11.360 -0.2310 -0.3485  0.1434
 2301W        W18485  15.035  16.066   4.955 -0.2803 -0.2531  0.4258
 2302W        W18486  15.499  14.332  12.394  0.1811 -0.0837 -0.1036
 2303W        W18487  13.810  12.812   4.944  0.2184  0.1752 -0.0275
 2304W        W18488  16.580  15.544  14.861  0.0191  0.2514  0.2043
 2305W        W18489  16.809   6.598  13.883 -0.0212  0.0955 -0.2824
 2306W        W18490   0.420   8.005  11.425 -0.2316  0.0025  0.1172
 2307W        W18491   2.652  17.909   6.054 -0.1473  0.2071  0.0226
 2308W        W18492   9.397   9.926  14.756  0.6981 -0.0767  0.3958
 2309W        W18493   5.600  17.995  12.231  0.2098  0.1454  0.2621
 2310W        W18494   9.339  12.460  16.066 -0.0966 -0.1662  0.1721
 2311W        W18495  11.809   2.290   2.782 -0.1361  0.1100 -0.0349
 2312W        W18496  16.462   3.507   0.618  0.0325  0.1073 -0.0972
 2313W        W18497   8.910  15.318  12.642  0.1663 -0.2813  0.0795
 2314W        W18498  13.204   2.347   5.701 -0.4762  0.2092 -0.2168
 2315W        W18499   8.832   0.227  13.664  0.1997  0.0755  0.1082
 2316W        W18500  16.214   3.886   1.776 -0.0997 -0.4187 -0.1682
 2317W        W18501  12.379   1.865   5.171  0.3219 -0.3626 -0.0825
 2318W        W18502  15.976  16.661   4.875  0.1066 -0.0974  0.1231
 2319W        W18503   6.080   5.802   5.372 -0.1068 -0.2848  0.0669
 2320W        W18504  16.603  16.049  11.026 -0.0510 -0.1529  0.0464
 2321W        W18505  17.898   9.877  14.033 -0.0514 -0.1138 -0.4484
 2322W        W18506   2.156   6.251   5.915 -0.4179 -0.1541 -0.0494
 2323W        W18507  15.161  16.790   2.643  0.1319 -0.0304  0.1365
 2324W        W18508   1.924   8.794  13.490 -0.2977  0.0683 -0.2029
 2325W        W18509  12.617  10.418  15.351  0.1487  0.1987 -0.0115
 2326W        W18510   0.438   6.929  12.954 -0.1719  0.1276 -0.2211
 2327W        W18511  14.296  15.135   5.686 -0.1152 -0.1951  0.3482
 2328W        W18512  11.179  16.300  14.252  0.0434  0.1218  0.2104
 2329W        W18513  13.637  17.162   3.345 -0.0820  0.1588 -0.0667
 2330W        W18514   6.111  15.167   3.551 -0.2197  0.4677  0.0812
 2331W        W18515  15.457  13.692   3.105  0.0783  0.1959  0.1096
 2332W        W18516  13.963  17.709   4.520 -0.0115 -0.0278  0.2876
 2333W        W18517   5.747   1.704  15.105  0.1877  0.2999 -0.1744
 2334W        W18518   6.178  12.381  14.278  0.1923 -0.3573  0.1216
 2335W        W18519   4.522   8.622  11.409  0.0273  0.1500  0.3351
 2336W        W18520   7.169   2.361  14.381 -0.0059 -0.1074  0.2368
 2337W        W18521   2.036   4.668  12.806 -0.3437 -0.1877  0.2091
 2338W        W18522  15.728  14.881   3.853  0.3599  0.0403  0.0405
 2339W        W18523   5.741   1.045  12.480 -0.0406  0.1608  0.0709
 2340W        W18524   5.854   2.415  15.976  0.0175 -0.1532 -0.0817
 2341W        W18525   4.247   7.817  12.467  0.1421 -0.1808  0.0623
 2342W        W18526  17.202   3.236   3.553 -0.1299  0.0046  0.0871
 2343W        W18527   4.364  10.976   0.286  0.2383 -0.0639  0.3815
 2344W        W18528  14.044  18.075  14.001 -0.0534  0.0841  0.1871
 2345W        W18529  11.428  17.505  15.948  0.0295  0.3125  0.0863
 2346W        W18530   5.044   8.665   6.427 -0.1394  0.1309  0.0037
 2347W        W18531   3.165  16.419   1.369 -0.1901 -0.1058 -0.3165
 2348W        W18532  10.337   4.876   2.391 -0.0022 -0.2407  0.2766
 2349W        W18533  11.672   3.118   0.745  0.1036 -0.3273 -0.3922
 2350W        W18534   5.621   8.700  14.133  0.1236 -0.2386  0.1872
 2351W        W18535  15.078   0.100  16.486 -0.0681  0.0865 -0.0749
 2352W        W18536  13.288   7.880   5.513  0.3317 -0.0026  0.0330
 2353W        W18537  14.553   0.497  15.147  0.0400 -0.2588  0.1485
 2354W        W18538   2.502   2.804  14.598 -0.2501  0.1908  0.0621
 2355W        W18539   5.084  14.921   1.483  0.0768 -0.1454  0.0454
 2356W        W18540   8.806  10.982   1.908  0.0485  0.1319  0.2420
 2357W        W18541   0.732  16.901  11.382 -0.0640 -0.0913  0.1072
 2358W        W18542   0.641  17.715   4.771  0.1348  0.1111 -0.1135
 2359W        W18543   1.464   5.193   4.476 -0.0025 -0.0763  0.0410
 2360W        W18544  16.901   1.252   2.868 -0.2028  0.1191  0.2861
 2361W        W18545   3.309   7.429  13.636 -0.2223  0.1570  0.1471
 2362W        W18546   3.154   3.146  11.830  0.1988 -0.0091  0.0948
 2363W        W18547   7.918  12.858   5.739  0.1352  0.1737  0.3159
 2364W        W18548  13.290  13.079  13.973  0.3598  0.3036 -0.2953
 2365W        W18549  10.842   3.741  14.932 -0.1391  0.2674  0.2101
 2366W        W18550   9.250   6.874  12.682 -0.2598  0.0657 -0.1163
 2367W        W18551   5.498  10.922   2.024 -0.1726 -0.1949 -0.1308
 2368W        W18552  17.963   2.516   1.983 -0.3065 -0.0838 -0.0530
 2369W        W18553   3.579  13.947  13.060  0.1831  0.3100 -0.3228
 2370W        W18554  14.228   6.070   3.435  0.1356  0.1219  0.0722
 2371W        W18555  12.536   1.554   1.590 -0.0936  0.0222 -0.0482
 2372W        W18556   2.589  15.935   2.065  0.0813 -0.0800  0.1446
 2373W        W18557  13.701  11.624  16.077  0.0369 -0.3127 -0.0496
 2374W        W18558   4.280  10.837  16.458  0.4053 -0.2640  0.0540
 2375W        W18559   8.571  14.835  16.130  0.0914 -0.0936 -0.0040
 2376W        W18560  10.022   6.242   1.740  0.2233  0.3384 -0.0369
 2377W        W18561   0.073   1.891  13.470 -0.2506 -0.0797 -0.0606
 2378W        W18562   2.963  10.831   0.827  0.2043 -0.3776  0.2303
 2379W        W18563   8.645  13.919   2.299  0.1928  0.2490  0.1316
 2380W        W18564   8.635   6.713   1.711 -0.4277 -0.2894  0.1507
 2381W        W18565   4.646   3.126  12.147  0.0279 -0.2969 -0.1872
 2382W        W18566  13.199  14.052   5.274 -0.2595 -0.0449  0.0752
 2383W        W18567  14.105   0.704   2.756  0.2638 -0.3418 -0.1973
 2384W        W18568   3.421   0.975   0.055 -0.0394  0.2447  0.0566
 2385W        W18569  13.212  16.148   0.573 -0.0956 -0.1917  0.1159
 2386W        W18570   4.783   5.827  16.116 -0.1852 -0.1753  0.1703
 2387W        W18571   3.455  10.599  12.968  0.2306 -0.2310  0.5249
 2388W        W18572  11.021   4.092   0.238 -0.1164  0.0450 -0.2584
 2389W        W18573   3.264   6.985  13.908  0.0152 -0.0185 -0.1510
 2390W        W18574   8.054   3.938   2.065 -0.0941  0.0423 -0.1038
 2391W        W18575   1.215  11.832   0.589 -0.0049  0.0665  0.0112
 2392W        W18576   2.548   3.809   4.579 -0.6004 -0.2045  0.0946
 2393W        W18577   0.186  11.723  11.670 -0.0312 -0.0335  0.0225
 2394W        W18578   6.078  16.181  15.386  0.0632  0.0124 -0.1186
 2395W        W18579   4.995   7.960   4.053 -0.0469 -0.2641  0.2158
 2396W        W18580  11.950   4.080  15.972 -0.0074  0.3042  0.1805
 2397W        W18581   6.489  11.509   1.182 -0.1289 -0.0417  0.3101
 2398W        W18582  18.002  14.517   0.865 -0.0260 -0.0157  0.0467
 2399W        W18583  10.825   3.014  12.609 -0.0458 -0.2884  0.5321
 2400W        W18584   0.864   4.590   4.577 -0.2380 -0.0569  0.1831
 2401W        W18585   1.919  11.016   3.627 -0.1418  0.1965  0.0793
 2402W        W18586  10.151  11.676  14.908  0.2521  0.1593  0.1135
 2403W        W18587   9.546   4.993  13.607 -0.0522 -0.0264 -0.0132
 2404W        W18588   1.181   4.193  12.782  0.2545  0.0074 -0.1371
 2405W        W18589   2.092   7.554  15.368  0.1258 -0.0266  0.3083
 2406W        W18590  11.328   1.064   4.232 -0.0261  0.3103 -0.0210
 2407W        W18591   7.106  11.508  14.419  0.1173 -0.1102 -0.0957
 2408W        W18592   6.112   2.466   5.546 -0.2044 -0.1242 -0.4251
 2409W        W18593   7.650  15.347  11.807 -0.1876  0.0680 -0.1921
 2410W        W18594  11.821   3.373   2.730  0.0060  0.2842 -0.0748
 2411W        W18595   4.507   1.078  16.144 -0.1941  0.2830  0.1669
 2412W        W18596  10.842  14.835   3.004 -0.0103 -0.1480 -0.1336
 2413W        W18597  15.897   9.792  15.935  0.4187 -0.0688 -0.2787
 2414W        W18598  13.908  11.057  16.347 -0.1104  0.1336 -0.0739
 2415W        W18599  13.955  16.712  13.679  0.0174  0.2776 -0.1669
 2416W        W18600   0.728   5.845  14.812 -0.0001  0.0478 -0.2436
 2417W        W18601  15.191   2.083   1.197  0.1601 -0.0858  0.1866
 2418W        W18602   3.643  15.622  12.510  0.0802  0.0022 -0.0859
 2419W        W18603   7.359  16.159  15.031  0.3161 -0.0003  0.2258
 2420W        W18604  10.493  14.706  15.545  0.2178  0.2505  0.1937
 2421W        W18605   3.664   7.885  13.268 -0.2222 -0.1313 -0.2505
 2422W        W18606   7.904   0.464   3.573  0.0781  0.0570 -0.1932
 2423W        W18607   4.292   4.667  12.589 -0.1206 -0.0616 -0.1227
 2424W        W18608  15.686   5.831  13.316  0.1696  0.1440  0.0851
 2425W        W18609   7.389   8.768  11.961 -0.0496 -0.2626  0.0685
 2426W        W18610   1.936  16.763   1.317  0.1442 -0.1348 -0.0304
 2427W        W18611  11.520  15.041  12.952  0.3056  0.0294 -0.0773
 2428W        W18612   5.769   4.766   1.328  0.1560 -0.0828  0.2836
 2429W        W18613  17.404  17.004   3.302 -0.2542 -0.1190 -0.0269
 2430W        W18614  12.378  17.648  13.086 -0.2747 -0.0177 -0.1374
 2431W        W18615   5.546  11.581   5.812 -0.0411  0.0154 -0.0893
 2432W        W18616   1.689   4.489  13.201 -0.1584  0.0194  0.1700
 2433W        W18617  14.017  10.843  13.578 -0.1270 -0.2486  0.2175
 2434W        W18618  15.806   3.878   0.459 -0.1489 -0.1196 -0.4599
 2435W        W18619   0.487   4.192   1.336  0.0089  0.0034 -0.0335
 2436W        W18620  11.776   2.666  11.297  0.0292  0.0111 -0.0232
 2437W        W18621   5.806   7.545  16.579 -0.0827 -0.0196 -0.1255
 2438W        W18622  12.221   5.914  12.117  0.2178 -0.2936 -0.2840
 2439W        W18623   0.277  12.483  14.722  0.3086  0.1503 -0.0711
 2440W        W18624   1.000   8.335   2.437 -0.0526 -0.1714  0.0012
 2441W        W18625  12.351  15.124  16.648  0.1632  0.2838 -0.1825
 2442W        W18626   3.170   7.941  13.579  0.3997 -0.0342  0.3466
 2443W        W18627   6.661  12.377   4.852  0.4666 -0.1379 -0.1031
 2444W        W18628   7.776   8.823  11.597 -0.4837 -0.4618 -0.2014
 2445W        W18629   4.419  15.758   4.406 -0.1872 -0.0891  0.0154
 2446W        W18630   4.371  12.111   5.524  0.3861  0.0931 -0.1227
 2447W        W18631   8.370  16.152  15.894  0.1091  0.0466 -0.0961
 2448W        W18632   9.675  15.193   0.336 -0.0025  0.0550  0.0471
 2449W        W18633   8.936  13.079  11.253 -0.2878 -0.1165  0.2576
 2450W        W18634   6.631   9.023  11.825 -0.1527 -0.0464 -0.2342
 2451W        W18635   9.206   3.789   4.994  0.2723  0.0637  0.1534
 2452W        W18636   5.470  18.054   0.529 -0.0054 -0.3340  0.2875
 2453W        W18637   2.870   3.325   4.781  0.0840 -0.0915  0.4182
 2454W        W18638  12.101   3.734   2.994 -0.0179 -0.0496  0.4842
 2455W        W18639   0.884   8.692   4.502 -0.1285 -0.2457 -0.0797
 2456W        W18640   1.318   3.134  14.220 -0.1942  0.0593  0.1675
 2457W        W18641  10.352   9.660   0.406 -0.3001 -0.1168  0.0595
 2458W        W18642  18.045  16.097  16.441 -0.0953  0.4183 -0.1077
 2459W        W18643   5.084   0.004   1.377 -0.3585  0.0334 -0.1575
 2460W        W18644  16.898   4.710  16.330  0.1037 -0.3982 -0.0176
 2461W        W18645   4.561  10.672   2.095  0.2508 -0.1120  0.3525
 2462W        W18646   4.688  17.366  16.095  0.2667  0.0671  0.1724
 2463W        W18647  16.370   6.498  15.331 -0.1568  0.4654 -0.3880
 2464W        W18648  10.972   8.733  14.606  0.2307 -0.1872 -0.1661
 2465W        W18649  15.012   0.602   3.238 -0.0088 -0.0724 -0.2364
 2466W        W18650   8.259   7.125   0.044 -0.0537 -0.0556 -0.1809
 2467W        W18651  13.976  12.355   5.582 -0.0408  0.1478  0.0267
 2468W        W18652  11.066   2.675  15.347  0.0927 -0.0620  0.2177
 2469W        W18653  12.085  10.269  14.057 -0.1368  0.0364 -0.0135
 2470W        W18654  12.537  15.045  13.347 -0.1305 -0.1609 -0.1514
 2471W        W18655   9.510  17.362  12.314 -0.3117  0.0678  0.0213
 2472W        W18656   6.787   1.899   0.569 -0.0610  0.2411  0.2422
 2473W        W18657  12.908  13.462   3.643  0.1062  0.2679  0.1679
 2474W        W18658  10.716   0.974  14.554 -0.2258  0.3799  0.0465
 2475W        W18659  16.990   9.834   4.135 -0.0473 -0.1644 -0.2001
 2476W        W18660  16.658   7.804  11.941 -0.0331 -0.0393  0.0282
 2477W        W18661  17.091   3.176  12.877 -0.0308  0.2703 -0.4091
 2478W        W18662   7.829  14.506   4.534  0.0770  0.0629  0.1012
 2479W        W18663  10.234  11.472  12.665  0.2726  0.0130 -0.1734
 2480W        W18664  12.539  15.597   2.703 -0.0491 -0.0529  0.0269
 2481W        W18665   5.637   4.017   4.869  0.0399  0.0073  0.2106
 2482W        W18666   8.755   0.822  14.875 -0.1154 -0.5861  0.6688
 2483W        W18667  14.751   0.920  14.872  0.2271 -0.2321  0.2837
 2484W        W18668   7.920   3.681   0.467 -0.1823 -0.0141  0.2491
 2485W        W18669   3.527   7.455   3.103 -0.0523 -0.0839  0.0362
 2486W        W18670   6.097  13.422  15.138  0.0541  0.2123  0.1388
 2487W        W18671  15.717   7.123  11.265  0.3269 -0.3977  0.3211
 2488W        W18672   1.204   1.195  14.677  0.0338 -0.0828 -0.0405
 2489W        W18673  17.026  12.361  15.597 -0.1763  0.2417  0.0435
 2490W        W18674   2.471  10.352  11.467 -0.0418  0.0707  0.0025
 2491W        W18675   0.580   1.828   0.943  0.0202 -0.4029 -0.1469
 2492W        W18676   0.072  11.127   2.265  0.1416 -0.1549 -0.4258
 2493W        W18677   7.624  17.610   5.095 -0.1619 -0.1389  0.1710
 2494W        W18678  16.141  16.492   2.170 -0.0407 -0.0996 -0.3623
 2495W        W18679   2.459  16.400  14.180  0.0657 -0.1064 -0.4285
 2496W        W18680   8.549   4.062  16.189  0.0481  0.0180  0.0158
 2497W        W18681  13.917   6.019  11.243 -0.1067  0.3647  0.1304
 2498W        W18682   5.069  10.002   0.947  0.0462  0.0070  0.0096
 2499W        W18683  17.102  12.513   1.033 -0.2552  0.2193 -0.0557
 2500W        W18684   2.060   5.241  12.737 -0.1958 -0.0572  0.3252
 2501W        W18685   1.948  10.116   4.219  0.0308 -0.2713  0.0309
 2502W        W18686   5.589   8.303   1.171  0.0638 -0.0851 -0.0307
 2503W        W18687   0.708   7.583   1.464 -0.2216 -0.2230 -0.0283
 2504W        W18688  17.227   6.005  15.815  0.1348  0.0033  0.1003
 2505W        W18689   8.031   7.561   0.303  0.1448  0.0611  0.1229
 2506W        W18690   4.796  14.199   3.087 -0.2657 -0.0604 -0.0449
 2507W        W18691  12.167  12.425   5.634 -0.1168 -0.2067 -0.1033
 2508W        W18692  15.163   2.470  12.891  0.0881 -0.0298  0.0720
 2509W        W18693   3.914  11.585   0.139 -0.3162 -0.3333  0.0011
 2510W        W18694  14.827  16.548  12.413  0.5999  0.0869 -0.1437
 2511W        W18695   1.682   2.642  12.904  0.3756  0.1456  0.0311
 2512W        W18696   7.573  13.309   3.788  0.1253  0.0525 -0.1155
 2513W        W18697  16.977  14.787  12.167 -0.0848  0.0714  0.3449
 2514W        W18698   6.732  16.886  16.478 -0.1688  0.0437 -0.2177
 2515W        W18699   0.526   8.847   4.167  0.0575  0.0319  0.1682
 2516W        W18700  13.042   6.975  12.619 -0.0630  0.0551  0.1627
 2517W        W18701  11.844  15.579   5.685 -0.0919  0.0810 -0.2149
 2518W        W18702   7.242   4.097  15.881 -0.1699 -0.5107  0.0491
 2519W        W18703   5.673   6.733  16.168  0.0106 -0.0947 -0.1468
 2520W        W18704   9.934   2.430   2.284  0.2270  0.2310 -0.0330
 2521W        W18705  15.885   7.806   2.930  0.0979 -0.2363 -0.3286
 2522W        W18706   9.966   8.587   4.448  0.1069 -0.0563  0.1595
 2523W        W18707  17.782  10.059   5.219  0.1478 -0.1473  0.1812
 2524W        W18708   3.316  11.251   5.517  0.0464  0.2588 -0.2345
 2525W        W18709  12.460   5.499   3.499 -0.1462  0.1003 -0.0441
 2526W        W18710   5.012   1.986  12.746  0.1600  0.0467 -0.0771
 2527W        W18711  11.107   9.983   0.789  0.1811  0.0487  0.2489
 2528W        W18712  13.227  13.204  15.138  0.2700 -0.0295  0.2085
 2529W        W18713  12.610  12.973   4.718 -0.0195  0.0282  0.2213
 2530W        W18714  10.560   1.774   4.050  0.0960  0.2283  0.0224
 2531W        W18715  16.390  15.547   3.334  0.3190 -0.0137 -0.2142
 2532W        W18716  16.118   4.225  16.145  0.0124 -0.0391  0.0038
 2533W        W18717   0.574  14.625  15.975  0.2358  0.0050  0.1547
 2534W        W18718   4.434   2.588  14.841 -0.1636  0.6211  0.0415
 2535W        W18719   6.414  14.453   4.101  0.2259  0.0094  0.0624
 2536W        W18720   9.025   4.292  16.624  0.2884 -0.0341  0.2159
 2537W        W18721  10.839  14.352  14.149 -0.3700 -0.3342  0.1130
 2538W        W18722   2.919  13.518   5.560  0.2441 -0.2114  0.2874
 2539W        W18723  12.816   6.933   4.944  0.3201 -0.1272  0.1010
 2540W        W18724   5.586   9.515  12.470  0.2076  0.1337  0.1080
 2541W        W18725  16.222   2.946  13.420  0.0985 -0.0459 -0.1357
 2542W        W18726   7.047  11.930  15.039  0.0838 -0.0282 -0.1633
 2543W        W18727   6.705  10.605  12.454 -0.0145 -0.2004  0.0483
 2544W        W18728  10.856   1.610  11.528 -0.1223  0.2811  0.4093
 2545W        W18729   0.455   1.118  13.887  0.0158 -0.2337  0.1482
 2546W        W18730  14.134  17.562  14.184 -0.1344  0.0388 -0.2528
 2547W        W18731   8.178   0.627   1.212 -0.1175  0.0196  0.0204
 2548W        W18732   9.209  15.678   1.064 -0.2037  0.1560  0.2925
 2549W        W18733   3.354  13.676   3.846 -0.0095  0.1975  0.2512
 2550W        W18734   1.363   2.398  12.501 -0.0124  0.1813 -0.3922
 2551W        W18735  17.923   5.498  14.023 -0.0081  0.0828 -0.0410
 2552W        W18736   9.653  16.820  15.287  0.3622  0.3117 -0.1882
 2553W        W18737   5.977  12.628  14.796  0.2533  0.0892  0.2119
 2554W        W18738  14.161   4.690   1.954 -0.1055  0.0176  0.0979
 2555W        W18739   9.343   9.929   4.500 -0.2629 -0.0557  0.2927
 2556W        W18740   2.660  17.180  14.870  0.0668  0.1382 -0.5318
 2557W        W18741  15.149  16.128  12.654 -0.0634 -0.0366 -0.0732
 2558W        W18742  13.750   9.331   1.475 -0.1402 -0.1614 -0.4524
 2559W        W18743   1.301  14.659   4.218  0.0820 -0.3144  0.1966
 2560W        W18744  17.596  12.967   3.469 -0.4285 -0.0098 -0.4604
 2561W        W18745  13.733   5.074  11.802  0.1067  0.1521  0.0793
 2562W        W18746  14.950   9.341  16.247  0.0403 -0.2039 -0.2436
 2563W        W18747   3.212  17.590   1.054 -0.1697 -0.0293  0.0368
 2564W        W18748   5.192  10.010  12.515  0.0279 -0.2630  0.0292
 2565W        W18749   4.787   1.582  14.021 -0.3162  0.0188  0.1501
 2566W        W18750  11.337   4.659   5.859  0.1664  0.0871  0.3621
 2567W        W18751   8.339   2.218  11.742  0.0738 -0.0404  0.3097
 2568W        W18752  14.820   9.593  14.567  0.0656 -0.4448 -0.1926
 2569W        W18753  13.548   5.208   5.530 -0.1275  0.4237 -0.0977
 2570W        W18754  17.379  10.037   4.974  0.3611  0.1036  0.2495
 2571W        W18755  17.163  17.908  16.061  0.1487 -0.0890  0.2377
 2572W        W18756  14.112   5.786   2.639  0.0646 -0.3086 -0.3967
 2573W        W18757  17.721  11.447   0.281 -0.0726 -0.1617  0.2033
 2574W        W18758  17.405  11.417   2.636  0.0028  0.1553 -0.3324
 2575W        W18759   0.297   6.973  11.022 -0.1343  0.0908  0.3167
 2576W        W18760   1.261  10.647  12.549 -0.0230 -0.5627  0.2654
 2577W        W18761   9.186   5.439  12.727 -0.2548  0.1353 -0.1916
 2578W        W18762  13.762   1.262   3.502 -0.2220  0.0155  0.3566
 2579W        W18763   8.412  13.938  16.131  0.1136  0.1548 -0.1691
 2580W        W18764  15.184   1.610   2.150 -0.1276 -0.0864 -0.0511
 2581W        W18765  10.860  13.978  16.155 -0.0673 -0.0458 -0.1909
 2582W        W18766   7.214   7.976   1.835  0.0772 -0.1152 -0.0428
 2583W        W18767  11.200  14.719  14.079  0.0970 -0.1405  0.0855
 2584W        W18768  14.845   6.000  14.568 -0.1177  0.0969 -0.1007
 2585W        W18769   8.908   1.462  14.991 -0.2732 -0.3395  0.2824
 2586W        W18770   6.019  14.180   3.826 -0.1641 -0.0482  0.1848
 2587W        W18771   0.651  14.552   5.590  0.1541  0.0558  0.1912
 2588W        W18772   7.363   7.446   4.304 -0.2491 -0.1570 -0.2372
 2589W        W18773   5.211   0.632   4.104  0.1956  0.2946 -0.0620
 2590W        W18774   1.421  16.373   3.016 -0.0088  0.0748  0.1723
 2591W        W18775  17.276   6.460  15.413  0.1348  0.2077 -0.0438
 2592W        W18776  11.974   0.471  12.153 -0.0050  0.0804 -0.0546
 2593W        W18777  12.378  10.974  16.679 -0.0242  0.3602 -0.2335
 2594W        W18778  10.202   0.064  15.930  0.1666  0.0026  0.0156
 2595W        W18779   1.027  14.701   5.844 -0.1755 -0.1065  0.0985
 2596W        W18780   7.622   2.004  12.629 -0.3266  0.1695  0.2129
 2597W        W18781  14.944  11.625  16.137  0.0690 -0.2194  0.0712
 2598W        W18782   0.700  11.979  13.087 -0.3467  0.1454  0.0808
 2599W        W18783  16.037   1.439  12.543 -0.2860  0.0976  0.0780
 2600W        W18784   2.620   4.113   5.259  0.0470  0.0426 -0.1912
 2601W        W18785  17.367  16.980  15.468 -0.3483 -0.1974  0.1146
 2602W        W18786  10.630   6.070  12.947  0.1585  0.2136 -0.0003
 2603W        W18787  15.471   4.400  13.163 -0.1419  0.2711 -0.3718
 2604W        W18788   0.941   2.869   0.245  0.1328  0.1887  0.0653
 2605W        W18789  16.386  11.555  16.608 -0.0165  0.0547 -0.1252
 2606W        W18790  17.352   3.764   4.436 -0.2049 -0.1194  0.1318
 2607W        W18791  16.570   0.665   4.901  0.3425 -0.0020  0.2285
 2608W        W18792  12.607   2.304   2.405 -0.4384 -0.1269  0.1590
 2609W        W18793   6.121   0.185   0.648  0.2187 -0.0475  0.3748
 2610W        W18794  13.537  18.137   3.236  0.1217 -0.0674 -0.0197
 2611W        W18795   9.412   9.683   5.789 -0.1625  0.0102 -0.0270
 2612W        W18796   3.031  11.369   3.910  0.4474  0.1526 -0.1749
 2613W        W18797  15.279   5.165   0.443 -0.1627  0.0921 -0.0277
 2614W        W18798  18.005   8.771  15.687 -0.1266  0.0184  0.1412
 2615W        W18799  13.115   4.088   3.267 -0.0740 -0.0287  0.0581
 2616W        W18800   6.350  18.157   2.859  0.0925  0.1833  0.2761
 2617W        W18801   6.911   3.213   4.202 -0.3682  0.0885 -0.0178
 2618W        W18802  15.225   5.576   4.839  0.0652  0.1465 -0.1948
 2619W        W18803   5.790   5.889   0.134  0.2587 -0.0185 -0.0108
 2620W        W18804  12.837   4.214  15.598 -0.4405 -0.0873 -0.3789
 2621W        W18805   6.629  10.596  15.077 -0.0624  0.0291 -0.0986
 2622W        W18806   9.246  13.900  12.914 -0.1232 -0.2153  0.3802
 2623W        W18807  12.812   9.815   3.669 -0.0665  0.2297 -0.3803
 2624W        W18808   4.333   9.702  13.290 -0.0206 -0.2810  0.0495
 2625W        W18809  17.310   5.421  11.401 -0.2715 -0.2170  0.0444
 2626W        W18810  14.085  16.165  14.597 -0.2771  0.1277 -0.0673
 2627W        W18811   4.730  15.333  13.372  0.1372  0.1980  0.0390
 2628W        W18812   9.317   8.266   1.444  0.1353 -0.3011  0.0638
 2629W        W18813   1.092  12.774  15.039 -0.0443  0.4073  0.1798
 2630W        W18814   1.758   2.100  12.272 -0.1322 -0.1286  0.0567
 2631W        W18815   3.515  10.873   2.800 -0.1288  0.1175  0.1544
 2632W        W18816   9.977   0.090   4.405 -0.1913 -0.1208  0.1651
 2633W        W18817  14.477  15.733  13.195  0.0131 -0.1012 -0.2262
 2634W        W18818   0.567   4.549  15.714  0.1528 -0.0002 -0.1498
 2635W        W18819   5.429   4.180  15.944 -0.3762  0.0499 -0.0720
 2636W        W18820   6.945  16.755   5.599 -0.2615 -0.0337 -0.0403
 2637W        W18821   5.167  13.491   3.945 -0.1784 -0.0138 -0.3369
 2638W        W18822   9.188   5.234   4.161  0.0949 -0.1629 -0.2272
 2639W        W18823   1.393  11.504  12.598 -0.0840  0.0278 -0.0170
 2640W        W18824   1.676   5.211  10.414  0.1802  0.0776 -0.0375
 2641W        W18825  15.494   5.302  11.598  0.0474 -0.2387  0.1192
 2642W        W18826   8.650   0.853   3.813  0.1602  0.0377  0.2456
 2643W        W18827  14.772   7.398  16.535 -0.0797 -0.0135  0.1901
 2644W        W18828  15.501   1.352  15.866 -0.0450  0.3076 -0.0500
 2645W        W18829   1.833  16.742   5.805  0.2111  0.1235 -0.0058
 2646W        W18830  11.614   7.766  12.316  0.0445 -0.1428  0.3382
 2647W        W18831  16.517   9.235  12.622 -0.0279 -0.2642  0.2040
 2648W        W18832  16.570  12.729  13.181 -0.2315  0.1514  0.1027
 2649W        W18833   2.837  11.647  12.691  0.0754 -0.1149 -0.1110
 2650W        W18834   2.985  14.596  12.860  0.1439  0.3258 -0.2213
 2651W        W18835  13.834   6.165   3.068 -0.0339 -0.1805  0.2425
 2652W        W18836   3.709  12.524  15.229  0.1757  0.1221 -0.1521
 2653W        W18837   0.234   7.829   2.515  0.1228  0.3169  0.0634
 2654W        W18838   9.902   4.017   0.622 -0.0158  0.1294  0.0508
 2655W        W18839  10.189   2.795  11.876  0.0357  0.1118 -0.2369
 2656W        W18840   3.326  12.542   1.131  0.2030  0.3011 -0.1048
 2657W        W18841  11.226  16.756   5.228 -0.0111  0.1826 -0.1658
 2658W        W18842  13.694   6.610   4.341  0.1897 -0.0007 -0.0151
 2659W        W18843   0.599   9.973   0.960  0.2332  0.1383  0.0480
 2660W        W18844  16.049  13.864  10.748 -0.0214 -0.2149 -0.2068
 2661W        W18845   4.471   2.862  15.297  0.2834 -0.0801  0.0223
 2662W        W18846   2.826   4.150   1.931 -0.1313 -0.0124 -0.0304
 2663W        W18847  13.079  16.761   5.194 -0.0292  0.0316 -0.0315
 2664W        W18848   5.330  17.042  13.986  0.1656 -0.0528  0.1291
 2665W        W18849   2.636   6.041   3.202 -0.1098 -0.4960  0.1655
 2666W        W18850  11.739  16.477   2.913 -0.0190  0.1102  0.4639
 2667W        W18851  11.364   8.552   5.059 -0.0721  0.1152  0.2203
 2668W        W18852   4.640   5.804  14.631 -0.0752  0.0929 -0.0633
 2669W        W18853   4.695  12.411   5.684 -0.1213  0.2703 -0.0683
 2670W        W18854  18.106   0.589  12.797  0.2371  0.2151  0.1613
 2671W        W18855  17.662   9.870  15.540  0.3934 -0.0396  0.1641
 2672W        W18856   8.757   8.884   2.804 -0.1181 -0.0216 -0.1655
 2673W        W18857   6.928  11.270  16.379 -0.2280 -0.2074 -0.2800
 2674W        W18858   4.838   5.654   2.613  0.0172 -0.1393  0.0333
 2675W        W18859   8.303   6.979   2.419 -0.2713  0.1821  0.0674
 2676W        W18860  16.063   1.586  15.752 -0.2520  0.0429 -0.1142
 2677W        W18861   6.396   3.597  14.179  0.0230 -0.1665 -0.2806
 2678W        W18862   6.499  11.067  13.796  0.1711  0.0975 -0.0320
 2679W        W18863   7.661  12.145   1.730 -0.1381 -0.1651  0.0782
 2680W        W18864   6.724   2.346   3.904  0.1362 -0.0717  0.2223
 2681W        W18865   4.766   0.555   3.855 -0.1272  0.0558  0.4763
 2682W        W18866   6.515  10.965  15.993 -0.0514  0.0136 -0.3226
 2683W        W18867   5.221   1.512  13.768  0.1239 -0.1960  0.3232
 2684W        W18868   9.831   4.431  12.788 -0.3054  0.2703 -0.2266
 2685W        W18869   7.566   7.698   0.403  0.0638  0.2066 -0.0542
 2686W        W18870   2.795   3.044   3.900 -0.0634 -0.0398  0.3456
 2687W        W18871  11.238  10.818   2.994 -0.0831  0.1553  0.1858
 2688W        W18872  13.770   7.964  14.126  0.2034  0.0673 -0.1172
 2689W        W18873   8.373  13.033   5.660  0.1862  0.2462 -0.0113
 2690W        W18874   0.532   8.696  13.948 -0.0079  0.1442 -0.0456
 2691W        W18875   5.319   3.969  12.914  0.0339 -0.0652 -0.0327
 2692W        W18876   9.664   8.217   3.513  0.0631 -0.0118 -0.0062
 2693W        W18877  17.351   4.075  12.783  0.0714  0.0660  0.0543
 2694W        W18878   0.725  12.342  14.922  0.0789  0.2207  0.1171
 2695W        W18879  12.047   1.559   2.140 -0.2489 -0.0969  0.2303
 2696W        W18880  13.679   3.603  16.379 -0.1698 -0.0853  0.0141
 2697W        W18881   1.324   1.358  12.459  0.0598  0.1685 -0.2256
 2698W        W18882   3.068   4.928   1.628 -0.1251  0.2643 -0.3508
 2699W        W18883   5.252  15.922  13.391 -0.2313 -0.1121  0.0186
 2700W        W18884  11.658   1.074   0.270  0.1126  0.0324  0.1049
 2701W        W18885   6.581   4.484   5.161  0.0091 -0.2621  0.1640
 2702W        W18886   3.555  16.919   1.657  0.0818 -0.1094  0.1805
 2703W        W18887   2.402   9.999   3.957  0.0985 -0.1347  0.1805
 2704W        W18888   3.650  13.640   5.145 -0.0557 -0.2235 -0.0135
 2705W        W18889  11.466  14.009  11.769 -0.0110 -0.2058 -0.2067
 2706W        W18890   6.500   9.799  12.300 -0.0871  0.0170  0.1016
 2707W        W18891  17.811   6.286  11.433 -0.2418 -0.2302  0.2908
 2708W        W18892   4.330   2.714   4.513 -0.2854 -0.2238 -0.0959
 2709W        W18893  13.276   9.001   0.619 -0.1229 -0.0213 -0.0907
 2710W        W18894  12.311   3.564  16.381  0.3786  0.0786  0.1580
 2711W        W18895  17.989   9.719   0.539 -0.0319 -0.0959  0.3866
 2712W        W18896   4.039   9.925  11.789  0.1938 -0.1160 -0.2374
 2713W        W18897   7.016  14.126   4.845  0.1159 -0.3031  0.1587
 2714W        W18898   8.628   0.418   3.098  0.0061 -0.1562  0.2624
 2715W        W18899   2.324  17.962   1.096 -0.0515  0.0144  0.1806
 2716W        W18900   3.156  10.651  16.593  0.3516  0.0475  0.1312
 2717W        W18901   8.027   9.818   1.238  0.0122 -0.1441  0.2654
 2718W        W18902   2.006   6.494   0.757  0.0441  0.3049  0.1171
 2719W        W18903  18.172   5.031  14.002 -0.2542  0.0797 -0.2905
 2720W        W18904   3.692  13.222   1.671 -0.3290 -0.0222 -0.3190
 2721W        W18905  14.848   1.477   5.865 -0.0272 -0.2449 -0.0248
 2722W        W18906   0.699  10.761   1.520  0.2744 -0.2679 -0.1681
 2723W        W18907   3.040  15.711   2.934  0.1213  0.2235  0.2627
 2724W        W18908   7.318   2.292   2.246  0.3632  0.0632 -0.0606
 2725W        W18909   8.427   4.890   1.378 -0.1618 -0.1389 -0.3639
 2726W        W18910   8.447   9.879   2.754  0.1306 -0.0904 -0.1009
 2727W        W18911  14.919   1.011  12.946 -0.1818  0.2197 -0.1661
 2728W        W18912  11.670   1.398  12.792  0.0237 -0.0788  0.3466
 2729W        W18913   1.974   8.360  15.154  0.3411  0.0336 -0.1320
 2730W        W18914   7.749   7.299   4.713 -0.1265  0.0554 -0.2777
 2731W        W18915  17.960   3.492  14.918  0.1208  0.0780  0.0790
 2732W        W18916  14.063   6.027  14.064 -0.0539 -0.2491 -0.1724
 2733W        W18917   8.777  12.571  14.882 -0.1564  0.1030  0.0677
 2734W        W18918   9.910   2.657  13.305  0.0420  0.0268 -0.0940
 2735W        W18919   1.124   3.959  13.729  0.0768  0.0825  0.0603
 2736W        W18920   6.369  13.642   0.539  0.3068 -0.2128  0.1508
 2737W        W18921   7.575   2.107   1.746  0.1496  0.1462 -0.1755
 2738W        W18922  16.952  14.260   6.216 -0.6525 -0.0971  0.1205
 2739W        W18923  11.875   2.044   1.923 -0.0041 -0.2695  0.0556
 2740W        W18924  17.174   3.103   1.237 -0.0483 -0.2274 -0.0470
 2741W        W18925   4.499   1.007   4.057 -0.1422 -0.2335  0.0169
 2742W        W18926  15.563  13.055   0.814  0.2083  0.1932  0.0039
 2743W        W18927   1.715  10.214   3.357  0.2258 -0.0756  0.2526
 2744W        W18928  13.647   8.950   4.131  0.1493 -0.2881  0.2038
 2745W        W18929  17.077  17.890   1.435 -0.3120  0.2578 -0.1488
 2746W        W18930   1.651  17.936  12.369 -0.1180 -0.0774  0.0492
 2747W        W18931  16.719   7.661  14.734  0.1210 -0.0800 -0.1115
 2748W        W18932   5.044   0.177   3.658 -0.1645  0.2416 -0.0582
 2749W        W18933  16.776  11.892  15.557 -0.0958  0.2211 -0.2444
 2750W        W18934   7.140  18.146  12.450  0.1040  0.2794  0.1205
 2751W        W18935   4.511   0.884  14.321 -0.3402 -0.0703 -0.2894
 2752W        W18936   0.215   2.303   0.041  0.0512  0.0775 -0.0223
 2753W        W18937   6.733  16.243   0.620 -0.2239 -0.1479  0.0299
 2754W        W18938  11.579  17.954  16.123 -0.0347  0.0098  0.0169
 2755W        W18939  10.840  14.392   1.356  0.2043 -0.2025  0.0836
 2756W        W18940   3.787   9.194   2.299 -0.0693  0.1811  0.0929
 2757W        W18941   0.306   1.447  11.578 -0.1231  0.0969 -0.0298
 2758W        W18942   6.791   2.636   1.320 -0.1880 -0.2367 -0.1549
 2759W        W18943   9.866   9.293   5.097 -0.0403  0.1539  0.0145
 2760W        W18944  12.895   3.118   1.836 -0.0524 -0.0249  0.1714
 2761W        W18945  12.662   9.946  16.202 -0.0033  0.0773 -0.0904
 2762W        W18946   2.608   1.821  13.342  0.0679 -0.2595  0.3021
 2763W        W18947   0.558  16.094   3.450  0.0984  0.1054  0.2262
 2764W        W18948   6.370  13.452   4.781  0.0895  0.1624  0.0785
 2765W        W18949  12.707  10.815   0.881 -0.1284 -0.0892 -0.0964
 2766W        W18950   4.965  16.249  12.136 -0.0871 -0.0612  0.0513
 2767W        W18951  15.614   0.570  12.229  0.2450 -0.2518 -0.1079
 2768W        W18952  17.646  15.486  15.654 -0.1766 -0.1144 -0.1067
 2769W        W18953  16.574  12.034   0.269  0.0202  0.0527 -0.3057
 2770W        W18954  18.157   7.916   3.049 -0.0231  0.0182 -0.3324
 2771W        W18955  12.134  11.259  15.154 -0.1651 -0.1718  0.0513
 2772W        W18956  11.410   5.781   2.569  0.2806 -0.2464  0.0708
 2773W        W18957   3.919  10.194   5.546  0.0836  0.2405  0.1562
 2774W        W18958  13.751  12.976  16.389 -0.3595  0.0418  0.1872
 2775W        W18959   4.140   0.963   3.093  0.0213  0.2745 -0.3152
 2776W        W18960  17.809  10.288   4.756 -0.1814  0.0149 -0.4490
 2777W        W18961   3.857  14.607  16.213 -0.3588  0.2113  0.0125
 2778W        W18962   9.784  12.895   3.791  0.0460 -0.0702 -0.3628
 2779W        W18963   3.945   5.964  12.049  0.0971  0.1351  0.1504
 2780W        W18964   8.906   8.212   5.854  0.1430  0.2131  0.0795
 2781W        W18965   5.729  15.211  11.964  0.2125  0.2169  0.0939
 2782W        W18966  14.148  17.709  12.627 -0.1465 -0.1123  0.0618
 2783W        W18967  14.852   9.732   0.663 -0.0102  0.2688 -0.0216
 2784W        W18968   2.971   3.078   3.365 -0.0757 -0.0749  0.1004
 2785W        W18969   6.289   9.945  16.605 -0.2629  0.0883  0.1371
 2786W        W18970   7.006   2.731   0.814  0.1547 -0.0797 -0.1306
 2787W        W18971   7.862   5.442   3.086  0.1189  0.2139  0.1824
 2788W        W18972  10.174   4.595   1.768  0.1337  0.5699 -0.1206
 2789W        W18973  17.939   8.771   2.455 -0.0406  0.3015 -0.1052
 2790W        W18974  17.603   0.089  11.650 -0.0384  0.0259  0.1269
 2791W        W18975   7.950   0.850  15.982 -0.1669  0.0372  0.0108
 2792W        W18976   7.973   3.861   5.962 -0.0436  0.0393 -0.1126
 2793W        W18977   1.664  10.298   2.389 -0.0180  0.3273  0.2899
 2794W        W18978   7.327   5.928   5.332 -0.2448 -0.1606  0.6159
 2795W        W18979  16.114   9.855   4.195  0.2078  0.0632  0.1235
 2796W        W18980   4.984  18.009   0.213  0.0621 -0.2581 -0.0934
 2797W        W18981   0.765   1.156  10.968  0.2425 -0.0878 -0.2459
 2798W        W18982  15.756  15.012   0.299  0.0402  0.1351 -0.0275
 2799W        W18983   6.432   8.734   5.496 -0.0437  0.3456 -0.1658
 2800W        W18984  11.176   8.804   0.605 -0.0280  0.0324 -0.1565
 2801W        W18985  16.552   6.805  16.349  0.0940 -0.0601  0.1824
 2802W        W18986   2.073   7.130   3.195 -0.1948 -0.0251 -0.1567
 2803W        W18987   7.476  10.783  15.833  0.0388  0.4543  0.1157
 2804W        W18988  15.267  11.958  12.757  0.3103 -0.2157  0.2466
 2805W        W18989   7.442  11.969   5.806 -0.0741  0.0529  0.0050
 2806W        W18990  11.283   2.650   4.919  0.0484  0.0566 -0.0141
 2807W        W18991   3.881   4.927   4.719 -0.0226  0.1617  0.2451
 2808W        W18992  16.866  14.832  16.307  0.0326  0.2032 -0.0923
 2809W        W18993   4.660   9.778   0.149 -0.1200 -0.2119 -0.0993
 2810W        W18994   8.122   5.852   4.775  0.1706  0.0640 -0.0775
 2811W        W18995   8.331  17.230   0.819  0.1646 -0.0242  0.0168
 2812W        W18996  14.796   4.738  16.577 -0.2014 -0.0960  0.0884
 2813W        W18997  15.077   9.825  16.022  0.0691  0.2362 -0.1833
 2814W        W18998   1.519  12.654  14.349 -0.0668  0.0199  0.2519
 2815W        W18999  14.718   0.154   2.425 -0.1655  0.0097 -0.0801
 2816W        W19000   7.526  15.764   4.030  0.1636 -0.3939 -0.0062
 2817W        W19001   9.028  14.537   4.858 -0.1483  0.0889  0.1202
 2818W        W19002  11.764  17.637   3.647 -0.1852  0.5150 -0.1973
 2819W        W19003   3.401  18.152   5.490  0.0702 -0.3543 -0.4457
 2820W        W19004   6.890   7.855   3.576  0.0011 -0.2391  0.0422
 2821W        W19005  15.447   1.275   5.010 -0.0176 -0.0032  0.2018
 2822W        W19006   4.126   8.564  14.066  0.3140  0.4650  0.0707
 2823W        W19007   2.182  10.783  15.992  0.2062 -0.0393  0.1734
 2824W        W19008  14.669  16.516   2.614 -0.0710 -0.2860 -0.0076
 2825W        W19009   6.661   1.193   2.787  0.1637  0.0437  0.0570
 2826W        W19010  15.498   1.654  12.538 -0.0125 -0.3052  0.0420
 2827W        W19011   1.975  12.963   3.793  0.2573 -0.0036  0.1690
 2828W        W19012  15.603   9.745   5.808  0.0011 -0.0247  0.1195
 2829W        W19013  10.222   4.574  15.197 -0.2439  0.1710 -0.1767
 2830W        W19014   4.481   1.285   1.568  0.1560 -0.0513 -0.1653
 2831W        W19015   0.837  13.447   5.091 -0.0481  0.0704 -0.1526
 2832W        W19016   9.868   9.907  13.128 -0.1742 -0.3849  0.1055
 2833W        W19017   1.088   4.207   3.490 -0.0574  0.0418  0.4006
 2834W        W19018  12.644   4.680   0.847  0.1360 -0.0942 -0.0601
 2835W        W19019  16.619  12.814  14.311  0.0903 -0.0402 -0.2483
 2836W        W19020  10.935   5.464  14.353 -0.1571 -0.0315  0.2306
 2837W        W19021   5.685   6.820   2.791  0.0482 -0.0472  0.0625
 2838W        W19022   4.816   7.501  11.914 -0.1767  0.1971  0.1454
 2839W        W19023  13.905  17.833  16.023  0.3911  0.1686  0.2199
 2840W        W19024   7.502  16.578   1.663 -0.3543  0.1093  0.1733
 2841W        W19025   0.844  14.200  14.999  0.1949 -0.0405 -0.4191
 2842W        W19026   6.478   0.880   5.628  0.0206  0.3736  0.1136
 2843W        W19027   6.497  12.747   5.168 -0.3408  0.2833  0.0498
 2844W        W19028  14.076  17.915   2.405  0.1975  0.1964  0.0617
 2845W        W19029   6.055   8.982  13.195 -0.0248  0.3177  0.0583
 2846W        W19030  10.527  10.520   2.373  0.0368 -0.0359 -0.0788
 2847W        W19031   2.361   8.140   2.968  0.2739  0.0964  0.4906
 2848W        W19032  13.565   8.201   1.426 -0.3004  0.1429 -0.0733
 2849W        W19033   4.142   9.009   0.522 -0.1522 -0.3683 -0.0353
 2850W        W19034  14.987  15.134  15.073 -0.2113 -0.1149  0.0998
 2851W        W19035  17.323  14.596  16.548 -0.1146 -0.0319 -0.2395
 2852W        W19036   5.855  10.026  16.418 -0.1467 -0.0230  0.1950
 2853W        W19037  10.665   8.363   5.407  0.1820 -0.0200 -0.0897
 2854W        W19038   2.864   2.265  13.212 -0.1414 -0.1374 -0.0108
 2855W        W19039   2.551   2.117   4.415  0.1092  0.1770  0.1508
 2856W        W19040  13.880  13.641  15.413 -0.0666  0.0356  0.3010
 2857W        W19041   8.906  11.137  14.743 -0.1440 -0.0082  0.1544
 2858W        W19042   9.059   4.028   1.625 -0.0576 -0.1694 -0.1883
 2859W        W19043   6.848   7.553   2.204 -0.1640  0.2042 -0.2483
 2860W        W19044   4.586   1.499   2.760  0.2120 -0.0504  0.2035
 2861W        W19045   3.028   1.089   1.167  0.2309  0.1151 -0.2245
 2862W        W19046  15.864   6.212   3.882  0.3347  0.2337  0.2440
 2863W        W19047   7.740   6.279   5.480  0.0650  0.2896  0.0987
 2864W        W19048   1.782   6.121  16.002  0.1319 -0.1451 -0.1833
 2865W        W19049   6.286   1.268   3.274 -0.2752  0.0403  0.1000
 2866W        W19050   7.730   0.830  13.406 -0.0330  0.0196 -0.4176
 2867W        W19051   8.526   9.514   5.397 -0.4158  0.0381 -0.2281
 2868W        W19052   1.274   8.153  13.836 -0.0385  0.3471  0.0872
 2869W        W19053  10.778   9.827   5.383  0.2135  0.3510  0.0619
 2870W        W19054  15.743  13.088   2.946 -0.2684  0.0129 -0.1129
 2871W        W19055   9.809  12.487  13.917  0.1779  0.0573  0.1452
 2872W        W19056   9.509   2.118  11.434 -0.2727  0.0464  0.2569
 2873W        W19057   2.289   3.886  13.848 -0.1087 -0.0847  0.0422
 2874W        W19058   3.299   4.458  13.908  0.1148  0.2689  0.0352
 2875W        W19059   4.052  11.475   1.981  0.2825 -0.3284 -0.2427
 2876W        W19060   4.979   0.924  15.823 -0.0351  0.0844  0.0628
 2877W        W19061   4.505  13.541  16.060 -0.3754 -0.0210  0.1348
 2878W        W19062  13.463   5.080  12.734  0.1133 -0.0166 -0.1196
 2879W        W19063  10.993  10.761   0.318  0.0448 -0.1112  0.1939
 2880W        W19064  12.405   1.685   4.678 -0.1676 -0.0014 -0.1898
 2881W        W19065   4.844   6.428  12.457  0.1082  0.1241 -0.1975
 2882W        W19066   3.509  15.800  13.108 -0.0606 -0.2010 -0.1786
 2883W        W19067   8.249   2.796  12.731 -0.0664  0.2542  0.4106
 2884W        W19068  15.660  10.870   3.029  0.0944  0.3209  0.0444
 2885W        W19069  16.420   8.493   1.169  0.1366 -0.0985 -0.2099
 2886W        W19070  12.629  13.277  11.928  0.0325  0.3532 -0.1328
 2887W        W19071  13.707   5.953  12.227 -0.0003  0.0732  0.0241
 2888W        W19072  12.887  15.264   0.874 -0.0376 -0.1252  0.2495
 2889W        W19073   2.170   3.750  10.104  0.0506 -0.2049 -0.1323
 2890W        W19074   3.201   1.676   2.291  0.3326 -0.0064 -0.2177
 2891W        W19075   1.424   5.673  11.587 -0.0606  0.1549 -0.0331
 2892W        W19076   0.863   5.109  11.458  0.2154  0.1882 -0.1478
 2893W        W19077   1.542  14.718  10.960  0.1364  0.1922  0.1523
 2894W        W19078  10.342   3.460   5.301  0.0242  0.0716 -0.1428
 2895W        W19079  11.931   5.948  15.888 -0.0481 -0.0471  0.1114
 2896W        W19080   7.659   9.441   4.165  0.2676 -0.1593  0.0757
 2897W        W19081   2.012   7.642   1.477  0.2543 -0.0672  0.0385
 2898W        W19082  17.651   4.788  13.175  0.0046 -0.0520  0.0359
 2899W        W19083  13.650  15.085   4.786  0.1383  0.1694  0.0080
 2900W        W19084   2.404   9.011   4.528 -0.0864 -0.0256 -0.1419
 2901W        W19085  15.259   9.037  12.394 -0.0653 -0.0669 -0.1242
 2902W        W19086   3.887   6.471   1.836 -0.3406 -0.1641  0.0533
 2903W        W19087  11.126   5.310  12.227  0.1112 -0.1620  0.1749
 2904W        W19088   6.009  11.917   3.345 -0.1811 -0.0679  0.1103
 2905W        W19089  16.672  13.071  13.597 -0.0132  0.3375  0.0054
 2906W        W19090   5.431  11.907   5.415  0.0872  0.7405  0.2297
 2907W        W19091  10.459   5.522  14.612  0.2132  0.2243 -0.1167
 2908W        W19092   8.287  12.882   0.865  0.0223 -0.0181 -0.1476
 2909W        W19093   8.503   2.096  16.094  0.0858 -0.2130  0.3295
 2910W        W19094   9.487  13.552   4.698 -0.3561  0.0475  0.2497
 2911W        W19095  11.164  10.673  16.540  0.1389  0.1734  0.0263
 2912W        W19096  13.275   9.155  12.151  0.1260  0.1419  0.0363
 2913W        W19097  11.823  14.242   4.859  0.0678 -0.0633 -0.0521
 2914W        W19098   6.927   7.729   0.306 -0.0872  0.1053  0.0387
 2915W        W19099   6.748  16.072   4.941  0.1939  0.0310 -0.0171
 2916W        W19100   6.618   1.967  13.987  0.0985 -0.0067 -0.0618
 2917W        W19101  15.387   8.682  13.257  0.0958 -0.2714  0.0712
 2918W        W19102  14.563  12.219   1.239  0.1369 -0.3799  0.3277
 2919W        W19103  13.674  10.772  11.541 -0.0604  0.3370  0.0525
 2920W        W19104  12.660   2.978  10.600 -0.1600 -0.1230  0.0029
 2921W        W19105   8.417   8.879  16.539 -0.2078  0.0082  0.0618
 2922W        W19106  16.177   8.328   2.965 -0.0314 -0.4589  0.1453
 2923W        W19107   8.842  15.291   5.786 -0.0196 -0.2104  0.0180
 2924W        W19108   8.197  11.953  13.830  0.1542 -0.1803  0.3922
 2925W        W19109   5.604  17.767  12.677  0.2167 -0.1902 -0.1679
 2926W        W19110  14.486   5.523  13.339  0.1694 -0.0980 -0.0663
 2927W        W19111  16.503  12.827  11.875 -0.0990  0.1027  0.1054
 2928W        W19112  14.815   3.004  16.447 -0.1472  0.1934 -0.0319
 2929W        W19113   8.209   7.433   3.700  0.0246  0.2533 -0.2087
 2930W        W19114   6.012  17.510  13.709 -0.2940  0.0018  0.3184
 2931W        W19115  10.829  15.191  16.342 -0.1579 -0.1111  0.3314
 2932W        W19116  17.782  17.452  11.474 -0.1740 -0.1336 -0.1257
 2933W        W19117  14.562  13.149  15.333 -0.2471  0.0235 -0.0664
 2934W        W19118   6.012  10.343   0.693 -0.2920 -0.0019  0.0107
 2935W        W19119   3.370   0.431  10.545  0.3171  0.1454  0.2389
 2936W        W19120  11.175  17.043   4.775  0.0981 -0.4999 -0.1399
 2937W        W19121  10.109  16.019   0.865  0.0244  0.1141 -0.2506
 2938W        W19122  10.644  13.084   0.469  0.0088  0.0575  0.0457
 2939W        W19123   5.835   7.779   2.665 -0.1343 -0.0242  0.1203
 2940W        W19124   7.002   8.780  15.152  0.2665 -0.0944  0.1890
 2941W        W19125   5.589  10.390   3.614 -0.1095 -0.2934  0.1656
 2942W        W19126   9.386  17.274   2.514  0.2733  0.0156 -0.0075
 2943W        W19127   3.773  15.306   0.764  0.0318  0.0848  0.0930
 2944W        W19128  17.782   6.831   4.064 -0.4823  0.0729  0.1081
 2945W        W19129  11.157   4.849   5.076  0.1881 -0.5868  0.0574
 2946W        W19130   3.334   6.310  12.843  0.1792 -0.1551  0.1848
 2947W        W19131  16.682  13.925   4.829 -0.2091  0.0504  0.2620
 2948W        W19132   8.183  16.510  14.813  0.2590 -0.0208 -0.1127
 2949W        W19133   2.742  12.157  12.752  0.0782  0.1315 -0.0564
 2950W        W19134   5.940  18.163  14.525  0.3147  0.5052  0.2612
 2951W        W19135  11.079  13.016  12.046 -0.1282 -0.0400  0.1919
 2952W        W19136   5.565   4.181   3.428 -0.1158  0.1390 -0.4591
 2953W        W19137  13.159   5.431   4.633  0.0336  0.0671 -0.1225
 2954W        W19138  12.397   0.197   2.944 -0.0903 -0.1440 -0.2367
 2955W        W19139   9.477   4.821  14.195  0.4510  0.1696  0.1152
 2956W        W19140   8.411   6.731   5.963 -0.0680  0.0942  0.3776
 2957W        W19141   1.099  17.159   4.344 -0.0819  0.0589  0.0983
 2958W        W19142   3.644  16.726   4.489  0.0281 -0.1068 -0.1268
 2959W        W19143  16.899  12.818  15.930 -0.2497 -0.0944 -0.0473
 2960W        W19144   7.639   1.951   1.207  0.2265  0.1265  0.2118
 2961W        W19145  15.089   6.276  14.999  0.0525 -0.0447  0.3834
 2962W        W19146  11.766   9.990   0.979  0.0935 -0.2368 -0.1785
 2963W        W19147   2.579   0.382   3.908 -0.2924 -0.1260  0.0946
 2964W        W19148   0.938   9.145   0.564 -0.0785  0.2783  0.0638
 2965W        W19149  17.351   9.632  11.482 -0.0660 -0.0481 -0.0244
 2966W        W19150   4.212   4.921   2.605  0.2236 -0.1911  0.0767
 2967W        W19151  10.932  12.312  13.353 -0.1570  0.1222  0.1349
 2968W        W19152  15.794   9.066  12.519  0.0448  0.2236 -0.1169
 2969W        W19153   4.177   9.802   1.583  0.3188 -0.0286 -0.0980
 2970W        W19154  11.906   4.766   4.008 -0.2193  0.0502  0.0784
 2971W        W19155  16.920  17.608   2.020 -0.1989  0.0325 -0.3299
 2972W        W19156  17.126   9.204   2.771 -0.2458 -0.0075  0.0733
 2973W        W19157  10.016  12.182   2.418 -0.0567  0.0436  0.1320
 2974W        W19158  16.442   6.289  12.018  0.2427 -0.0075  0.3887
 2975W        W19159  14.320  16.785  11.579  0.0188 -0.1174  0.1942
 2976W        W19160   5.793  12.319   3.139  0.0651 -0.3377 -0.0270
 2977W        W19161   4.962   8.447  14.688 -0.0417 -0.1601  0.3139
 2978W        W19162   9.371  12.570   4.056  0.0083  0.0739  0.2122
 2979W        W19163  11.167  11.688   4.658  0.1343 -0.1626  0.0950
 2980W        W19164   5.897  11.980  14.044 -0.0462  0.2665 -0.1075
 2981W        W19165   3.398   7.469  14.174 -0.1564 -0.2119 -0.0562
 2982W        W19166  15.079   4.264  16.208 -0.0742  0.2009 -0.0739
 2983W        W19167  11.371  15.169   2.526 -0.1053  0.0562  0.0575
 2984W        W19168  11.209  17.372   3.683  0.0281 -0.0888 -0.1152
 2985W        W19169   0.853  16.345  11.737  0.0037 -0.0486 -0.0902
 2986W        W19170  16.938   8.347  11.153 -0.3332 -0.1057  0.1492
 2987W        W19171   6.575  16.927   4.880 -0.0490 -0.2091  0.1010
 2988W        W19172  17.261   1.844  13.361 -0.0077 -0.1075  0.0635
 2989W        W19173  11.164   4.398  13.263  0.0935 -0.2488  0.1453
 2990W        W19174   5.111   6.146   2.700  0.1218 -0.4455  0.0812
 2991W        W19175  13.693  14.484   3.100 -0.2353 -0.1552  0.1087
 2992W        W19176   9.484   7.793  13.826 -0.0660 -0.2399  0.1257
 2993W        W19177  13.165  14.474  13.878 -0.1580 -0.3124  0.1813
 2994W        W19178  11.875  17.708  15.721  0.1192  0.1984  0.0794
 2995W        W19179  12.155   4.144   5.847 -0.2686 -0.0879  0.0330
 2996W        W19180  18.105   8.888  13.104  0.0631  0.1015 -0.3420
 2997W        W19181  11.168   2.227   6.067  0.0021 -0.0968 -0.0317
 2998W        W19182   1.735  12.186   4.297 -0.3023 -0.1978  0.2047
 2999W        W19183  17.539  14.675   0.707  0.6220  0.0712  0.1310
 3000W        W19184  12.298  16.624   1.829 -0.0413 -0.1609 -0.0671
 3001W        W19185  11.795  12.315  11.579 -0.1822 -0.5367 -0.0838
 3002W        W19186  13.039  15.519   1.649  0.2868 -0.1095  0.3343
 3003W        W19187   1.622   4.209  11.878 -0.0704  0.1930 -0.1188
 3004W        W19188  12.779  10.738  15.005 -0.0472  0.1236 -0.0786
 3005W        W19189   5.740  11.299  12.977 -0.0719  0.0876 -0.0277
 3006W        W19190   6.818  10.200   0.330 -0.0588  0.0617  0.0512
 3007W        W19191  16.397   8.090  15.918  0.2200 -0.2739  0.0348
 3008W        W19192   0.157   8.056   3.572 -0.0055  0.0743 -0.0974
 3009W        W19193  17.655  14.086   3.957  0.1251 -0.0162 -0.0308
 3010W        W19194  17.189   3.565  14.434 -0.1492  0.3481  0.3818
 3011W        W19195  10.895  13.492  16.369 -0.2786  0.0603 -0.1960
 3012W        W19196   1.328   3.025   4.403  0.2344 -0.0698 -0.3007
 3013W        W19197   2.400  13.750   0.407 -0.2544  0.0337 -0.0270
 3014W        W19198   0.254  10.319   1.673  0.0322  0.1325 -0.2249
 3015W        W19199   0.592   6.773   4.583  0.2548  0.1447 -0.2458
 3016W        W19200   4.864  14.225   0.001 -0.2401  0.1088 -0.0816
 3017W        W19201   6.981  15.902   3.306 -0.1235 -0.1305 -0.0507
 3018W        W19202   4.939  16.124   3.286  0.1410  0.1995 -0.3141
 3019W        W19203  12.863   8.402  14.352 -0.1965  0.0126 -0.2653
 3020W        W19204  11.494   2.557  16.607 -0.1351 -0.2559 -0.1658
 3021W        W19205  11.396  15.840   3.407 -0.1476  0.2774  0.2887
 3022W        W19206   0.070   6.003   5.550 -0.1861 -0.4137  0.1260
 3023W        W19207   3.838   4.050  16.401  0.2546 -0.2820 -0.0372
 3024W        W19208   0.390  15.979  16.390 -0.0477  0.0532  0.2492
 3025W        W19209  10.381   5.963  15.542 -0.3220  0.1430  0.0548
 3026W        W19210  14.211   7.135  14.316  0.1630  0.1189 -0.0251
 3027W        W19211  15.004   5.760   1.176 -0.0354  0.1127 -0.1320
 3028W        W19212   4.064   9.095  15.438 -0.0080  0.1217 -0.1881
 3029W        W19213   8.955   2.781   1.346 -0.0725 -0.2693  0.0634
 3030W        W19214   9.525  14.489  16.142  0.2188 -0.0139 -0.2676
 3031W        W19215  12.527   8.494  14.010 -0.0834 -0.1033  0.1921
 3032W        W19216  13.020   0.531  15.240 -0.2473  0.2085 -0.0865
 3033W        W19217   4.426   5.902  15.681  0.3609  0.0207 -0.0396
 3034W        W19218  10.506  13.106  16.211 -0.4017  0.2465  0.2856
 3035W        W19219   8.877  17.237  13.881 -0.0161  0.0840 -0.0102
 3036W        W19220   4.567  16.170   4.686  0.0387 -0.1101  0.0764
 3037W        W19221   8.813   8.224   1.501 -0.1072  0.0005 -0.1674
 3038W        W19222   7.129  13.260  12.202 -0.0695 -0.0106 -0.1206
 3039W        W19223   3.409  17.395   0.351  0.1456 -0.1067  0.0673
 3040W        W19224  14.189  10.976   0.433 -0.1528 -0.0028  0.1650
 3041W        W19225   4.712   2.825   1.169 -0.0993  0.4049 -0.0497
 3042W        W19226  11.535   8.684   2.488  0.0139  0.0903 -0.0120
 3043W        W19227  10.788   5.874   4.476  0.0975 -0.0671 -0.0812
 3044W        W19228  13.843  11.474  13.071 -0.0599  0.0317  0.1401
 3045W        W19229  11.539   7.915  13.525  0.4317  0.0089 -0.0679
 3046W        W19230  12.171  11.085   3.311 -0.1537  0.2402  0.0942
 3047W        W19231   5.961   4.013  12.416 -0.4128 -0.0919  0.1353
 3048W        W19232  17.322   5.042  12.728 -0.2224 -0.0001 -0.1004
 3049W        W19233  12.087   4.999   1.996 -0.2060 -0.0299  0.1496
 3050W        W19234  13.135   3.357  14.581 -0.3014  0.1258  0.0786
 3051W        W19235  10.843   5.978   5.148 -0.0359  0.1719  0.1903
 3052W        W19236   2.746  17.233  15.940  0.1006 -0.0813 -0.3109
 3053W        W19237  16.782   1.250   4.281 -0.0579 -0.3327 -0.5029
 3054W        W19238  14.044   2.137  12.581  0.2689 -0.0523  0.0762
 3055W        W19239   7.924  10.223   4.426  0.1579 -0.2204 -0.0496
 3056W        W19240   9.214   6.945   5.706  0.0067 -0.0867  0.0357
 3057W        W19241  16.579   5.202  16.433  0.3171 -0.3453 -0.1197
 3058W        W19242  16.643  16.162   0.270  0.3601  0.0686  0.0747
 3059W        W19243   1.922   7.193   4.278  0.2952  0.0929 -0.1481
 3060W        W19244   7.044   6.889   1.170  0.0393  0.2066  0.0758
 3061W        W19245   2.518   8.978  15.468 -0.0069  0.0228 -0.1470
 3062W        W19246   6.748  13.067   2.697 -0.1100 -0.1261  0.1600
 3063W        W19247   0.900  17.546   0.325  0.1232 -0.2078 -0.1306
 3064W        W19248  15.990   0.918   2.479  0.2172 -0.1191  0.3582
 3065W        W19249  16.574   2.781  12.370  0.4525  0.1230 -0.2264
 3066W        W19250   1.528   9.947   1.598  0.2257  0.2713 -0.2956
 3067W        W19251   9.849  14.698  13.677  0.3236 -0.0231 -0.0351
 3068W        W19252  15.223   7.156   3.303  0.0810 -0.0040 -0.1569
 3069W        W19253   9.206   8.194   0.902  0.0762  0.0408 -0.0872
 3070W        W19254  15.061   6.025   5.056  0.0988 -0.0652  0.0598
 3071W        W19255  16.674   5.590  14.554 -0.2599  0.2644  0.0987
 3072W        W19256   3.246   0.975   0.529  0.1066 -0.0366 -0.5701
 3073W        W19257   0.676   3.864  14.132  0.0197  0.1462  0.0644
 3074W        W19258  10.552  16.302  15.585  0.4072  0.0024  0.3039
 3075W        W19259  16.715   4.790  15.244  0.1564  0.2644  0.1372
 3076W        W19260   7.393   4.889  12.625  0.0777  0.0180  0.0225
 3077W        W19261  15.820  16.531  13.881  0.1672  0.0683 -0.1936
 3078W        W19262  13.572  13.231   4.955  0.1098 -0.1707  0.2081
 3079W        W19263  13.770   2.090  16.618  0.3302  0.3246  0.1886
 3080W        W19264  12.016   5.960   4.111  0.1080 -0.2018 -0.0630
 3081W        W19265   0.771   9.639  14.394  0.0519 -0.1486  0.0117
 3082W        W19266  17.603  16.300   5.467 -0.3467  0.0525 -0.0882
 3083W        W19267  18.063   6.285   0.397  0.1576  0.2342 -0.0253
 3084W        W19268   5.489   9.243  12.032 -0.0496 -0.3380 -0.0170
 3085W        W19269  14.637   6.420  16.075  0.0566  0.1409  0.0838
 3086W        W19270   9.460   5.811   0.577  0.2152 -0.1227  0.1406
 3087W        W19271   5.274   8.406  12.005 -0.3529 -0.3178  0.0426
 3088W        W19272   7.530   4.105   0.050 -0.0597  0.3154 -0.2309
 3089W        W19273   4.025  10.928  15.406  0.0239 -0.2880 -0.2771
 3090W        W19274  16.008   9.816   3.679  0.0430  0.1987 -0.0680
 3091W        W19275   6.618  13.182  11.893 -0.0963 -0.2935  0.0509
 3092W        W19276  10.497   1.835  11.811 -0.1825  0.2254 -0.0355
 3093W        W19277   7.686   6.140   1.029 -0.0272 -0.0031 -0.0188
 3094W        W19278   1.189  10.902   6.348  0.2514 -0.1047  0.1171
 3095W        W19279   8.614   2.054   1.056  0.2220  0.0300  0.0267
 3096W        W19280  15.236   9.429  14.905 -0.0570  0.0638 -0.2141
 3097W        W19281   3.855  13.623  13.899  0.2948  0.1327  0.1313
 3098W        W19282  12.595  17.822   5.061  0.2396  0.0250  0.1477
 3099W        W19283  13.862  16.818   4.433 -0.1597 -0.4181 -0.2021
 3100W        W19284   1.234  10.265  13.870 -0.1231 -0.0914 -0.0551
 3101W        W19285  13.888   7.853   0.535 -0.1682  0.0122 -0.5002
 3102W        W19286   8.579  17.893   4.521 -0.0656 -0.1109 -0.0743
 3103W        W19287  13.074  10.590   3.755 -0.2624 -0.2393 -0.2951
 3104W        W19288  16.686  16.940   4.710  0.1562 -0.0409  0.1401
 3105W        W19289   6.873   9.314  13.163  0.0756 -0.0416 -0.0413
 3106W        W19290  12.547  16.615   4.000 -0.1193 -0.2385 -0.0642
 3107W        W19291   5.096  16.759  15.962  0.0389  0.1513  0.1170
 3108W        W19292   1.907   1.121   1.009  0.0307 -0.0392  0.1995
 3109W        W19293   9.369   0.598   0.525 -0.2191 -0.1416 -0.2537
 3110W        W19294   9.966  16.230  13.138  0.1860 -0.0059  0.1376
 3111W        W19295   7.289   7.695   2.913 -0.0736  0.4597 -0.1145
 3112W        W19296  13.354   2.308   4.976  0.3295  0.2278  0.1070
 3113W        W19297   4.129   1.467  16.131  0.2386  0.0239 -0.1200
 3114W        W19298  13.937   2.441   0.651 -0.1851 -0.0710 -0.0251
 3115W        W19299  11.309   1.794  15.035  0.4307  0.2669 -0.2874
 3116W        W19300  15.641   7.692  15.620  0.0020 -0.3131 -0.1225
 3117W        W19301   4.152  17.300   4.886  0.0696  0.0565 -0.0892
 3118W        W19302   4.940  13.730   2.837  0.0388 -0.1779  0.2200
 3119W        W19303   2.696  13.129  14.637  0.4001  0.0164  0.0411
 3120W        W19304   9.428   8.614  11.698 -0.2161 -0.1423 -0.0337
 3121W        W19305   4.938   4.386   4.351  0.0202 -0.2654 -0.1368
 3122W        W19306  10.596  15.440   4.855 -0.0216  0.1545  0.1402
 3123W        W19307  10.680   6.385   0.999 -0.0810 -0.0628 -0.1514
 3124W        W19308  11.129   1.777   1.245  0.1013  0.1667 -0.0990
 3125W        W19309  14.308  13.851  14.050 -0.3314 -0.0463 -0.0374
 3126W        W19310   0.890  15.265   3.708  0.1738  0.1131  0.0971
 3127W        W19311   0.023  16.149   5.471 -0.0013 -0.0408 -0.0611
 3128W        W19312   2.564   0.303   5.777  0.0791  0.1258 -0.0726
 3129W        W19313  10.559  12.968   6.271  0.0728 -0.0885  0.3102
 3130W        W19314   2.748   8.648  13.073  0.1248 -0.1240  0.0345
 3131W        W19315   1.043   5.022  15.302 -0.0515 -0.0066 -0.1710
 3132W        W19316   7.987   3.766   1.183 -0.2325 -0.2728  0.0279
 3133W        W19317   5.820   1.810   5.006  0.5224 -0.0585  0.0724
 3134W        W19318  12.215   1.639  15.770 -0.1401  0.0126 -0.1437
 3135W        W19319   2.544   9.698  15.616 -0.0426  0.1156  0.0810
 3136W        W19320  10.469   1.084   3.557 -0.1791 -0.0167 -0.1133
 3137W        W19321   8.509  12.217  12.574  0.2366  0.2612  0.0784
 3138W        W19322   3.856   7.618   4.408 -0.1333  0.3205  0.0427
 3139W        W19323   5.430   9.144   6.198 -0.0278  0.3407  0.4762
 3140W        W19324   4.607  11.705  10.817 -0.0850 -0.0411  0.0223
 3141W        W19325   8.227  18.124   3.652  0.0755  0.0775 -0.3446
 3142W        W19326  11.324  14.752  15.746  0.1725 -0.0123 -0.1136
 3143W        W19327   6.350  14.786  12.455  0.4387 -0.1724 -0.3079
 3144W        W19328   6.085   2.234  12.922 -0.0660 -0.0853 -0.1503
 3145W        W19329   7.413   7.047  11.953 -0.1384 -0.0596 -0.1884
 3146W        W19330   5.768   2.029   3.400 -0.0675 -0.4223 -0.2339
 3147W        W19331   0.193  14.494  16.308  0.1944 -0.3153 -0.1225
 3148W        W19332   3.363   8.430  14.471  0.2475  0.1684 -0.3171
 3149W        W19333   7.547  12.460   2.700  0.0008 -0.3775 -0.0989
 3150W        W19334  16.973   6.133  13.791 -0.2302 -0.2376 -0.2322
 3151W        W19335  12.118  10.708   3.997 -0.1748 -0.2927  0.0809
 3152W        W19336   3.776   6.889   5.409 -0.1027 -0.2260 -0.1515
 3153W        W19337   4.821   9.718   3.201  0.0806  0.0197 -0.0514
 3154W        W19338  10.449  11.818  14.104  0.1165  0.2709 -0.0904
 3155W        W19339  15.295   2.202  15.559  0.1044  0.0732  0.0934
 3156W        W19340   6.621   3.915   5.163  0.0063 -0.0429 -0.0210
 3157W        W19341   0.653  14.504  14.651 -0.0544 -0.0533  0.0525
 3158W        W19342  10.251   2.968   5.152 -0.1268  0.0413 -0.1755
 3159W        W19343   2.242   1.476  13.219  0.0865 -0.0735  0.1780
 3160W        W19344  17.637   8.888  12.327 -0.0864 -0.0456  0.0236
 3161W        W19345   8.504   1.259   2.470 -0.0546 -0.0942 -0.1488
 3162W        W19346   8.063   6.345  15.571 -0.1087 -0.0619  0.2377
 3163W        W19347  16.786   3.010  16.004 -0.1533  0.0302  0.0704
 3164W        W19348  16.410   9.895  13.547  0.3722  0.0686 -0.0602
 3165W        W19349   8.627   8.402  16.534 -0.2875 -0.0719 -0.3284
 3166W        W19350  16.495   9.314   2.210 -0.0570 -0.1770  0.0612
 3167W        W19351  15.568   8.555   4.580 -0.4366 -0.0458 -0.2202
 3168W        W19352   0.481  16.283   5.574 -0.1719 -0.0503 -0.0048
 3169W        W19353   0.210  12.597   0.329  0.0310 -0.0153 -0.3762
 3170W        W19354   3.747   5.623  13.608  0.2658  0.0000  0.1790
 3171W        W19355   2.321   1.612   2.526 -0.0283  0.0165  0.2741
 3172W        W19356  16.046  10.963  13.812 -0.1507 -0.0850  0.0033
 3173W        W19357  17.435  10.683  12.853 -0.1132  0.0007 -0.0340
 3174W        W19358  14.055  15.406  13.416  0.0535 -0.0631  0.0605
 3175W        W19359   2.963  12.717   0.874  0.1427 -0.2315 -0.1932
 3176W        W19360   3.576   2.934   3.976 -0.3494 -0.2543 -0.2988
 3177W        W19361   1.377   6.686   3.217  0.1537 -0.0376  0.0558
 3178W        W19362   3.840   8.248  15.177  0.2701  0.4096  0.3835
 3179W        W19363   1.762  17.769   1.955  0.3670 -0.1906  0.5821
 3180W        W19364   5.215   8.127  12.424 -0.0624  0.0216 -0.1388
 3181W        W19365  11.538   9.285   1.993  0.1386 -0.0667 -0.2531
 3182W        W19366  17.536   9.649   4.153 -0.0979 -0.1725  0.1974
 3183W        W19367  12.678   5.992  11.879 -0.3619  0.2157  0.3838
 3184W        W19368   4.002   7.049   2.743  0.1225  0.1147 -0.1870
 3185W        W19369  15.515   1.983  12.190 -0.3561  0.1052  0.0077
 3186W        W19370   0.762   5.353   2.784  0.0243  0.0609  0.1758
 3187W        W19371   7.053  10.864  12.260  0.0130 -0.1607  0.2494
 3188W        W19372   6.906   5.967   0.571  0.0721 -0.0742 -0.1885
 3189W        W19373   8.534  13.842   5.848  0.1722  0.0082 -0.2217
 3190W        W19374  17.510  12.423  15.840 -0.1179 -0.3795 -0.0076
 3191W        W19375  10.510   3.740   3.573  0.0836  0.0421  0.1068
 3192W        W19376   1.544  14.278  14.292 -0.0433 -0.2026 -0.1439
 3193W        W19377  15.909   1.186   3.926 -0.5847  0.0193  0.2335
 3194W        W19378   5.765  14.940  12.804 -0.5157 -0.0700  0.2955
 3195W        W19379  14.138   0.952  11.604 -0.3165  0.0550 -0.0377
 3196W        W19380   1.196   6.366  14.435  0.2566  0.1793  0.0991
 3197W        W19381  10.839   7.594   1.937 -0.1283 -0.1260  0.3893
 3198W        W19382  11.838  10.454   1.482  0.1353  0.2996 -0.0575
 3199W        W19383   3.784  13.930   3.787  0.3266  0.0304 -0.0016
 3200W        W19384   1.622   7.324  13.016 -0.1088  0.1069 -0.1259
 3201W        W19385   0.243  12.581   2.080  0.1247  0.1827 -0.1905
 3202W        W19386  13.351   7.595   1.127  0.2016  0.0652 -0.0533
 3203W        W19387   0.307   0.099  11.803  0.1956  0.2091  0.0201
 3204W        W19388  13.961  13.062   3.211  0.0555  0.1030 -0.0994
 3205W        W19389   0.246   2.663   5.987 -0.3125  0.0346 -0.2480
 3206W        W19390   0.244   9.544  15.336  0.1935 -0.1044  0.2199
 3207W        W19391   6.724   4.212   3.342  0.0244 -0.0015 -0.1632
 3208W        W19392  16.491   3.335   1.646 -0.2114 -0.1054  0.1832
 3209W        W19393   4.241   6.935  13.421 -0.0142  0.0062 -0.1246
 3210W        W19394   1.418  12.104  15.791 -0.1040 -0.1163 -0.1036
 3211W        W19395  13.875   6.069   4.375  0.0038  0.2951 -0.2008
 3212W        W19396   2.686   9.837   3.520  0.0010  0.5802 -0.0663
 3213W        W19397   5.383   7.228   1.901 -0.1515  0.1611 -0.0749
 3214W        W19398   2.093  17.437   0.802  0.1544  0.0379  0.3144
 3215W        W19399  17.820   0.873   1.373 -0.0241 -0.2966 -0.0397
 3216W        W19400   2.574   7.003  12.618 -0.1140  0.1197 -0.1229
 3217W        W19401  10.868  16.591   2.751 -0.1240 -0.1345  0.2551
 3218W        W19402   4.460  15.006   4.616 -0.3431 -0.0673  0.1628
 3219W        W19403   6.884   2.466   4.671 -0.1628 -0.2273  0.2779
 3220W        W19404   9.617   3.469   4.762 -0.0189 -0.6509  0.3284
 3221W        W19405   5.163  10.036  13.422 -0.2462 -0.1931 -0.0131
 3222W        W19406   8.804   0.136  16.216 -0.1047 -0.0660  0.0356
 3223W        W19407   7.533   5.153   4.437 -0.3518  0.1157 -0.1179
 3224W        W19408   6.761   4.335   1.570  0.1202 -0.1236 -0.1640
 3225W        W19409  17.069   1.117   0.222  0.3194  0.2683  0.1054
 3226W        W19410   2.288   8.936   2.360  0.0936 -0.0447 -0.0976
 3227W        W19411   1.649  12.133   6.093  0.1178 -0.0677 -0.1410
 3228W        W19412   8.593   7.416   0.331  0.2614  0.1194  0.0833
 3229W        W19413  10.834   5.080  15.715 -0.0714 -0.0173  0.0392
 3230W        W19414  12.064  10.117  14.525 -0.1503 -0.0363  0.0818
 3231W        W19415   6.177   6.370  14.558  0.0561 -0.1952 -0.1335
 3232W        W19416  10.775  17.777  16.041 -0.1435 -0.0690  0.0188
 3233W        W19417  18.125   3.762   0.908 -0.0806  0.1808  0.2178
 3234W        W19418   9.314  11.951  11.943 -0.1836  0.3515  0.0860
 3235W        W19419   8.358   9.595   0.144  0.0863  0.3553  0.0895
 3236W        W19420   3.975   3.573   5.417 -0.3292 -0.0257  0.1382
 3237W        W19421   8.575  15.115  12.377  0.0376  0.0188  0.2417
 3238W        W19422  10.746   7.255  15.465  0.2491  0.4131 -0.3511
 3239W        W19423   5.046   0.252  11.391 -0.0360 -0.4300 -0.1476
 3240W        W19424  16.101  17.773  16.512 -0.2028  0.3481  0.3752
 3241W        W19425  10.128   6.058   5.764  0.0373 -0.2760  0.0495
 3242W        W19426   7.657   5.764  13.046  0.0930  0.0069 -0.2429
 3243W        W19427  16.974  15.168  14.720 -0.0284  0.3727 -0.1455
 3244W        W19428   0.197  11.613   0.546 -0.1189  0.0565  0.3029
 3245W        W19429   2.624   7.280   1.844 -0.0776 -0.1865 -0.2738
 3246W        W19430   5.060   2.720  12.116 -0.2586 -0.3687  0.0990
 3247W        W19431  11.328   1.265  15.927 -0.0970 -0.0403 -0.3223
 3248W        W19432   0.239  17.850  14.161  0.0902  0.0056 -0.0872
 3249W        W19433  11.229  12.478   1.608  0.1395 -0.1169 -0.1949
 3250W        W19434   0.627  12.492   3.789 -0.1070 -0.0491 -0.1134
 3251W        W19435  17.235   4.293  10.417  0.0327  0.1755  0.0730
 3252W        W19436  12.175  13.864   4.324  0.3641 -0.2436 -0.0727
 3253W        W19437   7.656   4.766   4.068 -0.3016  0.0747  0.0041
 3254W        W19438  15.655   7.499   4.714 -0.1004  0.2561  0.2821
 3255W        W19439   2.090   8.081   1.995 -0.0317 -0.0072 -0.0070
 3256W        W19440  13.188  10.761  13.023 -0.0399  0.0057  0.4733
 3257W        W19441   7.884   0.279  11.948  0.1631  0.0457  0.2488
 3258W        W19442  17.316   5.203   5.506  0.0464  0.0166  0.2721
 3259W        W19443  11.835  15.794  11.982  0.0280  0.1681 -0.0016
 3260W        W19444  11.999  14.290   1.045  0.0635 -0.2677  0.2382
 3261W        W19445   0.297  12.243   1.634 -0.0999 -0.0022  0.0489
 3262W        W19446   2.050   3.700   1.825 -0.2790  0.0944  0.5030
 3263W        W19447  13.340  17.987   3.720  0.1043 -0.2833  0.0267
 3264W        W19448   2.635   9.863   5.443  0.1056 -0.1374 -0.2669
 3265W        W19449   3.613   1.300  15.146 -0.3373 -0.1738 -0.3142
 3266W        W19450  12.145  10.387  12.914  0.0179 -0.3983  0.1219
 3267W        W19451  13.277   2.477  13.093 -0.1293  0.2179 -0.1715
 3268W        W19452  12.162  14.811   3.472  0.1291 -0.2608 -0.2327
 3269W        W19453   0.289   4.562  10.697 -0.3588  0.1155  0.2671
 3270W        W19454   0.116   3.109   3.835  0.2810  0.1349 -0.0023
 3271W        W19455   2.143   2.444  12.846  0.2319 -0.1291  0.2162
 3272W        W19456  17.966   8.103   2.620 -0.3911  0.0967  0.0075
 3273W        W19457  17.541   0.601  15.181  0.1509  0.1200  0.3340
 3274W        W19458  14.702   2.486  11.028  0.0035  0.1122 -0.1523
 3275W        W19459  13.337   3.003   3.436  0.5069  0.0984 -0.2051
 3276W        W19460   5.989  16.182  13.897  0.1614 -0.1304 -0.5041
 3277W        W19461  16.854  16.065  14.059  0.1766  0.1404  0.1695
 3278W        W19462  14.536   7.439  12.988 -0.1085  0.4329  0.0473
 3279W        W19463   3.144  10.679  12.592 -0.2720  0.1177  0.1155
 3280W        W19464  15.494   7.786  13.406 -0.1844 -0.2119  0.0797
 3281W        W19465   3.839  10.172   0.178 -0.2049 -0.4437  0.2359
 3282W        W19466  15.392  17.458  15.874 -0.0392  0.0521  0.0855
 3283W        W19467   9.875  18.076  11.057  0.1399  0.1167  0.0669
 3284W        W19468  15.782  17.415  14.452 -0.1702  0.1518 -0.1093
 3285W        W19469   8.751  17.227   0.564 -0.3078 -0.2176 -0.1476
 3286W        W19470  17.903  16.387  13.288  0.0476 -0.2001 -0.3581
 3287W        W19471   4.482   4.445   5.622 -0.2072 -0.0537  0.1324
 3288W        W19472   8.672   2.283  14.675  0.0652 -0.2119  0.4498
 3289W        W19473  17.929  10.628  16.193 -0.0503 -0.2805 -0.0578
 3290W        W19474  12.322   0.253   3.472 -0.2598 -0.3016  0.0056
 3291W        W19475   0.585   6.048  13.321 -0.2575  0.2488  0.0565
 3292W        W19476   0.913   3.868   1.108  0.3981  0.1682 -0.1410
 3293W        W19477  18.031  11.807   0.154 -0.0188 -0.1055  0.0203
 3294W        W19478   5.223   9.698  12.122  0.1461 -0.0723  0.0008
 3295W        W19479  13.257  12.611   5.085  0.2107 -0.1479  0.1822
 3296W        W19480   2.120  14.889  14.764  0.0593 -0.0650  0.2204
 3297W        W19481   1.845  14.939   4.156  0.0547 -0.0635 -0.1125
 3298W        W19482   8.442  14.451   1.423 -0.0069 -0.2297  0.2705
 3299W        W19483  14.787   6.875   3.661  0.0126 -0.1748  0.1451
 3300W        W19484   7.895   7.340   5.637 -0.0678 -0.0164 -0.1119
 3301W        W19485  13.743   3.220  12.972  0.3972 -0.0310  0.0631
 3302W        W19486   7.031   4.708   5.246  0.0911 -0.0035  0.3325
 3303W        W19487   0.503  12.721   2.563 -0.0503  0.0447  0.3605
 3304W        W19488   2.670   4.451  16.635 -0.2340 -0.3297  0.2746
 3305W        W19489  17.221   6.753  13.558  0.2146  0.2802 -0.1908
 3306W        W19490   8.523   1.900   2.368  0.1322  0.0460  0.1667
 3307W        W19491  13.978  13.378   2.135  0.1799 -0.1121 -0.1189
 3308W        W19492   5.819   5.181  14.029  0.0660  0.0390 -0.0308
 3309W        W19493   6.415   7.714   4.454  0.2510 -0.2972  0.2581
 3310W        W19494   6.270  12.835   0.218 -0.0680  0.1461 -0.2382
 3311W        W19495  16.619   1.710  15.754  0.0092 -0.0524 -0.4380
 3312W        W19496   0.038  16.353  11.094  0.1590  0.1306 -0.1644
 3313W        W19497   1.271  10.027  12.176  0.1257 -0.3978 -0.0372
 3314W        W19498   0.198  10.469  15.430  0.1443 -0.1348  0.0381
 3315W        W19499   4.490   1.705   0.244 -0.0004  0.0468  0.0752
 3316W        W19500   5.941   5.646   1.575 -0.0786  0.4252  0.0357
 3317W        W19501   5.873  10.569  12.301 -0.2116 -0.3542  0.0524
 3318W        W19502  10.914   5.363   1.222  0.1176 -0.0111  0.1881
 3319W        W19503  14.175   7.539  14.638 -0.0203  0.2054 -0.2697
 3320W        W19504  11.509  11.571  12.532  0.3045 -0.0154 -0.2096
 3321W        W19505   0.485  16.896  13.653 -0.0196  0.0897  0.1602
 3322W        W19506  16.983  11.306   5.723 -0.0896 -0.0079  0.0044
 3323W        W19507   6.311   3.683   6.063  0.1653 -0.0994 -0.2241
 3324W        W19508  13.537  10.771   2.419  0.0282 -0.1296  0.0631
 3325W        W19509  14.807   4.148  11.423 -0.4231  0.1840  0.0630
 3326W        W19510   4.920  15.636   5.332 -0.1430 -0.2397  0.0879
 3327W        W19511  10.911   3.559  13.674  0.1659  0.0110 -0.3496
 3328W        W19512   6.388  11.596  12.638  0.0587 -0.0701 -0.0955
 3329W        W19513  17.093   5.696   4.532  0.2134  0.0661  0.3795
 3330W        W19514   6.876   6.002   1.801 -0.3292  0.2545  0.0153
 3331W        W19515   8.622   2.179   5.101  0.0083 -0.1290  0.0296
 3332W        W19516  12.931   6.200  15.210 -0.2651  0.0319 -0.2427
 3333W        W19517  12.186   6.274   5.764 -0.1794  0.3448 -0.0957
 3334W        W19518   3.696   5.403  14.861 -0.2412  0.0555 -0.1233
 3335W        W19519  13.232  16.933  11.866 -0.1218  0.0183  0.2504
 3336W        W19520  17.247  14.576  11.803 -0.2711  0.0858  0.0173
 3337W        W19521  10.497  11.834   0.715  0.0482  0.1086 -0.0948
 3338W        W19522  11.192   7.223  15.161 -0.0133 -0.0828  0.0621
 3339W        W19523   9.839   7.730  11.887 -0.2462  0.1190  0.2527
 3340W        W19524   3.635   4.191  12.823  0.2082  0.1379 -0.2479
 3341W        W19525   3.026  15.726  16.416  0.0487 -0.2722 -0.0591
 3342W        W19526   2.805  17.708   4.724 -0.0818  0.1074  0.2104
 3343W        W19527  12.708  18.086  15.380 -0.0006  0.1306  0.1207
 3344W        W19528   3.867   6.626   1.369 -0.0261 -0.1341  0.3267
 3345W        W19529   9.104   7.057   0.028  0.0410  0.0360  0.0273
 3346W        W19530  10.566  12.606   1.935  0.1256 -0.0862  0.1004
 3347W        W19531  11.063  13.770   3.434 -0.0249 -0.3187  0.0872
 3348W        W19532   6.014  11.309   5.573 -0.0261 -0.3466  0.0544
 3349W        W19533   1.240  11.523  13.669 -0.0725  0.0001 -0.1930
 3350W        W19534   9.086   2.072  12.501  0.0847 -0.3115  0.2513
 3351W        W19535   1.253   3.760   4.475  0.0554  0.1864  0.2241
 3352W        W19536   3.969   4.188  15.588 -0.0776 -0.0477  0.0910
 3353W        W19537   3.884  11.978  15.262 -0.2194 -0.3254  0.3809
 3354W        W19538  12.514   9.336  13.516 -0.1716 -0.0766  0.1636
 3355W        W19539  12.615   4.642  15.803 -0.2371 -0.2613  0.6550
 3356W        W19540  12.432  13.129  15.177  0.0388  0.4738 -0.1320
 3357W        W19541  12.043  16.792  11.747  0.0817 -0.1844 -0.1234
 3358W        W19542   8.835  11.097  14.169 -0.0163 -0.1755 -0.1017
 3359W        W19543  12.394  16.981   0.815  0.0308  0.0457  0.0291
 3360W        W19544   2.054   7.643  15.852  0.1331 -0.1813 -0.2143
 3361W        W19545  14.977  14.206   3.588  0.0506 -0.0955  0.0352
 3362W        W19546   2.199   8.984  14.572  0.3286  0.0431  0.1557
 3363W        W19547   0.435   8.080  10.664  0.2016 -0.0789 -0.0670
 3364W        W19548   9.525   1.904   3.239 -0.3654  0.2078 -0.3621
 3365W        W19549  16.309  15.550  16.608  0.2350  0.0192  0.1051
 3366W        W19550   1.718   6.122  12.770 -0.0064 -0.1527 -0.0729
 3367W        W19551   5.336  14.554   5.656  0.3307  0.1403 -0.3102
 3368W        W19552   0.410   8.962   5.153 -0.2477  0.0969  0.1664
 3369W        W19553  11.935   0.329  15.150  0.0614  0.0326  0.2870
 3370W        W19554  16.023  12.223   1.594  0.2833  0.2633 -0.1376
 3371W        W19555  11.248   3.514   0.450  0.1253 -0.0173  0.1648
 3372W        W19556   6.272  13.029  14.881  0.2455 -0.0991  0.0923
 3373W        W19557   7.023   0.780   3.484  0.1697  0.1410 -0.3567
 3374W        W19558  10.658   8.179  13.004 -0.3749 -0.1282  0.1695
 3375W        W19559   1.101  16.322   1.760 -0.0951  0.0118  0.2121
 3376W        W19560   7.232   8.831   0.949  0.0160 -0.0057 -0.0801
 3377W        W19561  11.009   9.372   4.687 -0.2952 -0.3204 -0.0781
 3378W        W19562  12.191   8.544   1.274 -0.2735  0.1921  0.0724
 3379W        W19563   3.970   4.309  12.410 -0.2650  0.0100 -0.1785
 3380W        W19564  12.627   2.477   3.180  0.1978 -0.0056 -0.0511
 3381W        W19565  14.414   4.800   2.897 -0.0714 -0.2118  0.3089
 3382W        W19566  12.087  17.076   5.234 -0.1121 -0.4070  0.2503
 3383W        W19567  10.247   4.392  16.192  0.0207 -0.0558  0.0476
 3384W        W19568  13.051  11.597   5.185  0.1886  0.3824  0.1847
 3385W        W19569   7.337   3.181  16.030  0.3067 -0.1039  0.0510
 3386W        W19570   0.658  16.678   5.289  0.0839  0.0685  0.1327
 3387W        W19571  11.212   5.250  13.185  0.1271  0.2142  0.4884
 3388W        W19572  14.825  11.337  11.434  0.0810 -0.1319  0.0663
 3389W        W19573  18.091   5.261  14.517  0.2113  0.2716  0.2402
 3390W        W19574   8.183  15.519  13.955  0.1310  0.0522 -0.1671
 3391W        W19575   9.555   5.920   2.696  0.0819 -0.0003 -0.3080
 3392W        W19576  11.016   5.277  12.727 -0.0433  0.0772 -0.2520
 3393W        W19577  17.849   9.646   1.079  0.0125  0.3807 -0.1120
 3394W        W19578   0.179  17.013   4.295  0.2399 -0.1595  0.0081
 3395W        W19579   8.229   6.889   1.962 -0.2252 -0.1123 -0.1171
 3396W        W19580   5.128  14.943   5.940 -0.0616 -0.0959 -0.2508
 3397W        W19581  17.180  13.369  14.263 -0.2062  0.0280 -0.3247
 3398W        W19582  14.380  11.416  15.310  0.2703  0.0479 -0.0815
 3399W        W19583  17.646  16.007  15.507  0.1302  0.0148  0.4181
 3400W        W19584   7.607   5.765   0.023 -0.1632 -0.0941  0.3478
 3401W        W19585   0.020   9.300  11.524  0.1038 -0.2138  0.1638
 3402W        W19586   3.531  17.565   2.335 -0.3295  0.0884 -0.1037
 3403W        W19587   4.873   1.904  15.555 -0.0481 -0.0082 -0.1262
 3404W        W19588  18.069   4.804  15.309 -0.1578 -0.0672 -0.4943
 3405W        W19589  11.844  12.670  15.711 -0.1647  0.2905  0.0846
 3406W        W19590  10.504  13.754   3.862 -0.0841  0.1804 -0.2949
 3407W        W19591   5.205   1.628   0.541  0.0322 -0.0903  0.2447
 3408W        W19592   4.386   6.444  15.687 -0.0397  0.2871 -0.1883
 3409W        W19593   3.834  15.444  13.165 -0.2169 -0.1326 -0.1646
 3410W        W19594  10.072  16.655  13.456  0.0204  0.0564 -0.1720
 3411W        W19595   4.522  11.233  12.448  0.1611  0.0304  0.0058
 3412W        W19596   3.377   3.884  16.148  0.0221  0.0858  0.1594
 3413W        W19597   9.997  11.385   4.241  0.1614  0.0828  0.0665
 3414W        W19598  11.094  12.445  12.124 -0.0433 -0.0170  0.0769
 3415W        W19599   5.376   5.943   5.924  0.0011  0.2208 -0.2130
 3416W        W19600   6.593   3.975  15.454 -0.0443  0.2099 -0.0708
 3417W        W19601  17.132  16.264   3.251  0.3007  0.1203  0.0237
 3418W        W19602   5.749   0.511   1.603 -0.1279 -0.2351  0.0220
 3419W        W19603   4.187   9.946  14.306 -0.0586  0.1108  0.0538
 3420W        W19604  17.377  13.660   4.112 -0.1385  0.0851  0.0040
 3421W        W19605  13.462  11.014  14.046  0.1789  0.2805  0.0491
 3422W        W19606  10.414   4.298   5.704  0.2656 -0.1424  0.0272
 3423W        W19607  15.609  11.930   3.666 -0.0564  0.0460 -0.0365
 3424W        W19608  10.454  14.128   4.130  0.0446 -0.0567 -0.3086
 3425W        W19609   4.776  13.087  14.237  0.2618 -0.1278 -0.2148
 3426W        W19610  17.674  11.120   4.110  0.2482 -0.3453  0.3006
 3427W        W19611   4.678  14.013  16.216  0.2781 -0.0260  0.0616
 3428W        W19612   6.422  13.910  13.599 -0.4133  0.1525 -0.0260
 3429W        W19613   6.410   7.208   4.238 -0.0792  0.0224  0.2573
 3430W        W19614  12.449  14.136   1.180 -0.3583  0.3280 -0.1215
 3431W        W19615  11.143  15.946   1.989  0.4269  0.1770 -0.1681
 3432W        W19616   7.977   4.337   5.352 -0.2173 -0.4382 -0.1389
 3433W        W19617  10.145   3.616  13.082  0.0667 -0.1507 -0.3961
 3434W        W19618  12.598  10.287  14.328 -0.0997  0.1726  0.0223
 3435W        W19619   3.200   2.718  13.218  0.2014  0.1786  0.0949
 3436W        W19620  15.381  10.157  15.306 -0.3190 -0.0159  0.3711
 3437W        W19621   0.013   0.559   4.461 -0.0352 -0.2727  0.2920
 3438W        W19622   9.265  11.983  16.244  0.2545  0.4049  0.1865
 3439W        W19623   6.339   1.578   0.022  0.1676 -0.1354 -0.0213
 3440W        W19624   5.948  13.719   5.791 -0.1919  0.1397  0.1800
 3441W        W19625  11.928  15.006   4.315  0.1298  0.2340  0.2562
 3442W        W19626   8.020   2.056  13.421 -0.1179  0.0187 -0.1470
 3443W        W19627  13.429  11.174  15.910 -0.1346 -0.2032  0.1013
 3444W        W19628  12.801   4.369  11.196 -0.0587 -0.2710 -0.2141
 3445W        W19629  14.938  16.960  13.943 -0.1646  0.2116 -0.1396
 3446W        W19630   3.402   0.197  11.915  0.1362 -0.0250 -0.1477
 3447W        W19631  11.215   1.219  16.459  0.2952  0.2250  0.1400
 3448W        W19632  10.794   2.841   1.416  0.1611 -0.0705 -0.0916
 3449W        W19633  12.921  17.302  16.605  0.0107  0.2238  0.0258
 3450W        W19634  14.963   1.584   3.208 -0.2593  0.0995 -0.1297
 3451W        W19635  18.074  13.926   0.995 -0.2670  0.0018  0.0151
 3452W        W19636   2.447  15.061  12.393  0.1300 -0.2571 -0.4175
 3453W        W19637  11.549   4.769   1.604  0.3201  0.1321 -0.1169
 3454W        W19638   5.011  18.081  16.436 -0.0267 -0.2266 -0.0870
 3455W        W19639  15.911   9.843   4.868  0.0801 -0.1064  0.5670
 3456W        W19640  13.564   4.068   3.558 -0.0262 -0.1406  0.1342
 3457W        W19641  13.502  15.367  16.039 -0.2978  0.2096  0.1152
 3458W        W19642  14.811  12.272   5.392  0.2326 -0.0880 -0.1999
 3459W        W19643   3.505  12.083   5.420 -0.1663  0.0692  0.0868
 3460W        W19644   7.875   8.907   3.335 -0.0479  0.1533 -0.2772
 3461W        W19645  14.043   3.762  12.478 -0.0908 -0.0448 -0.2394
 3462W        W19646  18.099   2.517  14.799 -0.3966 -0.0784 -0.1815
 3463W        W19647  10.482  15.895   1.303  0.2243 -0.3438  0.3174
 3464W        W19648   4.271  16.848  13.039 -0.0412 -0.3636  0.1353
 3465W        W19649  17.846   7.818   1.798 -0.0348 -0.1962  0.4060
 3466W        W19650   4.126  11.033   1.610  0.2731 -0.0522  0.3576
 3467W        W19651  11.037   7.191   0.991  0.0150 -0.0310  0.1211
 3468W        W19652   4.334  14.120  15.206 -0.1875 -0.0120 -0.0972
 3469W        W19653  11.937   0.585   5.526  0.0428  0.1294 -0.1067
 3470W        W19654   6.836   6.578  12.637  0.0556  0.0736 -0.0863
 3471W        W19655  13.504   7.184   0.238 -0.1121 -0.1992  0.0535
 3472W        W19656   4.265  16.797   2.347 -0.0537  0.0184 -0.1189
 3473W        W19657  14.600  11.910  14.080  0.2487  0.1732  0.0313
 3474W        W19658   9.816   1.340   4.405  0.0856 -0.0746 -0.1058
 3475W        W19659  11.668  11.664   1.720  0.0321 -0.1348  0.0880
 3476W        W19660   5.409   0.078  12.585  0.0135  0.0543  0.2795
 3477W        W19661   0.783  12.529   5.076  0.1043  0.2414  0.0053
 3478W        W19662   0.322   6.210  14.931  0.0837 -0.0362 -0.2824
 3479W        W19663   5.491   5.577   4.138 -0.0871 -0.1658 -0.2503
 3480W        W19664   8.088   8.066  13.716  0.0815  0.1379 -0.0171
 3481W        W19665  11.710   9.715   2.380  0.1411  0.1030  0.0294
 3482W        W19666  15.307  16.493   1.767  0.2278 -0.1944  0.0566
 3483W        W19667  17.509   3.238  11.190  0.4896 -0.0720 -0.2738
 3484W        W19668  10.698   0.774  11.673 -0.1473 -0.3297  0.1415
 3485W        W19669   2.250   5.062   1.283  0.1974 -0.4658  0.0458
 3486W        W19670   2.714  17.901  13.846  0.1872  0.1502 -0.2763
 3487W        W19671  16.955   6.766  10.755 -0.0079  0.1610 -0.0915
 3488W        W19672  13.194  10.371   5.673 -0.1701 -0.0500 -0.0944
 3489W        W19673   1.913   7.098  15.749 -0.3116 -0.1706 -0.2520
 3490W        W19674   5.371  10.324  15.628 -0.1275 -0.1624  0.3245
 3491W        W19675  10.732  11.137  12.006  0.1413 -0.1243 -0.0468
 3492W        W19676   6.697  16.362  12.570 -0.1136 -0.1251  0.4363
 3493W        W19677  13.934   6.738  15.453 -0.0325  0.0456  0.3313
 3494W        W19678  10.358   5.587   1.164  0.1205  0.0591  0.1545
 3495W        W19679   7.755  11.707   1.400 -0.0750 -0.0286 -0.2712
 3496W        W19680   7.763   3.164  11.658  0.3672  0.2097  0.2041
 3497W        W19681   8.564   5.219  13.861  0.1562  0.0789  0.0369
 3498W        W19682   0.533   3.759   5.213  0.2295 -0.0887 -0.0562
 3499W        W19683   8.534   2.814  13.608 -0.0517  0.1123  0.0136
 3500W        W19684  14.757  18.004   3.332 -0.1482  0.2975  0.0919
 3501W        W19685  17.130  11.161  16.225 -0.1786  0.1512 -0.0145
 3502W        W19686   3.549   2.559  11.958  0.4515 -0.2354  0.3605
 3503W        W19687  12.033   6.735  11.476  0.1198 -0.2256 -0.1021
 3504W        W19688   6.549  10.272   3.657  0.1986 -0.1646 -0.0926
 3505W        W19689   9.179   0.271   2.998 -0.1300 -0.0905  0.2268
 3506W        W19690   6.006   0.309  11.757 -0.2375 -0.0810 -0.0290
 3507W        W19691  13.820  13.551  11.886  0.1888 -0.0392  0.0150
 3508W        W19692  16.757   3.570   2.767 -0.0906  0.0042  0.2067
 3509W        W19693   9.110  10.184  14.299  0.0332  0.1507  0.1553
 3510W        W19694   1.902   6.027  14.042 -0.0752 -0.2277  0.1140
 3511W        W19695  14.658  17.406  13.575 -0.0220 -0.1196 -0.0230
 3512W        W19696  13.558  10.772  15.485 -0.1785 -0.0552 -0.2136
 3513W        W19697  12.001  11.265  16.375  0.1126  0.0977  0.0193
 3514W        W19698  17.841  10.863   0.240 -0.1544 -0.1561 -0.1845
 3515W        W19699   5.191   2.718  15.732  0.1164  0.0360 -0.0009
 3516W        W19700   0.226  13.072  12.932 -0.1151  0.1983 -0.1633
 3517W        W19701  16.922   7.968   5.342  0.2274  0.2345  0.0000
 3518W        W19702  12.800  10.010  15.637  0.0826 -0.0735 -0.2268
 3519W        W19703   5.485   6.233   6.296  0.1445  0.3423 -0.1965
 3520W        W19704   7.170  11.958  13.268  0.0195 -0.0816 -0.0987
 3521W        W19705   7.936   6.747   5.615  0.4494 -0.0152  0.4549
 3522W        W19706   1.334   9.828  11.650  0.0902  0.0437  0.0751
 3523W        W19707   0.759  11.637  15.000  0.1105 -0.2087  0.0555
 3524W        W19708  13.697  17.778  12.946 -0.1416  0.1258  0.2378
 3525W        W19709   1.139  10.530  12.024  0.0913  0.0699 -0.0305
 3526W        W19710   0.241  17.802  11.976  0.0585 -0.2635 -0.1809
 3527W        W19711  13.979   7.079  11.489 -0.1421 -0.0435 -0.0943
 3528W        W19712   4.977   2.246   0.367  0.0759 -0.0830 -0.5787
 3529W        W19713  17.903   1.867   1.298 -0.0252 -0.1099 -0.2283
 3530W        W19714   2.574   2.612   3.656  0.1215  0.0195 -0.1762
 3531W        W19715  17.669  16.822   0.341 -0.2716 -0.0623 -0.0041
 3532W        W19716  18.090   8.591   4.162 -0.3835  0.4578 -0.1128
 3533W        W19717   3.102   1.036  14.139  0.2543 -0.0926  0.0707
 3534W        W19718   1.442   4.937  11.581 -0.1943  0.0990  0.0334
 3535W        W19719   7.104   5.176   4.677  0.1518 -0.1627  0.0608
 3536W        W19720  15.861   4.149   2.470 -0.0662  0.0728  0.0102
 3537W        W19721  16.623   3.896   3.704 -0.2018  0.0010  0.0120
 3538W        W19722   2.023   3.130   2.063  0.0293  0.2263 -0.1008
 3539W        W19723  12.454  14.592   0.923 -0.0396  0.1126 -0.0753
 3540W        W19724  15.146   9.800   1.474  0.1124  0.1157 -0.1148
 3541W        W19725   3.600   2.394   0.867  0.0149 -0.0353 -0.2249
 3542W        W19726   5.167   6.755  13.172  0.2125 -0.1729 -0.0059
 3543W        W19727  15.941  14.863  15.240 -0.0939 -0.2684 -0.2904
 3544W        W19728   5.431  13.667  12.624 -0.0261  0.1155  0.1575
 3545W        W19729   5.788   5.043   5.001 -0.0685 -0.1854 -0.1377
 3546W        W19730   7.798   6.726  15.699  0.1425 -0.2007 -0.2324
 3547W        W19731   5.382  12.323   1.286 -0.0822  0.0522 -0.0647
 3548W        W19732   6.151   2.445  15.495 -0.2926  0.0059  0.3403
 3549W        W19733   2.952  16.179  14.245  0.0054 -0.2065  0.0066
 3550W        W19734   7.152   1.484   4.613 -0.1133  0.2152 -0.0586
 3551W        W19735  15.419   9.280   6.041 -0.0904 -0.2882  0.0208
 3552W        W19736   3.029   2.497   3.967 -0.1415 -0.2965 -0.3542
 3553W        W19737  15.206   8.881  16.252  0.1991  0.0612  0.1405
 3554W        W19738  15.925   1.536   4.774 -0.0055  0.4097  0.0698
 3555W        W19739  16.965  10.337   4.332 -0.0060 -0.0682 -0.0482
 3556W        W19740  14.252  16.698   5.071  0.1771 -0.1610  0.1649
 3557W        W19741   9.852   7.248   5.146 -0.0364 -0.0720 -0.0709
 3558W        W19742   5.282  16.576  14.416 -0.0514 -0.1963  0.0562
 3559W        W19743   7.738   9.181  11.894 -0.0346 -0.3084 -0.0252
 3560W        W19744   5.896   4.552  12.931  0.1201  0.1398 -0.1189
 3561W        W19745  11.637   2.909   6.286  0.3880 -0.1533 -0.3886
 3562W        W19746  13.437   8.581   0.822  0.0630  0.0157  0.0334
 3563W        W19747  11.287   4.692  14.811  0.3162 -0.1023 -0.3548
 3564W        W19748  12.332   6.464  14.235  0.4962 -0.1264  0.1948
 3565W        W19749  12.888  14.677   5.250 -0.0761  0.1484  0.1071
 3566W        W19750  12.216   5.943   5.297 -0.1770 -0.2809 -0.0717
 3567W        W19751  16.868   0.465   1.770  0.1373 -0.1687 -0.0570
 3568W        W19752  16.012   0.512  11.652  0.2220 -0.1551 -0.1400
 3569W        W19753  16.624  14.421  12.589  0.1488  0.0659  0.0720
 3570W        W19754   6.329   5.477  12.078 -0.1715 -0.3596 -0.1658
 3571W        W19755   9.156  14.452  11.426 -0.0754  0.1186 -0.1989
 3572W        W19756   9.246   4.097  15.283  0.3050  0.3903  0.3786
 3573W        W19757   0.808   5.273   4.199  0.2236 -0.2652 -0.0227
 3574W        W19758  11.903   7.377  14.318 -0.4448  0.0576 -0.1598
 3575W        W19759   4.704   5.939  16.576  0.1942 -0.1434 -0.0453
 3576W        W19760   6.982  10.127   2.464  0.1180  0.3006  0.3026
 3577W        W19761   7.650  14.289   2.565  0.2760 -0.0025  0.1007
 3578W        W19762   1.947   9.704  16.588 -0.0700  0.2260  0.1908
 3579W        W19763  10.582  13.929   0.478 -0.2322  0.3431 -0.4730
 3580W        W19764   6.035   7.370   2.008  0.0798  0.3833 -0.2083
 3581W        W19765   0.681  11.399  14.469  0.0867  0.3861 -0.0117
 3582W        W19766   8.794   2.642   0.461  0.0614  0.0344  0.1467
 3583W        W19767   6.762   7.381   3.609  0.0005 -0.0064 -0.0475
 3584W        W19768  14.266   3.187  13.004 -0.0883  0.1011 -0.2039
 3585W        W19769   5.790  12.206   5.694  0.1649 -0.0245  0.1608
 3586W        W19770   5.958   3.658  11.682  0.0227 -0.1121 -0.1593
 3587W        W19771  15.470  10.917   0.728 -0.1684  0.1560  0.1063
 3588W        W19772   4.260  14.404   2.257  0.1480  0.1923  0.0229
 3589W        W19773  11.605   3.764   2.945 -0.4149 -0.1207 -0.1606
 3590W        W19774  13.382  17.859   4.315  0.2309 -0.1021  0.0765
 3591W        W19775   3.531   9.594   2.423 -0.1361  0.1441  0.1335
 3592W        W19776  11.064  16.651   1.367  0.0385 -0.1047 -0.4190
 3593W        W19777   0.763   5.491   1.917  0.0310 -0.0443 -0.0477
 3594W        W19778   8.290  12.492   5.885  0.1901  0.0388  0.3204
 3595W        W19779  16.657   8.035   5.802  0.2136  0.0884 -0.2740
 3596W        W19780  10.043  10.213   5.568 -0.0344  0.0241  0.0130
 3597W        W19781  13.481  10.445  12.673 -0.0875  0.1444 -0.1629
 3598W        W19782   7.536   2.680   5.139 -0.2932 -0.3779 -0.0842
 3599W        W19783  16.447  15.006  14.630  0.1032 -0.4727 -0.2981
 3600W        W19784   4.957  10.254  12.078  0.2527 -0.4764  0.0013
 3601W        W19785  15.285   6.185   1.014 -0.2591 -0.0172  0.0710
 3602W        W19786   8.555  14.958   1.343 -0.1567  0.0678 -0.3123
 3603W        W19787  14.665   3.322   2.760  0.0672  0.1410 -0.2128
 3604W        W19788   7.813  10.971   0.955  0.3333  0.2845 -0.4627
 3605W        W19789   7.543   1.538  15.393 -0.0537 -0.4145  0.1005
 3606W        W19790  10.171   1.192   3.093 -0.0852  0.1132  0.0629
 3607W        W19791  13.300   8.100  14.387 -0.1063 -0.2560  0.1385
 3608W        W19792  12.468  16.408   4.463  0.1582  0.1791  0.0669
 3609W        W19793  15.210   8.664  14.478  0.1893 -0.1453 -0.0167
 3610W        W19794  17.742  12.364   2.576  0.0363 -0.0053 -0.2084
 3611W        W19795  17.390   7.581  11.503 -0.0642 -0.1768 -0.1399
 3612W        W19796  14.824   7.464  11.238  0.0234 -0.3471 -0.3297
 3613W        W19797   5.666   9.616   1.632  0.0225 -0.2661 -0.0355
 3614W        W19798  15.608   5.022  13.928  0.0109  0.1577 -0.0516
 3615W        W19799  12.439  15.654  15.927 -0.4824 -0.1117  0.1959
 3616W        W19800   8.767   4.779   0.134 -0.0548  0.0415 -0.0929
 3617W        W19801   6.379  17.183  13.733  0.2809 -0.4159 -0.1338
 3618W        W19802   5.690  17.090   1.451  0.0189 -0.2096 -0.0713
 3619W        W19803   8.621   6.262   3.795  0.3396 -0.1237  0.1979
 3620W        W19804  10.592  11.596   2.938  0.0311  0.1065  0.3748
 3621W        W19805  16.584   8.601   2.981  0.0589 -0.0515  0.1933
 3622W        W19806  18.055   2.678   3.841  0.2023  0.1332 -0.3182
 3623W        W19807  10.536   8.648  15.547  0.0723  0.0657  0.0749
 3624W        W19808  11.285  12.944   3.225  0.0639  0.1027  0.3558
 3625W        W19809  13.220   9.142   3.967  0.2700 -0.2930 -0.0258
 3626W        W19810  14.954  12.495   5.883  0.1320  0.0795  0.1160
 3627W        W19811  12.216  12.242  14.887  0.0324 -0.3797  0.3578
 3628W        W19812   5.432   1.033   4.617  0.2162 -0.2786 -0.0982
 3629W        W19813   6.736  11.827   2.522 -0.0287  0.0232 -0.0929
 3630W        W19814   6.222   2.992   0.417  0.0299  0.2093 -0.0540
 3631W        W19815  12.029  16.281   2.120  0.2761  0.1033 -0.0205
 3632W        W19816   7.277  11.797   1.435 -0.3102 -0.1859 -0.3477
 3633W        W19817   1.825   0.822  15.990 -0.0415 -0.1797 -0.1106
 3634W        W19818   6.645   9.766  13.295  0.0275 -0.1448 -0.1053
 3635W        W19819  17.231   1.732  13.864  0.4301 -0.3067  0.1766
 3636W        W19820   6.506  13.961   3.426 -0.0652  0.2603 -0.1527
 3637W        W19821   0.691   4.994   3.360  0.2581  0.0232 -0.1907
 3638W        W19822   8.732   6.027   3.235 -0.1459  0.2143  0.0270
 3639W        W19823   5.131  10.709  16.414 -0.1862  0.1098  0.0360
 3640W        W19824   5.451  14.863   2.810 -0.1321 -0.2767  0.1451
 3641W        W19825  12.476   7.541   0.208  0.1191  0.0010  0.2507
 3642W        W19826  13.675   8.317  15.088  0.0476 -0.0084  0.1838
 3643W        W19827   8.867   5.127   4.513 -0.1867 -0.0840  0.2775
 3644W        W19828  13.221   0.735   1.586 -0.1605  0.2164  0.0392
 3645W        W19829   1.142  17.052  12.153 -0.0278  0.0220  0.3069
 3646W        W19830   8.481   4.292  14.919 -0.1749 -0.1605 -0.0597
 3647W        W19831   4.671  11.075   4.017 -0.1420  0.2078 -0.1896
 3648W        W19832  17.283   8.427   2.252  0.1899  0.0302 -0.0003
 3649W        W19833   8.085  11.440   2.267 -0.1375 -0.4563 -0.0762
 3650W        W19834   0.734   3.387   3.839  0.0205 -0.1648  0.1242
 3651W        W19835   0.436  10.823   0.051 -0.4169  0.1130  0.2532
 3652W        W19836   1.452   8.266  13.337  0.2495  0.0100 -0.2572
 3653W        W19837   0.585  16.727  16.027  0.1293 -0.1908  0.0113
 3654W        W19838  12.658  10.520  11.390 -0.0148 -0.1755  0.2894
 3655W        W19839   1.652   2.066   5.065 -0.0125 -0.0619 -0.1776
 3656W        W19840  15.907   1.011   2.968  0.0193 -0.0260  0.3453
 3657W        W19841   6.774   3.534   3.745 -0.1522 -0.3371  0.0445
 3658W        W19842   3.086  11.247   3.397 -0.2747 -0.1631 -0.1743
 3659W        W19843   7.886   1.091   4.201 -0.0884  0.0091  0.0222
 3660W        W19844   5.310   7.030   3.879  0.1030 -0.0240 -0.2414
 3661W        W19845  11.441  15.458  10.782 -0.4676  0.0966 -0.0257
 3662W        W19846  10.119  17.126  15.216 -0.2219  0.1213  0.2279
 3663W        W19847   6.660  16.223   1.919  0.2700  0.1629  0.0331
 3664W        W19848   5.507   9.562   4.130 -0.3279 -0.1299 -0.1109
 3665W        W19849   6.870   7.183  14.211 -0.1324 -0.0504  0.0001
 3666W        W19850   0.738  13.074   3.012  0.0894 -0.0541 -0.1264
 3667W        W19851   1.708   1.592  12.190  0.0545  0.0868  0.0493
 3668W        W19852  11.397  16.038  11.918 -0.0969 -0.0336 -0.0914
 3669W        W19853   7.527  12.004  12.491  0.1337 -0.2203 -0.1981
 3670W        W19854  17.291   9.539   4.569  0.1212  0.0208 -0.1581
 3671W        W19855  18.004  17.612  14.100 -0.1224  0.0661 -0.0644
 3672W        W19856   2.005   4.844  14.551  0.2621 -0.2263  0.3464
 3673W        W19857   8.409   9.759  12.413  0.1054  0.0709  0.0034
 3674W        W19858   3.835   0.854   2.677  0.1373 -0.0586  0.1047
 3675W        W19859   4.991   2.971   3.206  0.2034 -0.4812  0.2308
 3676W        W19860   7.197   2.148  12.795  0.0291 -0.3712 -0.0904
 3677W        W19861  12.474   9.326  16.666 -0.2058  0.0524 -0.0036
 3678W        W19862  12.644   1.577  14.393  0.1747 -0.0615  0.1193
 3679W        W19863   1.159   5.632   4.579 -0.1218  0.0093 -0.1293
 3680W        W19864   3.315  12.117  13.452  0.0526  0.2692 -0.0625
 3681W        W19865   1.818   8.130  14.179 -0.0750  0.2305 -0.0039
 3682W        W19866  14.864   6.137   4.084  0.2620 -0.0139 -0.2089
 3683W        W19867   4.677  17.595   1.074  0.0422 -0.1497 -0.1287
 3684W        W19868   4.597   0.114  15.638 -0.1109  0.0073  0.2981
 3685W        W19869   7.848  10.272   1.408 -0.3244 -0.0976 -0.0615
 3686W        W19870  15.720   2.441  11.854 -0.0163 -0.0865 -0.0734
 3687W        W19871   0.846  15.365  14.662  0.2051 -0.0178  0.0318
 3688W        W19872  13.136   7.362  12.249 -0.0758  0.1537 -0.0335
 3689W        W19873   0.572  11.629   1.180 -0.1761 -0.3349  0.0588
 3690W        W19874   5.374  13.755   5.929 -0.0044  0.2930 -0.2583
 3691W        W19875   2.881  16.686  14.151 -0.1451 -0.0817  0.0476
 3692W        W19876  14.125  11.573   2.620 -0.0286  0.1105  0.0550
 3693W        W19877   8.126   8.568   5.031 -0.0628  0.0123  0.2369
 3694W        W19878  11.534   8.790   3.436  0.0621  0.2235 -0.2829
 3695W        W19879  12.645   1.374   0.787 -0.2729 -0.0634  0.2685
 3696W        W19880  10.071  12.325  12.869 -0.0085 -0.0908 -0.2252
 3697W        W19881  14.000   4.386  15.000  0.2333 -0.3354  0.2196
 3698W        W19882  14.955   0.072   4.394  0.2987  0.0272 -0.0507
 3699W        W19883   5.219   5.670   5.509 -0.1490 -0.1268  0.2451
 3700W        W19884  15.011  10.575   2.459 -0.0782 -0.1474  0.0543
 3701W        W19885   3.372   6.516   4.965  0.0317 -0.3741  0.3189
 3702W        W19886   5.698  10.170   2.684  0.3317 -0.3767 -0.0567
 3703W        W19887  11.089  15.970  11.382  0.0797  0.1075  0.2005
 3704W        W19888   0.445  17.419   1.094  0.0951 -0.1610  0.1545
 3705W        W19889  12.843   3.387  14.082  0.1356  0.0314 -0.1108
 3706W        W19890  10.477  14.499   4.511 -0.2000 -0.2465 -0.2566
 3707W        W19891   4.460   0.323  11.522 -0.1377  0.1010  0.1716
 3708W        W19892   0.847  17.152   0.891 -0.1233 -0.5242  0.0788
 3709W        W19893  11.921  14.020  11.706  0.0253 -0.0314 -0.0929
 3710W        W19894  15.128  14.427   5.452 -0.2143  0.1951 -0.2651
 3711W        W19895  16.688   8.718  11.335  0.0051 -0.1590  0.0115
 3712W        W19896   2.245  16.315  13.442 -0.3259  0.2527  0.2580
 3713W        W19897  10.624   3.432  12.346 -0.0164 -0.6547 -0.0155
 3714W        W19898   9.520   5.820   3.927  0.0824  0.1051 -0.0740
 3715W        W19899   0.757   2.892   2.742  0.0941 -0.1520  0.0349
 3716W        W19900  11.232   5.568   5.223  0.2765 -0.0491  0.1451
 3717W        W19901  12.892  14.086   2.631 -0.0577 -0.1890  0.0523
 3718W        W19902   9.962   5.552  15.729  0.3070 -0.2200 -0.1110
 3719W        W19903  14.720   4.538  11.098  0.0970 -0.0974  0.4092
 3720W        W19904   1.149  14.612  14.638  0.0343  0.0909 -0.0113
 3721W        W19905  11.581   6.270   0.217  0.1141  0.1230  0.1691
 3722W        W19906   4.926  14.255   5.290 -0.3384 -0.2209 -0.2679
 3723W        W19907  12.095   5.364   5.301  0.0352 -0.0389  0.0594
 3724W        W19908  14.654  15.559   2.508  0.1239  0.0945 -0.2564
 3725W        W19909  14.246  17.148  13.426 -0.2792 -0.2083  0.0274
 3726W        W19910   3.058   9.941   3.096 -0.2169  0.4140 -0.0487
 3727W        W19911   5.630   4.348  12.596  0.1120  0.0469  0.2562
 3728W        W19912   9.579   9.288  14.128 -0.1072 -0.1834 -0.1689
 3729W        W19913  15.562   4.345   4.096 -0.4068  0.0124  0.1079
 3730W        W19914   1.864   3.246   3.455  0.1700  0.4920  0.0937
 3731W        W19915   0.958   0.135  12.429  0.0749 -0.2893 -0.0099
 3732W        W19916   2.212   0.449   3.640  0.0549 -0.3345 -0.0248
 3733W        W19917   8.895  16.458  13.663 -0.1419 -0.1206  0.0758
 3734W        W19918   6.712   0.209   3.978 -0.2923 -0.3736  0.2901
 3735W        W19919  15.645  18.098  11.512  0.2952 -0.1793 -0.0905
 3736W        W19920   0.529  10.616   3.802  0.1969 -0.2096  0.0850
 3737W        W19921   8.350   7.337   1.796 -0.0742 -0.3922  0.2333
 3738W        W19922  11.261   5.770  13.968  0.1138  0.2372 -0.0564
 3739W        W19923   3.209   6.747   0.329 -0.0635  0.0725 -0.1019
 3740W        W19924   3.555   9.850   4.446 -0.0826  0.2450 -0.1176
 3741W        W19925  12.702  16.046   5.722 -0.1212 -0.3695 -0.1485
 3742W        W19926  17.048  11.476   1.556  0.1720  0.2123  0.1386
 3743W        W19927   8.681   3.455  12.245  0.2519  0.0303 -0.0230
 3744W        W19928   7.892  14.136  13.639  0.0521  0.0283 -0.1698
 3745W        W19929  17.590  11.939   0.034 -0.1356 -0.3162 -0.0295
 3746W        W19930  10.629   7.436   5.673 -0.1984  0.1087 -0.0631
 3747W        W19931   6.938   1.535  16.649  0.6403  0.0897  0.2012
 3748W        W19932   9.977  14.515  15.844  0.0520  0.1395 -0.0841
 3749W        W19933  16.585  12.222  15.154  0.4897  0.0038 -0.0878
 3750W        W19934   7.566  17.245  14.243 -0.0789  0.0570 -0.1595
 3751W        W19935   8.722   7.136   2.042  0.0412 -0.1321 -0.1428
 3752W        W19936  16.992   4.414  11.587 -0.0722 -0.0608  0.1497
 3753W        W19937  16.378   4.140  13.236 -0.0337 -0.2412 -0.1509
 3754W        W19938  11.454  13.375  15.082  0.1527 -0.0452 -0.0401
 3755W        W19939   6.422  12.809   4.657  0.0360  0.2954  0.1891
 3756W        W19940  14.563   6.851  14.244  0.1350 -0.0612  0.0194
 3757W        W19941  16.084   2.070  13.158  0.1243 -0.1186  0.0048
 3758W        W19942  10.698   2.785  11.593  0.1933  0.2151  0.1244
 3759W        W19943   1.709   4.478   2.538 -0.0653 -0.3841  0.1156
 3760W        W19944  16.826  17.565   5.720  0.1920 -0.1467 -0.1336
 3761W        W19945   1.743  16.207  14.805 -0.0078 -0.1136  0.2056
 3762W        W19946   1.114   5.049   0.657  0.4566 -0.0338  0.1773
 3763W        W19947   1.544   9.386  13.894  0.0724 -0.0086  0.1311
 3764W        W19948   9.144   5.813  16.515  0.2795  0.2140  0.0715
 3765W        W19949   3.483   0.219   4.672  0.2113  0.2403 -0.1737
 3766W        W19950  12.785  14.581   2.775 -0.0232  0.0366 -0.0696
 3767W        W19951   4.098   4.781   6.080  0.3328  0.3121  0.2053
 3768W        W19952   8.814   3.654   5.313 -0.2742  0.1233  0.2178
 3769W        W19953   8.851   9.900   2.477  0.3424  0.1672  0.0139
 3770W        W19954  15.827  13.114  15.849  0.0943  0.1339  0.0311
 3771W        W19955   9.297   4.710   3.067 -0.1955 -0.3860  0.4608
 3772W        W19956   9.360   7.293  16.303  0.1486  0.2105 -0.2302
 3773W        W19957  17.060   0.200  13.255  0.0869  0.2025  0.0268
 3774W        W19958  12.916   2.979   1.368  0.0267  0.3457 -0.0698
 3775W        W19959   2.170   1.936  13.023 -0.0838 -0.1862 -0.1262
 3776W        W19960  13.173   3.282   3.818  0.2270 -0.0376 -0.2061
 3777W        W19961   5.454  16.162   3.922  0.0350 -0.0542 -0.3642
 3778W        W19962   0.731  10.607  15.296  0.2453 -0.0715 -0.1896
 3779W        W19963  13.847   0.840  14.471 -0.0405  0.1257  0.0669
 3780W        W19964  11.829   6.580  15.455  0.2081 -0.1445 -0.0522
 3781W        W19965  11.843   4.747   3.125 -0.3407 -0.0826 -0.0805
 3782W        W19966   2.864   7.612  16.383 -0.0103 -0.0311 -0.1907
 3783W        W19967  13.961   6.372   2.622  0.2303 -0.3084  0.0186
 3784W        W19968  11.068  12.187   4.796  0.0608 -0.1782 -0.1219
 3785W        W19969  11.606   9.530   2.840  0.3297  0.0746 -0.0560
 3786W        W19970  12.790   3.545   5.082  0.2033  0.1383 -0.0377
 3787W        W19971  18.116  10.432  14.893  0.2242  0.3213 -0.1689
 3788W        W19972  10.765   3.068  16.278  0.1307 -0.2511  0.1692
 3789W        W19973   4.268  13.030  14.531 -0.2085 -0.1556  0.0429
 3790W        W19974  13.317   7.681   0.216  0.0020  0.0746 -0.0031
 3791W        W19975   3.724  12.598   0.380 -0.2357 -0.2760 -0.1789
 3792W        W19976   6.513  15.555   1.317  0.2228 -0.0479 -0.0895
 3793W        W19977   1.375   4.292   4.375  0.0306  0.3406  0.1859
 3794W        W19978   9.346   0.616   3.967  0.0407  0.1593  0.1064
 3795W        W19979  11.102   6.528   3.655  0.2284  0.1624  0.1741
 3796W        W19980   8.068   3.089  13.822 -0.1508 -0.3282 -0.0441
 3797W        W19981   9.344  13.244  14.260  0.0381 -0.3601 -0.0024
 3798W        W19982   8.559   5.713  13.875 -0.1944 -0.2708 -0.0215
 3799W        W19983   0.140  13.095  14.230  0.0660 -0.2668 -0.0828
 3800W        W19984  13.966   6.432  15.041  0.1475 -0.0085 -0.2059
 3801W        W19985   3.062   2.212   2.278 -0.1043  0.0682 -0.0104
 3802W        W19986   2.496   8.324   0.195 -0.1906 -0.0980 -0.0850
 3803W        W19987   4.282  16.628   0.506 -0.2785 -0.3210  0.1031
 3804W        W19988   8.161  10.685  12.303 -0.1094 -0.0175  0.4058
 3805W        W19989  14.138   7.405   5.323 -0.0805 -0.0736  0.0675
 3806W        W19990  11.356   7.599  14.891  0.2614 -0.0239 -0.2152
 3807W        W19991   5.896   1.143  16.348  0.0339 -0.1819  0.3004
 3808W        W19992   8.670   6.464  14.105 -0.1258 -0.1339  0.1213
 3809W        W19993   4.184   5.538  12.183  0.0503  0.0776 -0.0333
 3810W        W19994  11.792   4.997  16.519 -0.2308 -0.0739 -0.0018
 3811W        W19995   9.807  10.793   2.302 -0.1978  0.1265 -0.2425
 3812W        W19996   1.285   2.271   3.633  0.4386 -0.2851  0.4047
 3813W        W19997   3.505  16.353  16.163  0.2431 -0.0890 -0.1168
 3814W        W19998   5.224  15.473  13.554 -0.1275 -0.0726 -0.0321
 3815W        W19999   5.240  10.029  11.699 -0.0922 -0.0806  0.0208
 3816W        W20000  14.597  15.666   3.830 -0.0507  0.1442 -0.2893
 3817W        W20001   2.965   7.980  14.561  0.1809 -0.0481 -0.3143
 3818W        W20002  10.285   4.015  15.147 -0.1915 -0.1848  0.0730
 3819W        W20003   1.157   3.324   4.767  0.0171 -0.0009  0.2196
 3820W        W20004   9.550  12.482   1.181  0.2406 -0.0776 -0.1224
 3821W        W20005   4.746  12.092   4.017 -0.0568  0.0009  0.0921
 3822W        W20006  12.860   2.962   3.318 -0.1046 -0.2951  0.3190
 3823W        W20007  13.861  16.228  13.484  0.0955  0.0775 -0.1029
 3824W        W20008   1.947   0.624  15.488 -0.0460  0.1528 -0.1128
 3825W        W20009   8.702  14.422  14.373  0.1133 -0.2490  0.1939
 3826W        W20010   8.354   7.565   0.836  0.4277  0.1095 -0.0527
 3827W        W20011   0.665   2.606  13.624 -0.0151  0.0196  0.1308
 3828W        W20012  17.607  17.612   2.449 -0.0181 -0.3714  0.3773
 3829W        W20013  10.845   4.415   2.506  0.1317 -0.3657  0.1982
 3830W        W20014   5.060   1.321  16.194  0.1729 -0.0182  0.2833
 3831W        W20015   1.834   4.244   3.983 -0.0258  0.1312  0.0172
 3832W        W20016  13.280   2.863   4.529  0.0975 -0.2662  0.0351
 3833W        W20017  17.715  17.939  14.928  0.0859 -0.0112 -0.0275
 3834W        W20018   3.131  17.426  15.149  0.2253  0.2313 -0.1949
 3835W        W20019  17.016  15.358   0.362 -0.0965 -0.0796 -0.1359
 3836W        W20020   0.565   3.779  16.179  0.1425  0.0814  0.0892
 3837W        W20021   0.791   7.024  12.510  0.1753  0.1953 -0.1446
 3838W        W20022   4.712  13.441   4.935  0.1623 -0.1170  0.0867
 3839W        W20023   5.706   8.800   3.492  0.2610 -0.2024  0.0069
 3840W        W20024  15.055   3.058   1.449  0.0827  0.3816 -0.2427
 3841W        W20025   5.339   1.665  13.264 -0.1401  0.0677 -0.1257
 3842W        W20026  16.053  13.645  13.056 -0.2463  0.0734  0.2489
 3843W        W20027   5.427   7.433  15.915  0.2130 -0.1282  0.2319
 3844W        W20028   2.474  17.400   0.433  0.0202  0.0584 -0.0689
 3845W        W20029  11.028  16.234   5.887 -0.0458 -0.0006  0.2643
 3846W        W20030  11.803   6.041   3.636 -0.1316  0.2055 -0.1024
 3847W        W20031  16.225   5.260   3.426 -0.2886 -0.1874  0.1605
 3848W        W20032   8.283  14.815   3.542  0.1633 -0.2796  0.0400
 3849W        W20033   7.622  12.041  15.285 -0.0704 -0.0761 -0.0354
 3850W        W20034  15.677   0.673   0.643  0.1180 -0.0648  0.0359
 3851W        W20035  16.113   5.431  12.698 -0.1139 -0.1202  0.1557
 3852W        W20036   9.867  12.457  12.351 -0.2305 -0.0256  0.2899
 3853W        W20037   5.559  15.792  16.144  0.1806  0.2293 -0.0897
 3854W        W20038   0.815   5.062  14.815  0.3707  0.1553  0.0514
 3855W        W20039   9.574   1.946  13.865 -0.3074  0.0535 -0.0077
 3856W        W20040   5.983  15.335   5.662 -0.3095 -0.0075  0.1117
 3857W        W20041  14.723  11.707   4.142  0.0197 -0.1698  0.0237
 3858W        W20042   6.829   3.238  13.399 -0.0537  0.0861 -0.0033
 3859W        W20043   7.020  16.111  13.658 -0.0496  0.0110 -0.0364
 3860W        W20044   7.178   7.755  12.334 -0.1152 -0.2410  0.1253
 3861W        W20045   6.749  12.737  16.670  0.1766 -0.0508  0.1160
 3862W        W20046  18.167   8.175   1.659  0.1753 -0.1383  0.4097
 3863W        W20047   5.200   0.118   0.867  0.0407  0.2214  0.0304
 3864W        W20048   9.608   5.325  14.170  0.0816 -0.1992 -0.1956
 3865W        W20049   0.087   4.215   2.407 -0.1335 -0.3711  0.0442
 3866W        W20050   7.943   4.968  14.459  0.2896 -0.1419  0.0486
 3867W        W20051  17.911   5.780  10.620  0.0308 -0.0757 -0.1410
 3868W        W20052  11.245   3.507  15.186 -0.2155  0.1787 -0.2244
 3869W        W20053   6.331  11.829  14.262 -0.0966  0.0697  0.4420
 3870W        W20054  16.080  12.701  15.665  0.2124  0.0660 -0.0857
 3871W        W20055   1.863   5.115  11.798 -0.1681  0.0396  0.0257
 3872W        W20056   5.811   5.128  16.656 -0.2819  0.3891  0.2301
 3873W        W20057  10.529  12.107   2.666  0.0809 -0.1575  0.0299
 3874W        W20058   8.462   3.941   6.320  0.0362  0.0885  0.1336
 3875W        W20059   3.671  17.464   1.853  0.3596  0.2825 -0.3257
 3876W        W20060   8.740  13.285   2.025 -0.2886  0.2676  0.3587
 3877W        W20061   6.514   5.115  12.757  0.2174  0.0724  0.0886
 3878W        W20062   6.924  13.234  15.509  0.4256  0.1060 -0.4340
 3879W        W20063   9.736   1.160  13.615  0.3696  0.1245  0.1115
 3880W        W20064   0.146   2.960  12.315  0.1795  0.2322 -0.1014
 3881W        W20065   9.325  14.886   5.052  0.0206 -0.1462  0.1261
 3882W        W20066  12.071   8.956   2.689 -0.0480 -0.0613 -0.0107
 3883W        W20067   7.581  16.144   0.731 -0.0461  0.1644  0.5270
 3884W        W20068   7.786   1.682   5.213  0.3324 -0.0288  0.2294
 3885W        W20069   8.088  11.378  11.940  0.1265 -0.1211  0.1716
 3886W        W20070   9.746  16.150   3.208  0.1147 -0.1452 -0.0755
 3887W        W20071   8.799   5.217   2.422  0.1829 -0.2121 -0.3406
 3888W        W20072   4.657  15.964   1.875  0.0919  0.1489 -0.0393
 3889W        W20073   7.182   2.011   1.419  0.2577 -0.0926 -0.1994
 3890W        W20074   6.193  14.875   0.195  0.1809 -0.0349 -0.0721
 3891W        W20075   7.795   5.625   4.506 -0.1206 -0.1286  0.1266
 3892W        W20076  10.529   8.061   0.279  0.1594  0.2903 -0.0110
 3893W        W20077   5.656   0.853  13.509 -0.0556 -0.2609 -0.0309
 3894W        W20078  18.082  10.056  12.313  0.0434 -0.1385  0.1470
 3895W        W20079   9.652   9.441  13.384 -0.1737 -0.0963 -0.0709
 3896W        W20080  13.618  12.510   4.589  0.2530  0.2363  0.1050
 3897W        W20081  12.576  11.420  12.036 -0.0792  0.1425  0.0706
 3898W        W20082   7.062  10.521   4.754  0.1006  0.0323 -0.1410
 3899W        W20083   2.273   4.072   1.179 -0.2507  0.1287  0.0702
 3900W        W20084   9.790  17.796  15.879 -0.2616 -0.1347  0.0421
 3901W        W20085  11.469   9.661   0.706  0.0174 -0.3346 -0.2133
 3902W        W20086  13.042   4.522   0.589 -0.1090 -0.2435 -0.1776
 3903W        W20087   3.332   5.428   4.287  0.1016  0.0964  0.2010
 3904W        W20088  15.182  16.077  15.008  0.0029  0.1360 -0.1745
 3905W        W20089  14.640   8.258   0.833 -0.0118  0.1153 -0.4135
 3906W        W20090  10.866  13.479   0.718  0.1294 -0.2863 -0.1635
 3907W        W20091   5.464  10.344   0.835 -0.0984 -0.0117  0.0143
 3908W        W20092  11.190  10.222  14.983  0.0368  0.1341  0.0804
 3909W        W20093  17.697   1.935  11.139 -0.0745 -0.0735 -0.3658
 3910W        W20094   9.065  14.655  16.111  0.0308 -0.1535  0.2591
 3911W        W20095   1.779   5.336   3.093  0.0253 -0.1513  0.4740
 3912W        W20096  12.165   4.849   0.795 -0.0256 -0.1108  0.2515
 3913W        W20097  17.209  15.789   3.106 -0.0424 -0.2320 -0.1313
 3914W        W20098  15.711   0.059   3.274  0.0333  0.4649 -0.0556
 3915W        W20099   2.353  11.464  16.598  0.3670  0.0489 -0.0257
 3916W        W20100  13.489  16.232  16.648 -0.2015 -0.1165  0.0679
 3917W        W20101  12.023  17.861  12.492 -0.1500  0.0107  0.0575
 3918W        W20102  12.054   6.674  12.848 -0.2521  0.2473  0.0141
 3919W        W20103   3.484   4.402   3.830 -0.2908  0.0090 -0.1692
 3920W        W20104  11.403   8.052  15.160  0.1638 -0.0185 -0.0970
 3921W        W20105  14.457  10.231  11.709 -0.0480 -0.3798  0.1576
 3922W        W20106  13.257  17.609  13.117  0.0614 -0.1038  0.1886
 3923W        W20107   1.973   7.056  11.309  0.0820 -0.1795  0.1943
 3924W        W20108  12.453   8.357  12.579 -0.1955 -0.2776  0.0770
 3925W        W20109  15.269  17.624   4.017  0.3916  0.0361 -0.1865
 3926W        W20110  11.230   4.581  12.768  0.0075 -0.0933  0.0042
 3927W        W20111   5.144  12.442   2.671  0.0439 -0.2283 -0.2667
 3928W        W20112  11.008   4.905  16.620  0.0970 -0.0698  0.0141
 3929W        W20113   4.837   1.359  10.977 -0.2636  0.2697  0.0092
 3930W        W20114  17.891  11.555  13.807  0.2252  0.1375 -0.1463
 3931W        W20115  17.545  10.088   2.129  0.2213  0.2216 -0.0275
 3932W        W20116  15.101   4.791  14.037  0.2059  0.0871  0.1084
 3933W        W20117  15.127   8.026  15.310  0.2024 -0.0403 -0.2053
 3934W        W20118   1.141  14.361   1.293  0.0972  0.0731 -0.0780
 3935W        W20119  13.858   3.427  14.985 -0.0881 -0.0052  0.0865
 3936W        W20120   8.975   1.598  13.510 -0.0076 -0.3572 -0.2491
 3937W        W20121  13.895  17.664   0.497  0.0930 -0.3292  0.0709
 3938W        W20122   5.243   7.999   1.935 -0.5993 -0.0322  0.1945
 3939W        W20123   2.765  10.961  13.652 -0.2265 -0.1222 -0.0411
 3940W        W20124  12.449   0.285  11.768 -0.0350  0.0948  0.1098
 3941W        W20125   6.968  13.130   2.205  0.0293 -0.1659  0.0840
 3942W        W20126  15.175   2.573  11.735 -0.1176 -0.0020  0.1332
 3943W        W20127  15.748   8.667   2.475  0.3827 -0.1456  0.0933
 3944W        W20128   8.451   6.637  13.402 -0.1907  0.0018 -0.2357
 3945W        W20129  16.287  14.618  11.361  0.0348  0.2045  0.0541
 3946W        W20130   8.959  15.148   1.033 -0.2887 -0.1117 -0.1678
 3947W        W20131   6.958  15.529  16.680  0.3253 -0.1986 -0.1911
 3948W        W20132  15.390  12.908   2.077 -0.0317  0.1106  0.1388
 3949W        W20133  10.237  13.602  11.974  0.1200 -0.1524  0.0585
 3950W        W20134  16.863   7.369   6.168  0.1524 -0.2022  0.1880
 3951W        W20135  10.748  15.308  14.624  0.2798  0.1436 -0.0102
 3952W        W20136  15.387  11.175  10.881 -0.1046  0.3577 -0.0842
 3953W        W20137  11.045   3.980   2.503  0.0072  0.2458  0.2780
 3954W        W20138  16.621  17.736   1.587 -0.0009 -0.2364 -0.0049
 3955W        W20139  17.250  14.481   5.356  0.2922 -0.0470  0.1617
 3956W        W20140  16.573   6.345  12.840 -0.0363  0.0665  0.1093
 3957W        W20141   4.335  14.196   1.820 -0.3705  0.1797  0.2206
 3958W        W20142   3.667   0.147  15.884  0.0173  0.0464 -0.1650
 3959W        W20143   7.284   8.390  13.658 -0.1413  0.0318 -0.1882
 3960W        W20144  12.197  16.885  15.540 -0.0133  0.1320  0.1012
 3961W        W20145  12.889   8.871  16.629 -0.1374 -0.0575  0.1282
 3962W        W20146   0.979   1.350  13.847 -0.1025  0.0508  0.2551
 3963W        W20147   4.478  17.768  16.313 -0.3555 -0.2125 -0.1434
 3964W        W20148   4.297  14.376  16.196 -0.1852 -0.2716 -0.1406
 3965W        W20149   7.938   4.662   3.142 -0.2322  0.0046 -0.0773
 3966W        W20150  14.462  17.214  14.467  0.0078  0.4170 -0.0615
 3967W        W20151  15.825   3.330  14.760  0.0686 -0.4822 -0.1382
 3968W        W20152  15.869   4.245  12.265 -0.2869 -0.0088  0.1707
 3969W        W20153  11.789  12.489  14.690  0.1905 -0.1467 -0.1066
 3970W        W20154   3.493   5.380  13.969 -0.1348  0.3887 -0.1331
 3971W        W20155   8.686   9.173  11.837 -0.1722  0.1794  0.3048
 3972W        W20156   2.822  14.915   0.657  0.0107 -0.0624 -0.0248
 3973W        W20157  15.953  18.024  15.448  0.3836  0.2099 -0.2365
 3974W        W20158  16.709   6.841  15.409 -0.0828 -0.2351  0.1057
 3975W        W20159  17.153  17.110  12.252 -0.1209  0.1235  0.1353
 3976W        W20160  17.558   5.394  14.864 -0.0510  0.1296  0.0885
 3977W        W20161   3.153  18.166   5.020  0.5408  0.3161 -0.0043
 3978W        W20162  10.005  10.289   5.049 -0.2843  0.2361 -0.0228
 3979W        W20163  17.700  10.500   0.585  0.0890 -0.1376  0.0218
 3980W        W20164  12.528   3.724  14.311  0.1537 -0.1386  0.0058
 3981W        W20165   4.983   0.983   1.930 -0.4097  0.0427  0.2034
 3982W        W20166   5.476   1.018  11.697 -0.2947 -0.2077 -0.0934
 3983W        W20167   6.538   1.823   3.970 -0.2208  0.1295 -0.1369
 3984W        W20168   0.468   0.978   2.477  0.0690  0.0668  0.0449
 3985W        W20169  17.478  14.495  12.279 -0.1738 -0.3042  0.0529
 3986W        W20170   8.892   6.700  13.153  0.2448 -0.0672 -0.2222
 3987W        W20171   8.851   0.792   3.310 -0.2139 -0.0049  0.1685
 3988W        W20172  10.040   5.600   4.857 -0.2379 -0.0512 -0.2189
 3989W        W20173  16.946  16.862  15.233  0.0828  0.1420  0.1433
 3990W        W20174  15.339   0.511  15.568 -0.0131 -0.1848 -0.1123
 3991W        W20175  13.786   8.876  14.326  0.0775 -0.3248 -0.5411
 3992W        W20176  11.019  17.278  12.591 -0.0004 -0.1780 -0.0036
 3993W        W20177  13.505  10.358  11.306  0.0209  0.1397  0.2794
 3994W        W20178   8.931   4.899  12.423 -0.0612 -0.1866  0.1738
 3995W        W20179   8.888  16.238   5.534  0.1278  0.3137  0.0210
 3996W        W20180   3.446   4.949  13.019  0.2116 -0.1394 -0.2942
 3997W        W20181   7.189   7.020   3.590 -0.4629  0.1681 -0.1634
 3998W        W20182  10.591  10.351   3.098 -0.2518  0.0123  0.1588
 3999W        W20183   1.262  17.780  13.026  0.1265 -0.2136  0.1900
 4000W        W20184   6.517   5.536   1.714  0.1181  0.3311  0.2290
 4001W        W20185   9.277   8.263  12.360  0.0864  0.3845 -0.0924
 4002W        W20186   2.227   6.289   2.776  0.2021 -0.0294 -0.0654
 4003W        W20187  14.702  12.787   5.465 -0.1959 -0.0280  0.0860
 4004W        W20188  14.738   0.278   3.541  0.0855 -0.0353  0.1288
 4005W        W20189   3.881   5.698  12.556  0.2776 -0.2095  0.0112
 4006W        W20190  11.782  10.087  12.458 -0.0660  0.1135 -0.1027
 4007W        W20191  10.129   8.078  15.912 -0.3948  0.2271  0.3063
 4008W        W20192  10.327   5.012   0.996  0.0803 -0.3065  0.0074
 4009W        W20193   9.680  16.243   2.108 -0.0528 -0.2244 -0.2397
 4010W        W20194   1.592   1.275   1.963  0.5890  0.0500 -0.0655
 4011W        W20195  13.225  15.675  13.269 -0.1887 -0.2800 -0.2678
 4012W        W20196   2.176  13.048   4.977 -0.0477  0.0661  0.1381
 4013W        W20197   0.986   3.703  12.654  0.0242 -0.0356  0.0787
 4014W        W20198   9.804  16.128   3.773 -0.1652  0.4457 -0.0788
 4015W        W20199   2.125  10.429  12.474  0.1888 -0.3459  0.1807
 4016W        W20200  16.727  16.576   5.144 -0.0258 -0.3288 -0.0026
 4017W        W20201  17.900   2.420   1.440 -0.3413 -0.1296  0.2025
 4018W        W20202   9.200  11.033  15.845 -0.0159 -0.0585 -0.3168
 4019W        W20203  10.328  15.213  15.079 -0.3252  0.0048 -0.1953
 4020W        W20204   1.652  14.167  12.652  0.3727  0.0920  0.2342
 4021W        W20205  17.024   1.273  12.937 -0.2857  0.3958 -0.2824
 4022W        W20206   9.656   6.950  12.431  0.2919 -0.1246 -0.3509
 4023W        W20207   4.204  15.103   5.911  0.3756  0.0836 -0.1602
 4024W        W20208  10.454   9.931   0.841  0.3314  0.0681 -0.0426
 4025W        W20209  10.070  16.623  14.968 -0.2161  0.0611  0.1530
 4026W        W20210   3.433  14.521   4.751  0.0288 -0.0683  0.0780
 4027W        W20211   4.087   3.214  16.508 -0.0791  0.1811 -0.0388
 4028W        W20212  10.013   7.561  12.722  0.0072 -0.0345 -0.2527
 4029W        W20213  14.155   3.137   5.573 -0.3331  0.0224  0.2685
 4030W        W20214   5.780   8.144   5.072 -0.0943 -0.1370  0.0497
 4031W        W20215   7.180  10.511   2.907 -0.0056  0.3996  0.0220
 4032W        W20216   5.062   0.029  12.977  0.0976  0.0633  0.0839
 4033W        W20217   3.342   6.412   5.498 -0.0044  0.3285  0.1052
 4034W        W20218  10.388   4.281  14.748  0.1588  0.0467 -0.0125
 4035W        W20219   5.214  15.936   2.869  0.3197 -0.1854 -0.1020
 4036W        W20220  12.089   4.224   4.449 -0.0444 -0.2069 -0.0159
 4037W        W20221  14.173   6.069   5.926  0.0283 -0.0198  0.1849
 4038W        W20222  10.424   2.232  14.743 -0.2914 -0.0330  0.1083
 4039W        W20223   7.843   9.716  14.626 -0.0045 -0.0255  0.1417
 4040W        W20224   3.395  17.604   3.287  0.1134 -0.1800 -0.1430
 4041W        W20225   4.950   1.502  15.087  0.0420  0.0733 -0.0409
 4042W        W20226  16.067   1.771  16.578  0.0697 -0.0857 -0.2374
 4043W        W20227   0.652   5.724  13.881  0.2428  0.0306  0.1442
 4044W        W20228   4.916   4.156   1.941 -0.0241  0.1538 -0.1130
 4045W        W20229  12.182  14.602   4.597  0.0187  0.0052 -0.1581
 4046W        W20230   5.421   4.696  16.020 -0.0254 -0.2510 -0.0030
 4047W        W20231   3.977   2.437   4.162  0.0453  0.1160  0.0787
 4048W        W20232   4.473   5.336   3.650  0.1484 -0.3873 -0.0549
 4049W        W20233   8.234   1.553   0.161 -0.0875  0.0429  0.3064
 4050W        W20234   6.957  14.464  16.327  0.2035  0.1951  0.2177
 4051W        W20235   9.467   0.292  13.647 -0.0736 -0.1409 -0.2533
 4052W        W20236  12.391  13.931   2.877 -0.1534  0.1577  0.1229
 4053W        W20237   3.268   0.108   1.395  0.0800  0.1918  0.4499
 4054W        W20238   3.354   0.068   0.800 -0.3129 -0.1390 -0.1243
 4055W        W20239   8.392  15.552  15.305 -0.2669 -0.2293 -0.0010
 4056W        W20240  14.671   2.626   1.533 -0.2535 -0.0234  0.1950
 4057W        W20241  16.414   1.963   1.779  0.2697  0.0837 -0.0880
 4058W        W20242   0.141   0.539   3.935 -0.1180 -0.1095  0.1303
 4059W        W20243   1.257   2.016   4.084 -0.3075  0.1030 -0.2608
 4060W        W20244   8.490  17.085   5.615  0.1138  0.2140 -0.3603
 4061W        W20245  15.581  12.911   4.993  0.2891  0.1873  0.0871
 4062W        W20246  10.204   9.075   6.012 -0.2637 -0.2902 -0.1838
 4063W        W20247  16.833  11.614   0.689  0.0745 -0.0746 -0.2355
 4064W        W20248   4.490  11.214   1.241  0.0284  0.1320  0.2102
 4065W        W20249  15.913  12.239  12.559 -0.3037 -0.2859 -0.0739
 4066W        W20250   0.581  16.213  12.967  0.0688 -0.1669  0.4818
 4067W        W20251   5.320   6.570  13.719 -0.0908  0.1515  0.0657
 4068W        W20252   8.897   1.607  12.563 -0.1521 -0.1181 -0.1569
 4069W        W20253  12.853   4.401   2.443  0.0074 -0.0078  0.3925
 4070W        W20254  16.473   1.523  15.174 -0.0008 -0.2978 -0.0009
 4071W        W20255   1.687  12.575  13.494 -0.2507 -0.0451  0.1860
 4072W        W20256   1.261   5.118  10.788  0.2015  0.1916  0.2296
 4073W        W20257   7.468   1.443  14.002  0.0962 -0.2531  0.0416
 4074W        W20258  16.063   6.027  13.094 -0.0923  0.1163 -0.0754
 4075W        W20259  17.179   7.647   5.065 -0.1797 -0.2342 -0.3752
 4076W        W20260   5.781   4.266  15.040 -0.0368 -0.1739 -0.1063
 4077W        W20261   8.000   6.535   5.126 -0.0843  0.3627  0.0408
 4078W        W20262   8.320   1.631  12.492 -0.2128 -0.2151  0.1980
 4079W        W20263  14.970   4.334   2.788  0.1094 -0.0572  0.3224
 4080W        W20264   2.993   3.816   5.469  0.1424 -0.0940 -0.1940
 4081W        W20265   0.839   6.705   3.226  0.2526  0.3095 -0.1237
 4082W        W20266  16.369   5.047  12.923 -0.0711 -0.1031  0.1126
 4083W        W20267   7.230  11.246   0.444  0.0144 -0.0353  0.1521
 4084W        W20268   5.213  18.156   2.820  0.2561 -0.2212  0.0598
 4085W        W20269  13.755   5.711   1.229 -0.1739  0.1205  0.0366
 4086W        W20270  13.305   2.318   0.802  0.1255  0.0547  0.1424
 4087W        W20271   7.760   8.253  15.582 -0.0833  0.1296  0.1315
 4088W        W20272   6.240   2.113   3.109  0.1883  0.0822 -0.2226
 4089W        W20273   5.871  14.755  14.499 -0.2538 -0.1831 -0.1382
 4090W        W20274  12.136   0.281  13.626 -0.1017  0.0240 -0.3253
 4091W        W20275  14.745  14.977   2.555 -0.0155 -0.1991  0.1472
 4092W        W20276   1.667  14.004  15.536  0.2166 -0.1099  0.0418
 4093W        W20277  13.499  11.426   1.477  0.1406 -0.1043 -0.2843
 4094W        W20278   9.854   2.921  14.659  0.1267 -0.0865 -0.0018
 4095W        W20279  14.705   1.519  16.585  0.2173  0.4380 -0.1852
 4096W        W20280   3.813   4.728  12.128  0.2057  0.1527 -0.2717
 4097W        W20281   8.447  14.417   2.342  0.1634  0.1679 -0.0537
 4098W        W20282  13.770   7.092   4.488 -0.0913 -0.0906  0.0689
 4099W        W20283   9.086  13.853   0.092  0.1248  0.0527 -0.2393
 4100W        W20284   2.070   4.114  14.486  0.1054  0.1268 -0.0226
 4101W        W20285   4.072   6.825   0.454  0.2961 -0.1304  0.0617
 4102W        W20286  12.517  16.664   3.132 -0.0077  0.1338 -0.2509
 4103W        W20287   4.289  14.957  13.931 -0.0330  0.1791  0.0353
 4104W        W20288   3.151  15.260   2.327  0.3715 -0.0153 -0.2583
 4105W        W20289  17.950  17.846   3.094  0.2504 -0.0217 -0.0549
 4106W        W20290  14.323  14.735   3.774 -0.2208  0.2514  0.2054
 4107W        W20291  10.305  14.010  14.390  0.3798  0.1221 -0.0939
 4108W        W20292  17.089  14.664   2.663  0.0994  0.2399 -0.2132
 4109W        W20293   8.130  11.006   2.519  0.0336 -0.0397  0.1140
 4110W        W20294  12.459   8.027   1.304 -0.3058  0.1764  0.4715
 4111W        W20295  12.353   6.119  13.396  0.0195  0.2022  0.1013
 4112W        W20296  14.350   2.342   0.343 -0.0732  0.1570 -0.2201
 4113W        W20297  13.557  10.088  15.155  0.2356  0.0002  0.0951
 4114W        W20298  13.053   2.841   5.609 -0.0792  0.0105 -0.0417
 4115W        W20299  11.780   5.452   0.111  0.1103 -0.0612  0.1057
 4116W        W20300  15.121   2.721   2.428 -0.0996  0.1439 -0.2009
 4117W        W20301   5.050  11.915   2.501 -0.0752  0.1233 -0.1196
 4118W        W20302  11.320   3.254  13.077  0.0377  0.2095 -0.1505
 4119W        W20303   2.482  16.815   1.731  0.1136 -0.1694  0.3133
 4120W        W20304   3.821   6.920  12.668 -0.0997 -0.0009  0.3434
 4121W        W20305  14.342  16.264   2.962 -0.2136  0.0170  0.5478
 4122W        W20306  12.737   3.842  16.211 -0.0469  0.0722 -0.1083
 4123W        W20307   2.849   4.498  15.180 -0.0222 -0.0213  0.0945
 4124W        W20308  12.150   7.246  15.598  0.0129 -0.2596 -0.1249
 4125W        W20309  17.318  13.349  15.615  0.0098  0.1284  0.0804
 4126W        W20310  13.015   1.359   0.402 -0.0417  0.1119 -0.1421
 4127W        W20311   0.304   0.212  14.205 -0.1918 -0.0249  0.3898
 4128W        W20312  11.800  16.742  16.389 -0.0655  0.0201 -0.3309
 4129W        W20313   8.982   0.037   2.115 -0.1192 -0.0580 -0.0940
 4130W        W20314  15.570  16.950  12.894 -0.3105  0.0838 -0.0419
 4131W        W20315   2.669  16.378   0.194  0.2674 -0.1068  0.3074
 4132W        W20316  11.786   1.966  13.242 -0.1400  0.0346 -0.0200
 4133W        W20317   5.343   4.064  15.432 -0.0271 -0.0107 -0.0452
 4134W        W20318   1.035  15.193  16.563 -0.0523  0.0015  0.0446
 4135W        W20319  16.846  17.531  15.959  0.0333 -0.1289  0.0676
 4136W        W20320   9.854   8.563  12.354  0.2940  0.0568  0.3317
 4137W        W20321  11.681  15.038   3.536  0.3371 -0.0025  0.2181
 4138W        W20322   5.256  14.836   0.337 -0.3700  0.0502 -0.1789
 4139W        W20323  14.319   1.284   0.183  0.1867  0.1346  0.2615
 4140W        W20324  10.200  15.372  16.433  0.2840 -0.3199 -0.2667
 4141W        W20325   9.126  12.746  12.004 -0.1146 -0.0519  0.0765
 4142W        W20326  10.126   2.361   4.279 -0.1054  0.4904 -0.1831
 4143W        W20327   3.642   9.921   3.251 -0.0235 -0.2476  0.1402
 4144W        W20328   2.608   9.337   2.180  0.2374 -0.0811 -0.2508
 4145W        W20329  13.958   2.045   0.404 -0.0698  0.1098 -0.0456
 4146W        W20330   8.272  13.149   4.828 -0.0406 -0.3357 -0.0939
 4147W        W20331   6.761  12.965   3.220  0.2053 -0.0406  0.0368
 4148W        W20332   0.313   7.962  10.184  0.1964  0.2103  0.0785
 4149W        W20333  11.866   7.922   2.983 -0.0644 -0.2866 -0.4089
 4150W        W20334   6.559   4.774  14.146 -0.1882 -0.1008 -0.0117
 4151W        W20335  14.716   6.710  12.685 -0.1375  0.1685  0.3745
 4152W        W20336   6.127   0.807   3.266  0.4929  0.0462 -0.1299
 4153W        W20337   2.942   3.783   2.993 -0.2944  0.0454 -0.0886
 4154W        W20338   3.011  13.090  11.145  0.1068 -0.0154 -0.0386
 4155W        W20339   5.400  16.177   0.560 -0.1346  0.0287  0.1721
 4156W        W20340  10.650   3.385   5.713  0.0935  0.0133 -0.1233
 4157W        W20341  12.633   6.915  12.260  0.1366  0.0268  0.1214
 4158W        W20342  14.219   6.146  15.422 -0.1578  0.4738 -0.2312
 4159W        W20343   1.166  17.538  12.059  0.0175 -0.3832  0.3642
 4160W        W20344  17.641   3.524   2.512  0.0186 -0.1502 -0.1849
 4161W        W20345   9.119   8.401  13.498  0.2680  0.3341 -0.0592
 4162W        W20346  16.349   5.088  12.422  0.4352  0.1360 -0.0500
 4163W        W20347   7.118  16.264   4.279  0.4980  0.0608 -0.1806
 4164W        W20348  15.435   2.123   4.622 -0.3402 -0.0073  0.2151
 4165W        W20349  14.171   0.925   3.368  0.1975 -0.3132  0.3493
 4166W        W20350  17.866  14.596  15.540 -0.0904  0.2433  0.4152
 4167W        W20351  15.446   0.461  10.952 -0.1293 -0.0299  0.0556
 4168W        W20352  16.229   3.666  13.487  0.1354  0.1500 -0.4101
 4169W        W20353  12.152  14.675   4.003  0.1176  0.2084 -0.1678
 4170W        W20354   7.987  10.927  15.279  0.0670 -0.2324  0.2544
 4171W        W20355   5.972   1.948  16.108  0.2995 -0.1918  0.2412
 4172W        W20356   1.810  11.046   3.015 -0.0169  0.0346 -0.2057
 4173W        W20357   8.961   9.113   5.509  0.0912 -0.0527  0.1336
 4174W        W20358   2.619   4.439   0.954 -0.1517 -0.3004 -0.1564
 4175W        W20359   7.679   0.671   0.240  0.0865  0.1556  0.0739
 4176W        W20360  12.428   8.775   3.140 -0.5120 -0.1276  0.1017
 4177W        W20361   2.080   7.573   3.570  0.2531 -0.3818  0.0106
 4178W        W20362   1.799   4.008  16.175  0.0693  0.0437 -0.0299
 4179W        W20363  10.408  17.285   4.246 -0.4641 -0.0871  0.1566
 4180W        W20364  15.446   3.020  14.063 -0.0028 -0.3721 -0.0884
 4181W        W20365  13.597   5.412  12.158  0.3589 -0.1864  0.1250
 4182W        W20366  13.405   3.013  14.371  0.1350 -0.1586  0.2022
 4183W        W20367  14.728  13.485   0.406  0.1685 -0.1363 -0.0332
 4184W        W20368   2.725   3.354  11.517 -0.3311 -0.1098  0.1348
 4185W        W20369   4.721   5.505   0.196  0.2430  0.2264  0.1661
 4186W        W20370   0.551  10.872   2.811 -0.0709 -0.0524  0.2018
 4187W        W20371  15.714  12.883  12.705 -0.1239 -0.0031  0.1854
 4188W        W20372   0.205   3.739   1.336  0.0344 -0.1461 -0.0377
 4189W        W20373   6.423  10.270  13.226  0.3088 -0.0339 -0.0980
 4190W        W20374   0.313  11.129   3.669  0.2526 -0.0049 -0.2048
 4191W        W20375   6.422   1.278   2.311 -0.2409 -0.1856 -0.0687
 4192W        W20376  17.776   3.452  13.012 -0.1088 -0.0881  0.1147
 4193W        W20377   5.215   5.813   0.140  0.1651  0.1504 -0.2463
 4194W        W20378  10.843   3.713  16.458  0.1246 -0.0029  0.1025
 4195W        W20379   7.211   5.242   3.417  0.0703  0.1647 -0.0611
 4196W        W20380  16.081   3.434   1.998 -0.2680  0.1042  0.3078
 4197W        W20381  13.733   9.867   0.119 -0.0222  0.1349  0.1316
 4198W        W20382   2.488   2.430  14.034  0.3558  0.1317  0.2950
 4199W        W20383   0.948   7.239  15.858  0.0255  0.0906  0.0380
 4200W        W20384  13.583   1.475   4.725 -0.0145 -0.1658  0.0100
 4201W        W20385  13.612   8.989  12.439  0.0895  0.0154  0.1081
 4202W        W20386  14.583   6.228  11.924  0.0009  0.1806  0.2253
 4203W        W20387  17.960   9.240   2.660 -0.2410  0.0884 -0.1528
 4204W        W20388  16.641  13.444  15.299 -0.0151  0.0855  0.1403
 4205W        W20389   3.507  11.361   0.315  0.2394 -0.3390 -0.1825
 4206W        W20390   7.421  11.391   4.730 -0.2516 -0.1140  0.2156
 4207W        W20391  14.978   7.032   2.154 -0.1784 -0.3042 -0.0640
 4208W        W20392  14.306   9.988  13.813 -0.1169  0.0259  0.0160
 4209W        W20393  13.347   2.731   1.357  0.0891  0.3595 -0.1251
 4210W        W20394   6.072   5.294   0.350  0.0627  0.1543 -0.1025
 4211W        W20395  17.868   9.752   4.799 -0.3143 -0.0536  0.1111
 4212W        W20396  16.349  13.879  13.837 -0.0958 -0.0724 -0.2517
 4213W        W20397  14.208   1.398   3.603  0.2983  0.0140 -0.0063
 4214W        W20398  10.864  16.926  16.036 -0.1363 -0.0911 -0.1350
 4215W        W20399   1.550   4.468  11.106 -0.0093  0.0364 -0.0601
 4216W        W20400   1.534   6.813  12.970 -0.3224 -0.0034 -0.1931
 4217W        W20401   4.461  11.863   3.332  0.1827  0.4736 -0.0287
 4218W        W20402   5.174  15.959  14.500  0.2000  0.1720 -0.3758
 4219W        W20403   0.367  10.349   0.689 -0.1226 -0.3419  0.0376
 4220W        W20404  10.924   8.052   2.199  0.2089 -0.2477 -0.0460
 4221W        W20405  10.225  10.752  15.671  0.2602  0.0951 -0.0843
 4222W        W20406  12.293  10.619   3.107 -0.0539 -0.1150  0.0488
 4223W        W20407  16.890   0.539  16.277 -0.1763  0.1653  0.3433
 4224W        W20408  11.611  10.956  16.319  0.1841 -0.3051 -0.0511
 4225W        W20409   9.323  16.519  13.249  0.2738  0.1871  0.3070
 4226W        W20410  13.721   3.956  14.601  0.0905 -0.0195 -0.2583
 4227W        W20411   8.397  17.266   2.919 -0.1649 -0.1184 -0.0285
 4228W        W20412   6.628   0.829   3.183  0.0662  0.1817 -0.1439
 4229W        W20413   5.095  16.596   5.568 -0.0109  0.3341  0.0521
 4230W        W20414  13.568  13.678   5.368  0.1058  0.0592  0.1338
 4231W        W20415  10.225  17.025  14.106  0.1903 -0.0880 -0.0110
 4232W        W20416  15.522   2.330   3.374 -0.3925  0.2138 -0.0925
 4233W        W20417   0.707  12.422  16.088 -0.1518  0.1861 -0.1352
 4234W        W20418  13.030   5.340   5.143  0.2594 -0.2291 -0.1071
 4235W        W20419   8.577  16.847  13.535 -0.1124  0.2350 -0.0937
 4236W        W20420   9.670   1.251   5.567  0.0448  0.1786 -0.2026
 4237W        W20421  14.932   6.220  13.724 -0.0765 -0.1858  0.1123
 4238W        W20422   3.257   8.942   1.543  0.1823  0.1697  0.1819
 4239W        W20423  13.853   3.607   5.473 -0.0859  0.1056  0.0997
 4240W        W20424  11.318   1.229  15.188  0.0504 -0.0353  0.0951
 4241W        W20425   4.098  14.420   5.140  0.2422 -0.3402 -0.2387
 4242W        W20426  15.906   2.890  14.219 -0.2895  0.2178 -0.1865
 4243W        W20427  12.629   5.742   2.563 -0.1624  0.0037 -0.0389
 4244W        W20428  10.901  15.611  12.753 -0.2537 -0.0579  0.2925
 4245W        W20429   6.041  17.040   3.861  0.1049 -0.0904  0.2963
 4246W        W20430   7.078  15.200  12.560  0.1819 -0.0399  0.2251
 4247W        W20431   6.460  16.356  14.748  0.1052 -0.3539 -0.1189
 4248W        W20432   5.513   9.579   0.364  0.0838 -0.0170 -0.0142
 4249W        W20433  14.193   3.153   2.552  0.3143  0.1663 -0.1266
 4250W        W20434  12.031  18.154   4.892 -0.0633 -0.0462  0.1831
 4251W        W20435   0.889   6.688  14.146 -0.2048  0.4097  0.0490
 4252W        W20436   0.293  14.231  13.503  0.0552  0.4755 -0.2511
 4253W        W20437   8.471  13.071   3.838  0.0030  0.0104  0.1106
 4254W        W20438  12.633  15.162   6.065  0.2408 -0.0929 -0.1171
 4255W        W20439  10.727   9.795   2.009 -0.3113  0.3131  0.5130
 4256W        W20440   4.400   7.799  13.893  0.0295  0.0565  0.1064
 4257W        W20441  17.288  12.016   4.310 -0.2420 -0.0232  0.1406
 4258W        W20442  13.295  15.497  14.820 -0.0499  0.0342  0.1130
 4259W        W20443   3.196   8.644   4.774  0.0512 -0.3557  0.2104
 4260W        W20444   7.065   3.717   3.380 -0.3987  0.0146  0.1110
 4261W        W20445  12.351   3.816  14.809 -0.0300 -0.2603  0.0604
 4262W        W20446   1.696   3.520   6.056  0.1475  0.2882 -0.2463
 4263W        W20447   6.393   4.680  16.061 -0.4727  0.1068  0.0622
 4264W        W20448  10.952   8.860   1.539  0.1259 -0.0100  0.1394
 4265W        W20449   5.680   0.883   5.074  0.3198  0.0734  0.0580
 4266W        W20450   7.130  10.161  12.782  0.1015  0.3305  0.3868
 4267W        W20451   9.184  16.750  11.791 -0.0559 -0.1999  0.0743
 4268W        W20452   7.160   4.663  15.010  0.0643 -0.0784 -0.0151
 4269W        W20453  10.625  14.051   5.366 -0.2347  0.1169  0.0190
 4270W        W20454   3.231   0.308  16.107  0.1135  0.0287  0.0382
 4271W        W20455   7.367   7.428  15.500  0.2387  0.1778 -0.1157
 4272W        W20456  14.411  10.995   3.727 -0.1440 -0.0641  0.5194
 4273W        W20457  15.159  11.703  15.402  0.2803 -0.4423  0.0143
 4274W        W20458   5.549  15.999  12.921  0.0837  0.1199  0.1404
 4275W        W20459   2.717  16.578  12.487 -0.2988  0.2260  0.1516
 4276W        W20460  15.815  10.876  12.309 -0.2424 -0.0232 -0.2394
 4277W        W20461  10.876   9.633   3.898 -0.1629  0.0399  0.3951
 4278W        W20462  16.960  11.211   2.532  0.0763  0.1429 -0.0547
 4279W        W20463   4.607  14.882   2.494  0.0171 -0.2434 -0.1556
 4280W        W20464   7.670   9.773  15.666  0.0776 -0.1937  0.0026
 4281W        W20465   8.431  10.282  12.556 -0.3942  0.1896  0.1763
 4282W        W20466  12.817   0.764  14.439  0.0192 -0.0283 -0.1575
 4283W        W20467   8.680  17.544   0.948 -0.0899  0.1740 -0.1023
 4284W        W20468   7.774  17.001   1.598  0.0806  0.1086  0.1133
 4285W        W20469   7.516  10.680  11.453 -0.3310 -0.2483 -0.0242
 4286W        W20470  14.888   3.457  14.922 -0.0634  0.0131 -0.1623
 4287W        W20471  18.000   0.151  11.358  0.1019  0.3241 -0.1515
 4288W        W20472  12.254  12.481  13.593 -0.3321 -0.1410  0.0135
 4289W        W20473  11.390  15.718   0.163 -0.1441  0.0734  0.2221
 4290W        W20474  15.854   8.177   5.461 -0.1944 -0.0842 -0.0687
 4291W        W20475   2.307   5.466  13.236  0.4747 -0.0171 -0.1577
 4292W        W20476   0.424   9.944  15.515 -0.3588  0.0654  0.0231
 4293W        W20477  14.182   9.543   1.378 -0.0210 -0.2189 -0.2549
 4294W        W20478  11.968   7.821  11.069 -0.1729  0.2764  0.0081
 4295W        W20479  15.675  11.998  12.224  0.0861  0.1230  0.2090
 4296W        W20480   1.253  10.505   2.162 -0.1439  0.0133 -0.1377
 4297W        W20481  10.473   0.480  16.045 -0.1622 -0.1037 -0.2463
 4298W        W20482  10.472   6.168   3.069 -0.1544  0.0322  0.2145
 4299W        W20483   6.075   5.322  12.478  0.1626 -0.0619  0.4190
 4300W        W20484  12.793  13.196  11.443  0.1640  0.1393  0.0326
 4301W        W20485  12.979   2.726   6.072  0.0651  0.0321 -0.0387
 4302W        W20486  15.003   9.163   2.810  0.0749  0.1588 -0.0837
 4303W        W20487  11.264   1.406   0.898 -0.0465  0.2448  0.1077
 4304W        W20488  17.349   7.500  13.990 -0.1856  0.2336  0.1970
 4305W        W20489   6.876  13.243  14.975 -0.0466 -0.1457  0.1113
 4306W        W20490   3.871   3.318  14.424 -0.0143 -0.1118  0.3470
 4307W        W20491  10.865  16.703   4.804 -0.0980  0.2894  0.1850
 4308W        W20492  17.188   9.939  14.787 -0.2218  0.0197 -0.0139
 4309W        W20493   6.970   3.172   6.479  0.2776 -0.1319 -0.0839
 4310W        W20494  17.875  12.546   3.598 -0.0343 -0.2545  0.1687
 4311W        W20495   4.729  16.846   6.061  0.0878 -0.0288 -0.1775
 4312W        W20496   9.583   2.937  11.581 -0.0430 -0.0046 -0.0169
 4313W        W20497  16.895   0.874  13.992 -0.1857 -0.1400 -0.2018
 4314W        W20498   0.982   1.151   1.475 -0.0328 -0.3175 -0.0492
 4315W        W20499   9.503  11.522   4.044  0.1450  0.0935 -0.1771
 4316W        W20500  17.127   9.763  13.293 -0.0289 -0.1737 -0.0038
 4317W        W20501   0.528   7.280   0.614 -0.2590 -0.1851  0.1351
 4318W        W20502  12.282  15.977   0.765 -0.1258 -0.1637  0.0563
 4319W        W20503   4.803  10.306  11.620  0.0305 -0.1193  0.1031
 4320W        W20504   9.163  17.755  12.328 -0.2122  0.0053 -0.1292
 4321W        W20505   5.544   1.521   1.557  0.0749 -0.1691  0.1841
 4322W        W20506  16.804   8.490   4.379  0.0094 -0.2043 -0.1758
 4323W        W20507  12.600  15.541  16.581  0.4923  0.0778  0.1066
 4324W        W20508  13.412   3.658  14.819 -0.2137 -0.5183 -0.5697
 4325W        W20509   0.659   8.979   1.460 -0.1118 -0.0869  0.0225
 4326W        W20510  17.198  15.563  14.819 -0.0944 -0.3247  0.1626
 4327W        W20511  14.561   8.238   5.709  0.1767  0.0474  0.0856
 4328W        W20512   9.102  17.812  12.963 -0.0976  0.0599  0.1194
 4329W        W20513  10.577   6.394  15.232 -0.1578 -0.1575  0.2795
 4330W        W20514  12.058   2.225   3.656  0.3897  0.0023 -0.2285
 4331W        W20515   1.311  15.697   5.915 -0.0461 -0.1024 -0.0266
 4332W        W20516  10.727   2.317   0.142  0.2591  0.2208  0.0789
 4333W        W20517   6.805   3.427  16.654 -0.0066  0.1575 -0.0079
 4334W        W20518   9.705   9.180  16.595 -0.1988 -0.1191 -0.1154
 4335W        W20519   0.095   0.432  10.907  0.1899  0.0322 -0.1572
 4336W        W20520  11.322   8.991   5.400  0.2242 -0.1655 -0.0935
 4337W        W20521  11.635  15.763   0.671 -0.0941  0.1153 -0.0756
 4338W        W20522   1.915  14.401  15.900  0.3176  0.0745  0.1683
 4339W        W20523   2.926   7.143  11.625  0.2360  0.0569 -0.3739
 4340W        W20524   2.338   2.105  10.948 -0.0970 -0.1140 -0.1361
 4341W        W20525  15.263  12.838   2.656 -0.1645  0.0981  0.1822
 4342W        W20526  16.022   5.609  11.045  0.1455  0.3210  0.0277
 4343W        W20527  11.806  11.977  12.536  0.1060 -0.1129  0.1923
 4344W        W20528   9.723  10.223   3.838  0.3655  0.0314  0.0262
 4345W        W20529   0.855  13.321  13.551  0.3091 -0.0891 -0.3650
 4346W        W20530   3.215   9.624   4.060  0.2034 -0.1185 -0.1372
 4347W        W20531  12.995  15.131   2.056  0.0923  0.1768 -0.0742
 4348W        W20532  15.758  10.052   5.426  0.2448  0.0858 -0.2345
 4349W        W20533   3.024  11.942  16.476 -0.4437 -0.1358 -0.0145
 4350W        W20534  15.082  12.624  15.662 -0.1595  0.0408 -0.2290
 4351W        W20535  17.507   4.139  15.597  0.0600 -0.1189 -0.0625
 4352W        W20536  15.619   9.703  15.137  0.1467  0.2928  0.0025
 4353W        W20537   0.581   5.971  10.392 -0.1206  0.1625 -0.2479
 4354W        W20538   4.970  17.714   3.758 -0.1173  0.0183  0.1637
 4355W        W20539   1.265   0.994  12.943 -0.1236  0.3316  0.1430
 4356W        W20540   7.118   5.216  13.458  0.0795  0.2669 -0.0125
 4357W        W20541  13.882  18.150   1.018 -0.2419 -0.2412 -0.1276
 4358W        W20542  16.818  11.906   1.274  0.1338 -0.0666  0.0170
 4359W        W20543  16.883   8.094  14.507 -0.0480  0.2279  0.1361
 4360W        W20544   3.947  12.114   0.204  0.1927  0.1590  0.0008
 4361W        W20545   8.636  16.934  11.646  0.2677  0.1539  0.1993
 4362W        W20546   6.901   4.898   0.206  0.1422 -0.1103 -0.0405
 4363W        W20547  13.156   3.989   2.322 -0.4110  0.1408  0.2558
 4364W        W20548   2.206   4.135   4.874 -0.3357 -0.1326  0.2247
 4365W        W20549  10.886   7.361   4.038  0.1136  0.0894  0.3430
 4366W        W20550   0.512   6.335  12.004  0.1766 -0.0113  0.0722
 4367W        W20551   6.275   6.699   6.401 -0.2524  0.1058  0.0490
 4368W        W20552   7.275  15.984  16.462 -0.0612 -0.3991 -0.0220
 4369W        W20553   3.549  12.141   1.216 -0.2390  0.0825 -0.1316
 4370W        W20554  11.648  10.444   0.086  0.1644  0.1496  0.0342
 4371W        W20555  15.083  14.610  13.872  0.1107 -0.1654 -0.0817
 4372W        W20556   0.727   0.345   3.192  0.2433  0.1042  0.1310
 4373W        W20557  13.140   2.383   3.197 -0.2997  0.3060  0.1349
 4374W        W20558  11.793  16.779   5.558 -0.4019  0.1120  0.2738
 4375W        W20559  10.737   3.347   4.870  0.3415 -0.1319  0.1014
 4376W        W20560  13.055   2.710   0.989 -0.2040 -0.2336  0.1571
 4377W        W20561   8.668  10.840   3.738 -0.0768 -0.4613  0.1294
 4378W        W20562  13.625  12.684  14.339 -0.6898  0.2452 -0.2177
 4379W        W20563  12.834   5.334   2.223 -0.0887 -0.1387  0.1079
 4380W        W20564   9.698   1.352  12.207 -0.3105  0.1394 -0.1426
 4381W        W20565   9.187   9.958  11.977 -0.2901  0.0158 -0.0489
 4382W        W20566   9.206   4.151  13.556 -0.1138 -0.3622  0.0497
 4383W        W20567   0.958  13.100   2.489  0.0296 -0.1715  0.2756
 4384W        W20568  11.239  15.813   6.005  0.1536 -0.4175  0.3374
 4385W        W20569   7.314  12.382  14.945 -0.0659  0.0940  0.1234
 4386W        W20570   5.605   9.823   3.547 -0.0070  0.3262  0.1799
 4387W        W20571   9.647   1.224  11.694  0.1198  0.0372 -0.1399
 4388W        W20572  14.396   6.164   3.958  0.3744  0.1778  0.1693
 4389W        W20573   5.903   6.565  13.015 -0.2425  0.0167  0.2275
 4390W        W20574   2.739   2.382   1.789 -0.1744  0.0631  0.0993
 4391W        W20575  17.812  12.417  14.892 -0.1472 -0.1093  0.2404
 4392W        W20576  11.547  17.363  11.452  0.3073 -0.0210 -0.1051
 4393W        W20577   3.658  10.138   0.983 -0.1089  0.4088 -0.2400
 4394W        W20578  17.644  12.880  13.863 -0.1236  0.1310  0.1262
 4395W        W20579   2.857  15.261  12.111 -0.0331  0.1643  0.1197
 4396W        W20580   8.409   3.507   1.067 -0.1200  0.1555 -0.1445
 4397W        W20581   4.598   9.719   5.401  0.0036  0.0086  0.0748
 4398W        W20582   3.547   3.646  13.489 -0.1730  0.1333 -0.2794
 4399W        W20583  16.930   0.758   2.265 -0.2891  0.2970 -0.0217
 4400W        W20584  14.338   1.016  15.203 -0.2130 -0.1809 -0.1456
 4401W        W20585   5.257   1.546  14.355 -0.3767 -0.1770  0.0378
 4402W        W20586  11.123   9.415  15.290 -0.0963  0.3126 -0.1298
 4403W        W20587   3.991   7.432   3.248 -0.2171 -0.0431  0.0436
 4404W        W20588   6.112  10.928  13.065  0.3172  0.1905  0.1779
 4405W        W20589   7.652  12.295  14.557  0.0604 -0.1283  0.0763
 4406W        W20590  16.835  14.640   0.871  0.0070 -0.0470 -0.0022
 4407W        W20591  14.605   7.777  10.913 -0.3644  0.3742  0.1709
 4408W        W20592  10.475   8.270  14.274  0.1156 -0.1018  0.1635
 4409W        W20593  16.725   3.156  12.077  0.0006 -0.1890  0.1501
 4410W        W20594  12.111  15.273  14.138  0.0060  0.4288  0.2200
 4411W        W20595  17.847  13.077   1.705 -0.3730  0.0316  0.1184
 4412W        W20596   2.230  18.129  11.267  0.0875 -0.0168 -0.1604
 4413W        W20597   7.854   6.208   0.584 -0.2723  0.1282  0.2015
 4414W        W20598   0.441  17.266  11.048 -0.5423  0.0551 -0.0091
 4415W        W20599  12.656   9.348  12.414 -0.2840 -0.0627 -0.2245
 4416W        W20600   8.184   5.586  16.309  0.0500 -0.0481  0.0850
 4417W        W20601   1.050  12.512   3.531 -0.0304  0.0411 -0.0301
 4418W        W20602  13.970   9.378   2.320 -0.3746 -0.2023  0.0759
 4419W        W20603   8.843   6.987   1.215  0.0010 -0.2147 -0.2439
 4420W        W20604   8.045   8.032   1.047 -0.3143  0.0638  0.0440
 4421W        W20605   7.449  12.722  14.478 -0.3150 -0.2793  0.1770
 4422W        W20606   3.709  14.796   5.028 -0.1300 -0.0735 -0.0158
 4423W        W20607   9.543  13.116   2.545 -0.1553  0.1000  0.1756
 4424W        W20608  10.343   7.928  11.734 -0.0743 -0.0994 -0.1166
 4425W        W20609  10.084  16.778   1.404  0.1949 -0.1597  0.0275
 4426W        W20610   1.564  12.779   1.978 -0.1651 -0.1064 -0.0889
 4427W        W20611  12.095  12.418   2.902 -0.0827  0.1787 -0.0827
 4428W        W20612   5.231   5.486  15.172 -0.2205  0.1743  0.2206
 4429W        W20613   9.413   6.576  14.104 -0.1236 -0.1138  0.1514
 4430W        W20614   2.147   7.926   0.169 -0.0495  0.0914 -0.0538
 4431W        W20615  11.403   2.174   1.861 -0.0897 -0.0081 -0.0361
 4432W        W20616  10.138  10.625  16.484 -0.2757 -0.0509  0.1530
 4433W        W20617  14.587   8.767   2.727  0.3278 -0.0541  0.2154
 4434W        W20618  16.908  12.574   3.158  0.0804  0.1071 -0.0556
 4435W        W20619  12.098  10.423   1.058  0.0794 -0.2362 -0.1852
 4436W        W20620   8.695   6.798  12.413 -0.0310 -0.1732 -0.2934
 4437W        W20621  13.549  13.006  12.989 -0.0537  0.2221 -0.3663
 4438W        W20622   7.737  15.799  16.334  0.3511 -0.0384 -0.0066
 4439W        W20623   9.679  12.848  16.012  0.2531 -0.1033 -0.0398
 4440W        W20624  14.360  12.320  12.602  0.2017  0.1340  0.0811
 4441W        W20625   9.836   5.155   4.988 -0.2211  0.2089  0.0821
 4442W        W20626   3.076  16.835  12.213 -0.1549 -0.0865 -0.2932
 4443W        W20627   3.341   1.542  15.490 -0.1719  0.1170 -0.2314
 4444W        W20628  15.643   8.881  14.929  0.1156 -0.1039 -0.2960
 4445W        W20629  15.947  11.323   3.005  0.0062 -0.0129 -0.3043
 4446W        W20630   5.915  14.522  16.404 -0.3871  0.1248 -0.2115
 4447W        W20631   1.490  12.593  16.543  0.1016 -0.1487 -0.3614
 4448W        W20632   4.105   4.740   2.084  0.1554 -0.0112  0.0529
 4449W        W20633  14.841   6.518  16.513 -0.1223 -0.0127  0.3731
 4450W        W20634   8.756  11.444  15.086  0.1478  0.2091 -0.1832
 4451W        W20635   2.442   0.044  13.625 -0.1113 -0.3485 -0.2225
 4452W        W20636   9.431  15.839   4.387 -0.1746 -0.3433 -0.0771
 4453W        W20637  14.991   3.225   3.154  0.0282  0.1922  0.1313
 4454W        W20638   2.021   0.069  16.294  0.1792 -0.0563  0.1078
 4455W        W20639   0.316  13.328   3.198 -0.1430 -0.0232  0.2185
 4456W        W20640  13.010  10.713   0.503 -0.2035 -0.1931 -0.1524
 4457W        W20641   6.150  11.200  14.116  0.0174  0.0684  0.2277
 4458W        W20642  14.665   3.892   3.053  0.0160 -0.2195  0.0631
 4459W        W20643  12.092  14.795  13.567 -0.0126 -0.1396 -0.0499
 4460W        W20644   7.898   4.067  10.777  0.1765  0.0250  0.2094
 4461W        W20645   4.142  15.046   5.005  0.0216  0.1289 -0.1206
 4462W        W20646   3.845   2.210  11.493 -0.1140 -0.0316  0.0806
 4463W        W20647  11.603   1.488   4.117  0.0135  0.2094  0.1268
 4464W        W20648   6.401   0.335  13.326 -0.1196 -0.3287 -0.3353
 4465W        W20649   3.631   8.629  13.211  0.1295 -0.0963 -0.1912
 4466W        W20650   4.503  12.035  12.518  0.2109 -0.1585 -0.2631
 4467W        W20651  14.647   4.808  10.588  0.2223  0.0605  0.0321
 4468W        W20652  17.793  13.877   1.383 -0.1781 -0.2049  0.1834
 4469W        W20653   8.470  15.583   0.303 -0.1554  0.1272 -0.1923
 4470W        W20654   9.768  10.130  13.883 -0.1079 -0.3376  0.1184
 4471W        W20655  14.682  14.792  16.128  0.1532 -0.0338 -0.1232
 4472W        W20656  16.784  14.565  11.583  0.1730 -0.4737  0.4725
 4473W        W20657  13.029  11.183  14.476 -0.0979  0.2199  0.0146
 4474W        W20658   0.108  16.586   1.482 -0.4238 -0.1570 -0.0922
 4475W        W20659   0.164   7.263   0.246 -0.0696  0.1446  0.1081
 4476W        W20660  12.591   1.042  14.073  0.0752  0.0058  0.2310
 4477W        W20661   8.785   7.856   0.566 -0.0450 -0.0891  0.1018
 4478W        W20662   3.981   6.434  12.417  0.2701 -0.2255  0.0030
 4479W        W20663   8.024   5.341   5.311 -0.1869  0.1055 -0.2398
 4480W        W20664  10.994   0.061  14.255 -0.2171  0.1609  0.1211
 4481W        W20665  15.898  15.077  14.277 -0.4065 -0.1409  0.1915
 4482W        W20666   9.925   2.520   6.330  0.5204  0.2374  0.0355
 4483W        W20667  10.857  12.140  11.804 -0.1564  0.0308  0.1951
 4484W        W20668   7.556  15.028  12.677  0.1926 -0.1270 -0.0762
 4485W        W20669   3.335   1.489   1.314  0.1494 -0.1446  0.0829
 4486W        W20670   7.505   0.099   0.259 -0.0637  0.0172 -0.0108
 4487W        W20671  11.755   0.146  13.367  0.1367 -0.1144 -0.2921
 4488W        W20672  11.114   6.574   0.146 -0.2112 -0.3702  0.2000
 4489W        W20673   9.515   9.565   1.555 -0.3720 -0.4372 -0.1197
 4490W        W20674   4.457   2.683   1.889 -0.0424  0.3594  0.0270
 4491W        W20675  17.499  14.339   3.486 -0.1666 -0.1627 -0.3172
 4492W        W20676   4.230  11.481   4.018  0.1269 -0.0934 -0.0815
 4493W        W20677   2.255  16.701  12.636 -0.1035  0.0481 -0.1168
 4494W        W20678  12.151  13.323   1.027  0.0957 -0.3629  0.1204
 4495W        W20679  15.110   6.582  15.510  0.3008 -0.0509 -0.0167
 4496W        W20680   0.224  13.893  12.655 -0.1360 -0.4188  0.1478
 4497W        W20681   1.855   6.418  13.647 -0.2484 -0.1584 -0.2173
 4498W        W20682   4.266  13.199   4.880  0.1379  0.1335  0.2546
 4499W        W20683   6.003   4.050  14.539  0.1225  0.0059 -0.3394
 4500W        W20684  17.992  16.043   1.216  0.1761 -0.4036  0.1829
 4501W        W20685   7.777  11.073   3.810 -0.2337  0.2597  0.3460
 4502W        W20686   9.578  15.298  11.882  0.1179  0.0277 -0.1450
 4503W        W20687  10.950   0.539   0.945 -0.1352 -0.0808 -0.0241
 4504W        W20688   3.981   5.740   4.533  0.0117  0.1311  0.0398
 4505W        W20689  13.785   9.111  15.220  0.2971  0.3317 -0.2128
 4506W        W20690   4.543  10.456   4.829  0.0074 -0.0493  0.1553
 4507W        W20691  14.496   1.397  14.873  0.1367  0.3346 -0.1577
 4508W        W20692   6.349   2.013  13.257 -0.0739  0.0828 -0.1196
 4509W        W20693  12.694   4.119  11.627 -0.4701 -0.2450  0.1264
 4510W        W20694  14.532  17.701  14.555 -0.2254  0.0057 -0.0882
 4511W        W20695   5.422   1.053   2.743  0.3276 -0.2171 -0.0521
 4512W        W20696   4.797   5.687   3.443  0.2544  0.1346 -0.1401
 4513W        W20697   9.970   9.693  14.126 -0.0284  0.0586  0.2175
 4514W        W20698   2.666  16.354  13.026  0.2918  0.0143  0.0206
 4515W        W20699  11.249   6.921   4.130  0.0281 -0.1288  0.1793
 4516W        W20700   3.324   8.897  16.278 -0.0176  0.2592  0.2921
 4517W        W20701   8.228   6.811  11.591  0.2136  0.0998  0.0871
 4518W        W20702   3.597   1.304   2.770 -0.2910  0.2419  0.0068
 4519W        W20703  11.179   7.233  11.710  0.1235 -0.0068 -0.0997
 4520W        W20704   4.972  12.768  15.051 -0.0383  0.0564  0.0337
 4521W        W20705  10.080   6.970  14.142  0.0467  0.2016  0.0814
 4522W        W20706   8.364  10.218   1.431  0.0847  0.1194 -0.1301
 4523W        W20707   3.991  10.588   2.191 -0.0651 -0.3406  0.1130
 4524W        W20708   0.166  10.269   1.160 -0.2221 -0.1652  0.2049
 4525W        W20709  11.142  15.170   1.653 -0.3271  0.1740  0.0749
 4526W        W20710  15.652   0.023   5.172  0.3120  0.1532  0.3063
 4527W        W20711   6.512  10.786   3.465  0.1212  0.1192 -0.2681
 4528W        W20712   7.943  12.812   4.606 -0.0732  0.1549 -0.3376
 4529W        W20713  15.272  12.383  13.292  0.0396 -0.1525  0.0513
 4530W        W20714   2.470  17.719  12.480 -0.0210 -0.1156 -0.1578
 4531W        W20715   2.273  16.276  16.013 -0.1518 -0.2558  0.2881
 4532W        W20716   1.042  10.252  12.969  0.1324  0.1371  0.2967
 4533W        W20717   3.099  10.167  10.930 -0.1439 -0.0004  0.1920
 4534W        W20718   9.515   4.052  16.496 -0.1938 -0.0791  0.0807
 4535W        W20719  17.665  17.126  11.956 -0.0857  0.0283 -0.1212
 4536W        W20720   2.257  14.262  12.162 -0.1953  0.1119 -0.0882
 4537W        W20721  16.267  14.099   4.658  0.1752  0.0607  0.3938
 4538W        W20722   2.544  13.619  16.639  0.0620  0.2625  0.4504
 4539W        W20723   7.308   6.643  14.346  0.0286 -0.0855 -0.1344
 4540W        W20724  14.409   0.070  14.921 -0.1011 -0.0348 -0.0399
 4541W        W20725  13.607   6.010  13.640 -0.0626  0.1888 -0.1472
 4542W        W20726   3.130   1.374   3.182  0.0610  0.3178 -0.0357
 4543W        W20727  11.490   8.392   2.947 -0.0036  0.0370  0.0902
 4544W        W20728  11.965   7.992  11.639 -0.2598 -0.0914 -0.3493
 4545W        W20729   9.597  17.191  11.784  0.0013 -0.2888  0.1900
 4546W        W20730   1.888  15.330   4.511 -0.2193  0.0639 -0.1931
 4547W        W20731  11.438  16.128  13.389  0.0557 -0.3352  0.2109
 4548W        W20732   3.625   5.095  15.320 -0.0848 -0.1563  0.1324
 4549W        W20733   3.172  17.371   4.596 -0.3887 -0.1001  0.0286
 4550W        W20734   7.536  13.020  15.665  0.1339  0.3354 -0.3896
 4551W        W20735  12.533   3.947   3.790  0.1869  0.0432 -0.0898
 4552W        W20736  12.106   9.437   6.459 -0.0010  0.0162  0.0060
 4553W        W20737   0.621   2.495   4.936 -0.0078 -0.0439 -0.2443
 4554W        W20738   9.925   8.527   4.977 -0.0478  0.0019  0.0841
 4555W        W20739  14.432   7.602  15.993  0.0436  0.0902  0.1232
 4556W        W20740   2.833  18.056   0.896 -0.3689  0.2955 -0.1416
 4557W        W20741   5.204   0.045  14.410  0.1462  0.1321  0.2875
 4558W        W20742   3.772  16.262   3.345 -0.0769 -0.2453 -0.0983
 4559W        W20743  12.196   1.395  13.209  0.3547 -0.2619 -0.0954
 4560W        W20744   6.220  16.164   0.632  0.1944 -0.2915  0.0194
 4561W        W20745  18.114   8.129  12.758 -0.2042  0.1197  0.1524
 4562W        W20746   1.886   7.805  13.208 -0.0016  0.0313  0.1566
 4563W        W20747   7.831   8.262   4.345  0.1010  0.2369 -0.0933
 4564W        W20748   1.879   7.983  11.444 -0.3971  0.3070 -0.3100
 4565W        W20749   5.357   0.753   0.283  0.1498 -0.1473  0.0576
 4566W        W20750  13.602   2.616  13.871  0.0511 -0.1125  0.0883
 4567W        W20751   0.413  17.595  15.594 -0.1917 -0.4460  0.2670
 4568W        W20752  16.651  15.469  12.205  0.0413 -0.2855  0.0280
 4569W        W20753   9.297   0.872  12.994 -0.2720  0.1400  0.0430
 4570W        W20754  15.480   4.292   3.454 -0.2392 -0.1540 -0.1498
 4571W        W20755   5.791   2.562   4.636 -0.0321  0.2430  0.0159
 4572W        W20756   5.069   7.581   2.371 -0.0070 -0.2723  0.1099
 4573W        W20757  14.948  14.635  15.645 -0.0215 -0.0321  0.3628
 4574W        W20758  12.797   3.501   2.993  0.0297 -0.2886 -0.0461
 4575W        W20759  17.848   9.231   0.190  0.2121  0.0057 -0.1106
 4576W        W20760   3.696   2.556   3.131 -0.3585  0.0010 -0.0174
 4577W        W20761   3.047  12.842   3.620 -0.0902  0.1769 -0.0367
 4578W        W20762   0.853   3.610   0.645  0.0399 -0.1329  0.2647
 4579W        W20763   3.520   6.290   3.605 -0.1926  0.1587 -0.0101
 4580W        W20764   5.060  11.715  12.150  0.2979  0.2933 -0.1534
 4581W        W20765   6.693  16.638  15.126 -0.0370 -0.1511  0.0000
 4582W        W20766  13.473   5.742  12.598  0.5807  0.0027 -0.0741
 4583W        W20767   9.187   1.179   4.797  0.2432 -0.0089  0.0550
 4584W        W20768   0.287   2.836   5.032  0.0027  0.0132  0.1455
 4585W        W20769  16.470   8.634   0.432 -0.0632 -0.1354  0.1430
 4586W        W20770   3.629  17.538  11.845 -0.0467 -0.3908  0.0382
 4587W        W20771   2.416   3.493  12.294 -0.0061  0.0282 -0.0166
 4588W        W20772   9.518   9.929  15.276  0.1472  0.0387  0.0691
 4589W        W20773  13.926  16.907  16.347 -0.1272  0.0645 -0.0001
 4590W        W20774   8.364  13.918   0.605  0.2012 -0.0974 -0.0476
 4591W        W20775  15.125  10.930   1.683  0.2270 -0.2186 -0.4343
 4592W        W20776  10.057   9.004  12.435  0.1623 -0.1135  0.1130
 4593W        W20777   6.629  10.836  13.050 -0.2438 -0.0682 -0.0664
 4594W        W20778   0.819  12.030   3.682 -0.1655 -0.2234  0.4018
 4595W        W20779   9.110   1.600   0.695 -0.2045  0.0024 -0.0133
 4596W        W20780   0.617   6.995   2.262 -0.0449  0.0698 -0.1054
 4597W        W20781  15.208  17.789   3.478 -0.0663  0.0557  0.1291
 4598W        W20782   1.815  17.240  11.598 -0.0902  0.0946 -0.0394
 4599W        W20783  17.372  16.205   2.785 -0.1021  0.0776  0.2262
 4600W        W20784   3.134   1.158   5.088  0.1130  0.0569  0.1553
 4601W        W20785   2.458  17.437   5.857 -0.2879 -0.0488 -0.1766
 4602W        W20786  12.107   6.094   4.762  0.2192 -0.3984 -0.2387
 4603W        W20787   0.879  18.142   0.168  0.0803 -0.0121 -0.0161
 4604W        W20788  13.601   8.955   0.258 -0.1965  0.1360  0.2078
 4605W        W20789  14.818   8.647  14.139  0.1655  0.2508 -0.0758
 4606W        W20790  16.791  13.750   3.785  0.0128 -0.2829  0.2089
 4607W        W20791  10.194  13.467   3.058  0.2798 -0.2961  0.0527
 4608W        W20792   7.031  14.014   2.494  0.1596  0.0985 -0.1406
 4609W        W20793   8.626  16.675   1.202  0.3570  0.1084  0.2293
 4610W        W20794  11.915  17.493   3.191  0.1861 -0.0161 -0.0909
 4611W        W20795   4.467  14.274   5.454 -0.0194  0.0742  0.0623
 4612W        W20796  16.814   5.894  12.869  0.3152  0.1265 -0.0070
 4613W        W20797   5.493  16.032   2.203  0.2113  0.3060  0.1370
 4614W        W20798  15.771   3.035  15.196  0.2155  0.0236 -0.0736
 4615W        W20799  17.418  15.081   2.130 -0.1639  0.0571 -0.3853
 4616W        W20800  11.913   1.715   4.978  0.1672  0.0201  0.0137
 4617W        W20801   6.900  15.112   3.986 -0.2421  0.2348  0.1141
 4618W        W20802   9.083   7.568  12.847  0.3470  0.1489  0.2217
 4619W        W20803  16.196   9.552  11.680  0.1537 -0.1248 -0.0670
 4620W        W20804   2.368  10.584  13.421 -0.2126  0.0776 -0.1200
 4621W        W20805   8.366   6.395  12.471  0.0727  0.0480 -0.1849
 4622W        W20806   6.838   2.280   0.985 -0.1175  0.2597  0.0179
 4623W        W20807   6.651   8.564   1.992 -0.2814  0.0171  0.0864
 4624W        W20808   0.617  14.615  14.173  0.1940 -0.0878  0.0944
 4625W        W20809   9.358  10.509  13.997 -0.0012 -0.2759  0.1845
 4626W        W20810   2.164  10.665   5.615 -0.0859 -0.2401 -0.0594
 4627W        W20811  16.751  11.727   4.335 -0.1130 -0.2462  0.0604
 4628W        W20812   0.636   4.764  11.092 -0.2121  0.0720 -0.0780
 4629W        W20813   3.855   2.327   0.408  0.0905 -0.0679 -0.1163
 4630W        W20814   0.459  13.794   1.167 -0.0453  0.0564  0.2063
 4631W        W20815   4.105   5.558   1.432  0.1464 -0.1520 -0.3990
 4632W        W20816  10.618   2.565  15.123 -0.2024 -0.3987 -0.3035
 4633W        W20817   7.083   7.370   1.222 -0.0164 -0.1336 -0.3673
 4634W        W20818  11.142  11.837  14.241 -0.2534  0.0888 -0.0041
 4635W        W20819   3.265   6.947   3.973 -0.1826 -0.1203  0.1822
 4636W        W20820  13.983  15.346   4.396  0.0317 -0.0836 -0.1599
 4637W        W20821   8.794   0.275   0.507  0.0009 -0.3279  0.1244
 4638W        W20822  13.459   5.304  11.102 -0.2288  0.2380 -0.0466
 4639W        W20823   5.213   3.441   4.464  0.0665 -0.1085  0.0758
 4640W        W20824   3.384   3.784  14.936 -0.2989 -0.0875 -0.2555
 4641W        W20825  17.948   2.151   0.029 -0.1481  0.1955  0.0337
 4642W        W20826   4.563  15.859  13.262  0.2195 -0.1459  0.1492
 4643W        W20827  15.438  11.878  13.972 -0.1468  0.2143 -0.1251
 4644W        W20828  12.425   2.313  16.438  0.0457  0.0492 -0.1366
 4645W        W20829   9.339   5.410  16.304 -0.1126 -0.0640  0.2573
 4646W        W20830  13.955  12.306   0.290 -0.1718 -0.2491 -0.1126
 4647W        W20831  12.556   5.143  16.015  0.0694 -0.0785  0.1354
 4648W        W20832   1.118   8.891   3.596 -0.1245  0.3138 -0.4029
 4649W        W20833  13.044  14.030  13.669  0.0789  0.0780  0.1201
 4650W        W20834   8.571   4.053   4.660 -0.0399  0.0196  0.4127
 4651W        W20835  16.017   4.605   2.089 -0.1109  0.1608 -0.0117
 4652W        W20836   8.380  16.219   5.732 -0.3113  0.0022 -0.2767
 4653W        W20837   0.059  11.219   0.194  0.1787  0.1083  0.0334
 4654W        W20838  15.693  14.974   3.357  0.0669 -0.2329 -0.1504
 4655W        W20839  11.333   4.485  15.252 -0.0076  0.1912 -0.2833
 4656W        W20840   4.799  14.549  15.138 -0.0070  0.0197  0.1218
 4657W        W20841   7.034   6.773   0.650  0.0651 -0.1499  0.1563
 4658W        W20842   8.626  14.379   5.056  0.0698  0.1217  0.3362
 4659W        W20843   1.423  15.592  15.526 -0.0640 -0.2178  0.1619
 4660W        W20844   0.040   1.789  14.865 -0.1667 -0.2309 -0.1318
 4661W        W20845   6.306  13.059   5.517 -0.0082  0.0192  0.1853
 4662W        W20846  12.830  13.939  15.170 -0.0428  0.1056 -0.4509
 4663W        W20847   9.700   4.016  13.640  0.0086  0.0630 -0.0173
 4664W        W20848   5.477  11.162  15.789 -0.1315 -0.3510  0.0130
 4665W        W20849  15.274   2.032   1.714  0.0107 -0.0099 -0.0077
 4666W        W20850  17.098   3.030  13.620  0.2052 -0.3584 -0.3816
 4667W        W20851   2.573  11.252   0.761 -0.0447  0.0899 -0.1079
 4668W        W20852   3.174   8.912  15.720 -0.1551  0.0865  0.0074
 4669W        W20853   3.293   4.793   0.255  0.1203  0.1063 -0.2877
 4670W        W20854   8.488   1.532   4.253  0.1680  0.0231 -0.0358
 4671W        W20855   6.808  17.279   4.153 -0.1141  0.1939  0.4781
 4672W        W20856   5.241   6.802   0.785  0.3244  0.0342  0.1527
 4673W        W20857   4.227   0.206  12.391  0.0768 -0.1034 -0.1799
 4674W        W20858   3.762   3.965  12.033  0.0804 -0.2443 -0.0728
 4675W        W20859  18.026   6.054  15.110 -0.2265  0.0225 -0.1621
 4676W        W20860   1.570  11.913   6.574  0.2502  0.0652 -0.1397
 4677W        W20861  13.896  16.704   3.157  0.1117 -0.1964  0.1888
 4678W        W20862  11.566   2.677  15.181  0.0890  0.0871  0.2616
 4679W        W20863  16.293  12.816  13.913 -0.1853 -0.1573  0.0684
 4680W        W20864   0.022  17.983  13.289 -0.2964  0.1565 -0.0282
 4681W        W20865   2.041   5.099  10.794 -0.0705 -0.2708 -0.0525
 4682W        W20866  13.264   1.854   0.088 -0.0972  0.3221 -0.0479
 4683W        W20867  14.451   8.792  13.310 -0.2712  0.0246  0.1171
 4684W        W20868   3.410   1.988  16.368 -0.0656 -0.0952 -0.1365
 4685W        W20869  11.456  13.333  15.590  0.2516 -0.1440 -0.1809
 4686W        W20870  16.055   1.305  13.766 -0.2148  0.3256  0.1805
 4687W        W20871   1.984  13.430  13.941  0.1796 -0.3701 -0.1218
 4688W        W20872  11.056  10.379  13.063 -0.0736  0.0761  0.1337
 4689W        W20873   1.822  18.015   3.517  0.1561  0.1257  0.1323
 4690W        W20874  11.702   9.227   2.481  0.1111  0.2897  0.0664
 4691W        W20875   5.145   0.444   1.679 -0.0873 -0.4473 -0.3070
 4692W        W20876   4.773  11.672  16.453  0.0251  0.0968 -0.2415
 4693W        W20877   1.960   3.709  13.497  0.3108  0.0772 -0.1960
 4694W        W20878   3.468  14.041   5.999 -0.3339 -0.0067  0.0104
 4695W        W20879  11.266   7.817  14.068 -0.0743  0.0088 -0.0498
 4696W        W20880   8.898   1.992  15.029  0.3383 -0.1822 -0.2501
 4697W        W20881  12.965  13.556   4.217  0.0984  0.0150 -0.1661
 4698W        W20882  10.843   6.992   3.588 -0.0669 -0.3141 -0.0434
 4699W        W20883  11.557   5.252   5.023  0.0318 -0.0478  0.0568
 4700W        W20884  16.984  16.835  11.240 -0.0379  0.0648 -0.1265
 4701W        W20885   7.238  14.709  12.934  0.2238 -0.0617  0.6114
 4702W        W20886   8.286   6.813  14.324  0.1420 -0.2161  0.2232
 4703W        W20887   9.997  12.495   5.334 -0.1039 -0.2049  0.0188
 4704W        W20888   0.332   7.230  14.799 -0.1219 -0.0676 -0.1639
 4705W        W20889   3.381   7.246  15.156 -0.0298 -0.2742  0.3965
 4706W        W20890   1.192   3.304   3.977 -0.0086  0.1524 -0.1281
 4707W        W20891   0.298   0.381   0.685  0.0412  0.1095  0.1021
 4708W        W20892  12.636   1.383   5.034 -0.2128  0.1589  0.2128
 4709W        W20893  13.535  10.947   3.376  0.2748 -0.0559  0.2930
 4710W        W20894  14.940   3.702   1.325 -0.2609  0.1589  0.0676
 4711W        W20895   8.295   1.168   5.897 -0.0315 -0.1532  0.0896
 4712W        W20896   5.859  15.359   0.068 -0.4011 -0.0763  0.1577
 4713W        W20897   9.673   2.827   2.075 -0.1040  0.0441 -0.0550
 4714W        W20898   4.382  17.288   2.326  0.1448  0.1298 -0.0370
 4715W        W20899   6.730  12.736  15.651  0.2085 -0.3814  0.0024
 4716W        W20900   0.416   2.774  14.568  0.2740 -0.1163 -0.0479
 4717W        W20901  16.983   6.503  15.792  0.4894  0.3391  0.0060
 4718W        W20902  15.478   2.418   2.040  0.1840  0.1075 -0.1259
 4719W        W20903   0.360   8.892   0.483 -0.0660  0.1936 -0.0532
 4720W        W20904   2.766  15.196   4.202 -0.0249 -0.0018  0.1383
 4721W        W20905   2.514  17.734  15.802 -0.0396  0.1003  0.0765
 4722W        W20906  12.906   5.618   5.849 -0.4231 -0.0418 -0.1402
 4723W        W20907  10.853  13.482   1.963 -0.1439 -0.1654  0.0649
 4724W        W20908   4.742  13.048  16.130 -0.1126  0.0577  0.1734
 4725W        W20909   0.611   0.900   3.104 -0.0967 -0.0496  0.1669
 4726W        W20910  17.260   3.183  15.888 -0.1696  0.0683 -0.1566
 4727W        W20911  15.541  15.191  15.078 -0.0433  0.0645 -0.3126
 4728W        W20912  18.007  17.583  12.307  0.0055  0.2696 -0.1454
 4729W        W20913   8.134  13.145  12.313  0.0476  0.1533 -0.1333
 4730W        W20914  16.835   6.464  14.542  0.1734  0.0354  0.0898
 4731W        W20915  13.763  14.423  11.840  0.1661 -0.2566  0.0586
 4732W        W20916  17.405  11.818   1.718 -0.1905 -0.0806 -0.0800
 4733W        W20917   8.947   7.084   3.928  0.0870  0.0779 -0.3995
 4734W        W20918   5.511  10.608   5.112 -0.0909  0.0521 -0.1219
 4735W        W20919   0.520   9.234  11.588 -0.0714 -0.2900 -0.1049
 4736W        W20920  14.311   3.182  15.417 -0.0550  0.0153  0.0612
 4737W        W20921  15.250  15.170   2.501 -0.2857 -0.1399 -0.4514
 4738W        W20922  17.159   7.478   5.543  0.2449  0.0948 -0.0803
 4739W        W20923  13.229   8.597   3.006 -0.2030 -0.0199 -0.2616
 4740W        W20924   6.233  16.718   2.609  0.2064  0.0870 -0.2467
 4741W        W20925  16.715   2.271  12.412  0.0119  0.1068 -0.1496
 4742W        W20926   4.132  10.146  13.239  0.4152 -0.0699  0.1121
 4743W        W20927  12.081   5.023   5.803 -0.4007  0.1444  0.3731
 4744W        W20928   2.967  14.832   3.513 -0.0851 -0.0263  0.1525
 4745W        W20929   6.403  17.102   1.818  0.3313 -0.2022 -0.3639
 4746W        W20930   6.279  12.237   5.195  0.0580  0.0469  0.2026
 4747W        W20931   8.818  13.668   0.754 -0.0919 -0.1042  0.0723
 4748W        W20932  17.080   5.399  11.901 -0.1773 -0.0222  0.1200
 4749W        W20933  17.569   6.183   1.498 -0.0673  0.1030  0.1625
 4750W        W20934   9.087   9.247  14.065  0.2890 -0.1753  0.3922
 4751W        W20935   8.004  12.087  16.542  0.0383  0.2354 -0.1155
 4752W        W20936   1.519  15.528   0.702  0.1984 -0.0055 -0.1372
 4753W        W20937   2.793   1.272  12.986  0.1844  0.1244  0.3831
 4754W        W20938   1.270   3.056   2.802 -0.1342 -0.0112 -0.0690
 4755W        W20939  10.194   0.437  15.581  0.2524  0.1234 -0.0485
 4756W        W20940   6.780  17.242   1.493 -0.1904 -0.2993 -0.0225
 4757W        W20941   2.292  17.143  15.749  0.2292 -0.1834 -0.1436
 4758W        W20942  16.610   6.231  11.506 -0.3631  0.1704 -0.2947
 4759W        W20943   1.194  12.878   5.112 -0.0060 -0.0930  0.0258
 4760W        W20944  14.087  12.149  12.180 -0.0645  0.2665  0.0670
 4761W        W20945   3.609   5.153   2.914  0.0030  0.2789 -0.1455
 4762W        W20946  13.854  17.373   2.005 -0.0880 -0.2392 -0.1739
 4763W        W20947   0.011   2.201  12.545  0.2425  0.1951 -0.1210
 4764W        W20948   4.791   5.411  14.947  0.0426  0.1164 -0.1567
 4765W        W20949   5.167  10.751   0.799  0.1571 -0.2214  0.0671
 4766W        W20950  15.493  12.870  14.350  0.0902  0.2696 -0.1622
 4767W        W20951  13.322  12.761   4.128 -0.1000 -0.0668  0.1835
 4768W        W20952  10.625  13.458  13.729 -0.0057  0.0637 -0.1092
 4769W        W20953  13.971  11.532  13.583 -0.2536 -0.1567  0.1406
 4770W        W20954  13.687   0.849   0.624  0.1330  0.2778  0.0722
 4771W        W20955   7.463  17.667  14.401  0.0850  0.1006  0.0141
 4772W        W20956   8.309  12.571   3.830 -0.2077 -0.1592 -0.1980
 4773W        W20957   7.716   5.123  14.886 -0.2670 -0.0701 -0.0963
 4774W        W20958  14.621  10.946   3.270  0.1260  0.1961 -0.5348
 4775W        W20959   8.460  13.067  11.565  0.1747 -0.0076  0.0139
 4776W        W20960   2.808  15.189   5.232 -0.2170 -0.0369 -0.2837
 4777W        W20961   5.847  17.136  11.674  0.3224  0.1281  0.1226
 4778W        W20962   7.383   4.761   2.292 -0.1069 -0.0702 -0.2157
 4779W        W20963  16.565  12.595   0.754  0.0743  0.3619  0.0109
 4780W        W20964  13.027  10.515   5.203  0.3585 -0.0509  0.1245
 4781W        W20965   8.779  13.387   5.692 -0.1677  0.0982  0.1802
 4782W        W20966   5.360  17.379   3.952  0.2411 -0.3223  0.0264
 4783W        W20967   4.568  18.026  12.742  0.1007 -0.3579  0.2298
 4784W        W20968   1.819   7.761   2.243  0.2270  0.2316 -0.1298
 4785W        W20969   3.285  16.461   2.518  0.2418  0.2844 -0.0241
 4786W        W20970  17.502   7.153  13.247 -0.3232 -0.3799  0.1955
 4787W        W20971  11.401   9.314  16.078 -0.2843 -0.1053  0.1438
 4788W        W20972   8.419  18.084  14.429 -0.2042  0.1813 -0.3513
 4789W        W20973  14.646   0.997  16.598 -0.2269 -0.0500  0.0505
 4790W        W20974   4.207  15.894   6.719  0.0489  0.0585 -0.0682
 4791W        W20975  17.876   8.601  13.603  0.2521  0.0662  0.0585
 4792W        W20976   5.363  13.958   0.127  0.2412  0.0253  0.0763
 4793W        W20977  15.320  13.189  15.802  0.0365  0.0831  0.1397
 4794W        W20978   7.434   4.783   1.046 -0.1150  0.2064 -0.2170
 4795W        W20979  14.025  17.391   1.541  0.3539 -0.2705  0.0203
 4796W        W20980   4.672   1.505  16.395  0.0141 -0.2817 -0.0591
 4797W        W20981   7.336   7.532   4.822  0.2201 -0.2214  0.0230
 4798W        W20982  16.357   9.462   1.699 -0.2132  0.1627  0.2725
 4799W        W20983   7.921  14.347   6.309  0.1433  0.2414  0.1628
 4800W        W20984   2.278  12.862  14.939 -0.3380  0.0723  0.2138
 4801W        W20985  11.776  10.803   1.026 -0.2482 -0.0504  0.0792
 4802W        W20986   9.766   5.944   4.416  0.1179 -0.2755  0.0939
 4803W        W20987  17.016   4.178   2.161  0.1831 -0.0687 -0.0469
 4804W        W20988   2.846  11.639  11.642  0.4037  0.2229  0.1153
 4805W        W20989   1.938   3.518   2.612  0.0876 -0.4239  0.1504
 4806W        W20990  10.050   8.892   1.161 -0.2040 -0.1389 -0.2291
 4807W        W20991   8.120   7.692  14.820  0.4391 -0.0311  0.2864
 4808W        W20992  11.006   8.668   2.328  0.1815  0.0188 -0.2521
 4809W        W20993   0.375  13.648  12.188 -0.0054 -0.0090  0.0248
 4810W        W20994  17.915   6.355   4.178  0.0175 -0.1140 -0.0999
 4811W        W20995   3.887  16.622  15.901 -0.1817 -0.0208 -0.0637
 4812W        W20996   5.651  14.015  13.829 -0.0652 -0.0598  0.0439
 4813W        W20997   4.877   4.029  13.578 -0.0070  0.0802 -0.1679
 4814W        W20998   4.899  10.434  15.465 -0.1195 -0.1185  0.0482
 4815W        W20999   4.210   2.442   0.950  0.1201  0.1446 -0.2138
 4816W        W21000   0.315   0.852   5.264  0.0845  0.0397 -0.2428
 4817W        W21001   1.622   8.737   3.660 -0.1250 -0.0636  0.1124
 4818W        W21002   3.415  10.321   1.370  0.1195 -0.0821 -0.0588
 4819W        W21003   3.593   8.051  15.592 -0.2834 -0.1464 -0.0303
 4820W        W21004  17.489   7.698  15.720 -0.0903  0.1122  0.1115
 4821W        W21005   7.368   4.127  14.811  0.0323 -0.2378  0.1968
 4822W        W21006  15.347  12.357   0.086 -0.2042 -0.2594  0.0557
 4823W        W21007  17.381   9.344  12.393 -0.0047  0.2986  0.0242
 4824W        W21008   6.838   1.784   4.872 -0.1545  0.0543 -0.1322
 4825W        W21009   4.869   6.221   3.858 -0.2140 -0.3164 -0.0672
 4826W        W21010  15.658  16.967  14.807  0.0125  0.1090 -0.0030
 4827W        W21011   3.502  15.499  14.214  0.1281  0.0883 -0.1392
 4828W        W21012   3.593  11.150  15.516 -0.2875 -0.3141 -0.1633
 4829W        W21013  12.368  11.439   3.632  0.0554 -0.2124 -0.0622
 4830W        W21014   4.489   3.931   1.958  0.0529  0.0351  0.2508
 4831W        W21015   0.372   4.601   1.108  0.1654  0.2478 -0.1377
 4832W        W21016  14.203  10.932   4.191 -0.1013 -0.0440 -0.1605
 4833W        W21017  17.744  16.496  14.796 -0.1716 -0.0277  0.2934
 4834W        W21018   9.464  14.340   2.755 -0.4081 -0.1720 -0.1788
 4835W        W21019  14.143   8.612   4.857  0.1819 -0.0822 -0.1581
 4836W        W21020  16.114   0.819   4.921 -0.0789  0.0494  0.3016
 4837W        W21021  14.900   9.753   3.932 -0.0960  0.0601 -0.0875
 4838W        W21022  14.939  16.514   5.260  0.3834  0.0144  0.0703
 4839W        W21023  14.755   5.016  12.860  0.2666 -0.2373  0.1633
 4840W        W21024   8.946   3.896  12.256  0.1870 -0.1428 -0.1000
 4841W        W21025   1.533   1.142   4.228 -0.2429 -0.0314  0.1610
 4842W        W21026   4.708   6.956   5.072 -0.0755 -0.1201 -0.0815
 4843W        W21027  15.573   0.218  14.252  0.3565  0.4418  0.1075
 4844W        W21028  17.238   0.957  12.623 -0.1706  0.1534 -0.1302
 4845W        W21029   0.572   7.206   3.042 -0.0656 -0.0746 -0.0809
 4846W        W21030  13.499  12.179   0.502 -0.1962  0.0449 -0.3548
 4847W        W21031   8.305  12.813  13.528  0.0634  0.2381  0.3516
 4848W        W21032   6.442  16.780  11.227  0.1996 -0.1483 -0.0083
 4849W        W21033   9.329  10.997   0.117 -0.0916  0.1713  0.0971
 4850W        W21034   3.258  13.338   5.241 -0.0109 -0.2017 -0.0839
 4851W        W21035   4.536   1.951  12.616  0.0917 -0.0471 -0.1282
 4852W        W21036   5.055  16.266  14.055  0.0117  0.0591  0.4173
 4853W        W21037   1.118   7.116  15.045 -0.0431  0.2072  0.0195
 4854W        W21038  14.284  12.130  16.654 -0.1106 -0.4295 -0.5504
 4855W        W21039  11.120  15.067  12.549 -0.4452  0.0857  0.1073
 4856W        W21040  15.051  15.388  16.418 -0.2971 -0.2043 -0.1895
 4857W        W21041   8.062  11.948   5.780  0.2461  0.1436  0.4125
 4858W        W21042  14.627   1.149   2.002  0.1802 -0.0043 -0.1203
 4859W        W21043   6.617   3.832  12.154  0.2764 -0.2148  0.2554
 4860W        W21044   4.059   6.066   0.615 -0.2205 -0.0275 -0.0627
 4861W        W21045   1.019  12.713  12.480  0.0765  0.2612  0.1830
 4862W        W21046   5.163   7.509   4.193 -0.1211 -0.0177  0.2548
 4863W        W21047  13.894   4.832   3.174 -0.2611  0.0758  0.1677
 4864W        W21048   7.926   1.898   2.607  0.2546  0.2878  0.1832
 4865W        W21049   3.162   6.126  14.402  0.0628 -0.0430  0.2887
 4866W        W21050  11.021   3.063   0.852 -0.2085  0.2015 -0.0295
 4867W        W21051   5.192  13.447  14.135 -0.1246  0.1318  0.3122
 4868W        W21052   7.017  16.649  13.782  0.0253  0.0347  0.1501
 4869W        W21053   4.779  17.113  13.612  0.0923  0.1772  0.0953
 4870W        W21054   3.441   5.826  15.216 -0.0511 -0.0339 -0.3401
 4871W        W21055  16.002   1.640   0.983 -0.1629 -0.1133 -0.3500
 4872W        W21056  12.320  10.112   0.393  0.6079  0.2063  0.0540
 4873W        W21057   6.298   8.295   4.332  0.0108  0.3312 -0.4581
 4874W        W21058  14.037  11.146  14.515  0.0931  0.3429 -0.0178
 4875W        W21059  13.845  16.991  12.213 -0.0735  0.1369 -0.2691
 4876W        W21060  12.661  12.189  12.723  0.0038  0.3574  0.1406
 4877W        W21061   8.977  17.256  12.470 -0.3573  0.0229 -0.1654
 4878W        W21062  12.012  17.689  16.361 -0.0855  0.2035 -0.3236
 4879W        W21063   4.442  16.987  15.309  0.1232  0.0980  0.3109
 4880W        W21064  14.599   7.090   0.653  0.0381  0.0048 -0.2824
 4881W        W21065   8.436   1.706   3.666  0.0717  0.2273 -0.1601
 4882W        W21066   3.588   4.762  16.238 -0.2953  0.3729  0.0603
 4883W        W21067  10.595   8.958   5.727  0.0410 -0.1143  0.2202
 4884W        W21068  13.330  12.548   1.302  0.4569 -0.0229  0.3332
 4885W        W21069  10.051   7.174  13.120  0.2024 -0.1999 -0.3097
 4886W        W21070  15.023  12.911   1.743  0.2518  0.0571  0.0941
 4887W        W21071   4.474   8.451  13.570  0.4434  0.3094  0.2487
 4888W        W21072   7.701   6.070   4.874  0.0351 -0.0210  0.1023
 4889W        W21073   7.206  17.464   5.404 -0.1256 -0.1182 -0.0115
 4890W        W21074   0.900   5.474  15.746 -0.2322  0.1939 -0.1227
 4891W        W21075   2.005   1.874   2.824 -0.2345 -0.0785 -0.0757
 4892W        W21076  18.010   7.334  14.473  0.1867  0.2589  0.2360
 4893W        W21077   4.560  10.254   0.409  0.3097 -0.0876  0.0170
 4894W        W21078   5.056  17.059   0.590 -0.0642 -0.1005 -0.0878
 4895W        W21079   6.870  15.595  12.900 -0.0818 -0.0290 -0.0402
 4896W        W21080  10.480  10.920  14.668  0.3458 -0.3466  0.0592
 4897W        W21081  10.338   9.354   3.117 -0.0908 -0.2688 -0.2319
 4898W        W21082  11.734   6.985  16.316  0.2779  0.2875 -0.2620
 4899W        W21083   9.663   0.412   2.934 -0.1751  0.2083 -0.0565
 4900W        W21084   2.943   5.610   2.377 -0.0598 -0.3125 -0.1713
 4901W        W21085   6.591  17.628  14.941  0.0441  0.0386  0.0930
 4902W        W21086   9.777  10.376   4.309  0.4971  0.0473 -0.0677
 4903W        W21087   6.990  10.627   6.295  0.0033  0.0725  0.3249
 4904W        W21088  14.270   0.306   4.401  0.0561  0.0641  0.1110
 4905W        W21089  14.315   9.089   0.631  0.0918  0.0499  0.3231
 4906W        W21090   8.552  11.206   2.326 -0.1258 -0.0994 -0.1638
 4907W        W21091   0.445  12.704  15.124 -0.1469  0.0828  0.1546
 4908W        W21092  14.848   9.399   3.395 -0.4166  0.2029  0.1004
 4909W        W21093   5.098   9.700   4.667  0.1038 -0.0458  0.1455
 4910W        W21094   5.965  10.269  11.896 -0.1006 -0.0129  0.0501
 4911W        W21095  13.438   1.387  15.062 -0.1640 -0.1716 -0.1493
 4912W        W21096   5.365  10.142   6.036 -0.1039 -0.2923 -0.0688
 4913W        W21097   9.798   3.914  14.138  0.0725  0.3060  0.3317
 4914W        W21098  17.970   6.756   2.035 -0.0437  0.1363 -0.1132
 4915W        W21099   4.781   4.213  12.166  0.0689  0.4143  0.3803
 4916W        W21100   9.188   9.533  14.992  0.1378  0.3875 -0.3195
 4917W        W21101  17.654   2.134  16.247 -0.4254 -0.0444 -0.0833
 4918W        W21102  12.119   8.125   6.145 -0.0864  0.1455  0.0951
 4919W        W21103  17.775   3.829   4.106 -0.0097 -0.1006  0.0837
 4920W        W21104   5.579  17.025   0.914 -0.2642  0.3618 -0.1968
 4921W        W21105  12.301  12.092  15.919  0.2849 -0.1700 -0.0743
 4922W        W21106   9.869   3.543   5.566  0.1835 -0.2130 -0.0398
 4923W        W21107  12.437  15.503   0.870  0.0827 -0.3325 -0.0113
 4924W        W21108  10.327   1.102   2.114  0.1215 -0.3409 -0.0505
 4925W        W21109  16.931   7.709  13.512  0.0707  0.0036 -0.1769
 4926W        W21110   4.817   0.573   6.286  0.0400  0.3939  0.2358
 4927W        W21111   8.529   3.064   0.073  0.0924 -0.0071  0.2161
 4928W        W21112   2.007   0.510   0.950 -0.0204  0.2099 -0.0232
 4929W        W21113  15.662   9.832  12.371  0.0414 -0.1147 -0.2653
 4930W        W21114   1.548  13.918   2.489  0.2769  0.0797  0.3413
 4931W        W21115   6.043   6.533  11.850  0.0148  0.1826 -0.1375
 4932W        W21116   9.665  17.366   2.053 -0.2684  0.1800  0.2032
 4933W        W21117   1.597  12.050   1.020  0.0242 -0.0062  0.1170
 4934W        W21118   2.374  14.112   0.854 -0.0037  0.2624 -0.2708
 4935W        W21119   7.911  13.434  15.899 -0.3552  0.1934 -0.1110
 4936W        W21120  14.519   2.943   3.855  0.0221 -0.1137 -0.4225
 4937W        W21121   3.674  11.991  12.969  0.0586 -0.0166  0.3385
 4938W        W21122   7.416   1.270   3.310 -0.1353 -0.2588 -0.1511
 4939W        W21123   8.286  17.605  16.087  0.0340 -0.0905 -0.0125
 4940W        W21124   9.692  10.056   3.385  0.0762  0.0965 -0.0351
 4941W        W21125   8.254   7.772  12.306  0.1347 -0.0441 -0.0382
 4942W        W21126   3.494  14.196   0.866 -0.1487  0.1591  0.0348
 4943W        W21127  15.462   5.950  14.918  0.1129  0.0374  0.0032
 4944W        W21128   0.392  18.142   1.700  0.2781  0.4744 -0.3173
 4945W        W21129  16.737  13.774   5.273 -0.0992 -0.0378  0.3967
 4946W        W21130  17.375   8.947  14.202 -0.0774 -0.2219 -0.0045
 4947W        W21131   0.156   6.046  10.655  0.0427 -0.1353  0.0519
 4948W        W21132   4.030  14.734   1.694  0.2299  0.1961  0.1749
 4949W        W21133  17.116  15.891  13.219  0.0476  0.1482 -0.0185
 4950W        W21134  15.667   8.242  15.430  0.0371  0.0623 -0.0300
 4951W        W21135  13.608  13.076  14.743  0.3572 -0.1458 -0.2505
 4952W        W21136   8.664   1.469  12.998  0.1234 -0.4440  0.0227
 4953W        W21137  11.598  17.802  14.186 -0.0793 -0.2081 -0.1413
 4954W        W21138   1.953   2.043   3.710 -0.0732 -0.2206  0.0733
 4955W        W21139  13.107   4.433  11.599 -0.0502 -0.1989 -0.3827
 4956W        W21140   4.053   3.111   4.713 -0.1036  0.0707 -0.1234
 4957W        W21141  16.144   2.129   5.324 -0.2248  0.0127  0.0630
 4958W        W21142  12.889   2.737  13.464 -0.1096  0.0898  0.2051
 4959W        W21143   1.209  16.696  15.091  0.3876  0.0098  0.0576
 4960W        W21144  16.016  13.601  15.895  0.0082  0.1897 -0.2377
 4961W        W21145   5.620   7.251   4.850 -0.0950  0.0299 -0.0248
 4962W        W21146  12.547   4.380   1.243  0.2033 -0.0456 -0.0701
 4963W        W21147  11.076   7.664  15.426  0.0698 -0.0080 -0.0846
 4964W        W21148  14.406  13.188   5.527 -0.2668 -0.3185 -0.0824
 4965W        W21149   2.827   4.921  12.152  0.0180 -0.2457  0.3237
 4966W        W21150   9.618  13.985   4.201 -0.1202 -0.0990 -0.2685
 4967W        W21151  11.283   9.631   1.698  0.1982 -0.2374  0.0587
 4968W        W21152  11.266   1.303   1.462 -0.2130  0.1905  0.3687
 4969W        W21153  11.980  15.491  14.985 -0.0190 -0.1985  0.0626
 4970W        W21154  10.152   5.617  15.250  0.0045  0.1242 -0.1681
 4971W        W21155   0.228  12.747  16.486 -0.1084  0.0398  0.1924
 4972W        W21156  12.356   1.728   3.728  0.0384 -0.1122 -0.1706
 4973W        W21157   2.743   0.794   3.693 -0.1206 -0.2248  0.0647
 4974W        W21158  15.786  11.058  14.274 -0.1371  0.1353 -0.0170
 4975W        W21159   3.389   5.602   2.674  0.0330  0.0381 -0.1334
 4976W        W21160   2.899   5.465   1.160 -0.2228  0.1001 -0.2560
 4977W        W21161  12.576  11.592   0.446 -0.0698 -0.3113  0.2263
 4978W        W21162   5.749   4.100  13.579 -0.0629  0.1254 -0.1358
 4979W        W21163   4.880   9.241   3.469  0.1979  0.1074 -0.2121
 4980W        W21164  15.663   3.577  12.846 -0.2245  0.1541  0.1114
 4981W        W21165   6.048  13.631   4.265  0.2815  0.0643 -0.0775
 4982W        W21166   8.596   6.495  14.572  0.0449  0.0991  0.0723
 4983W        W21167   5.892   1.096  11.390 -0.0728 -0.1073 -0.1174
 4984W        W21168  12.451  18.134  13.406  0.1447  0.2237  0.0295
 4985W        W21169   5.219   4.306   0.129 -0.1242 -0.4778  0.0686
 4986W        W21170   1.158  10.549  13.414  0.1245 -0.2538  0.0007
 4987W        W21171  12.521   0.718  16.616  0.1016 -0.4109 -0.0290
 4988W        W21172   0.208   1.300  15.978 -0.1524  0.1448 -0.2353
 4989W        W21173  14.978   2.994  14.526 -0.3308 -0.0156 -0.0704
 4990W        W21174  10.614   6.867  15.018  0.0998 -0.1829 -0.1369
 4991W        W21175   3.769  12.094   3.658 -0.0339 -0.1484  0.1090
 4992W        W21176  13.180  17.123   3.553  0.0127 -0.0513  0.2045
 4993W        W21177  10.343  12.430  12.464 -0.3116  0.2076 -0.0371
 4994W        W21178   6.283   7.572  16.266  0.1179 -0.0669  0.1455
 4995W        W21179   2.874  14.229   1.719 -0.1848  0.1599 -0.0453
 4996W        W21180   7.692  12.489  12.733 -0.0012 -0.0397  0.1430
 4997W        W21181   3.827  11.962  16.134 -0.1784  0.1633  0.1171
 4998W        W21182   0.868   7.957  15.210 -0.0932  0.0848  0.1832
 4999W        W21183   2.572  10.661  14.643  0.0341  0.1323 -0.1740
 5000W        W21184   6.887   3.111   1.111 -0.1695 -0.1622 -0.3441
 5001W        W21185  13.273   4.142  12.928  0.1231  0.0839 -0.0945
 5002W        W21186   6.983  12.345  16.447 -0.1043  0.0256 -0.0697
 5003W        W21187  11.109   9.742  16.459 -0.0462  0.5743  0.0163
 5004W        W21188  15.057  10.984  16.683  0.0026  0.1345 -0.1407
 5005W        W21189   9.967  17.789   4.561  0.4338 -0.2252  0.1019
 5006W        W21190  17.704  12.178   3.106 -0.1737  0.0367 -0.0996
 5007W        W21191  12.789  14.193  16.089 -0.0148 -0.1651  0.1670
 5008W        W21192  12.272   1.415  14.158  0.0489  0.0951  0.0337
 5009W        W21193   2.848  11.370   5.486  0.1632  0.1279  0.3666
 5010W        W21194   6.101   1.361  12.820 -0.0118  0.0185 -0.0670
 5011W        W21195   4.685   6.725  11.954  0.1455  0.2172 -0.1818
 5012W        W21196   7.954   3.765  14.345 -0.0458 -0.3942  0.0228
 5013W        W21197   7.635   4.624  14.627  0.0499  0.0914  0.0377
 5014W        W21198   4.682  15.335  11.994  0.1094 -0.1914 -0.1615
 5015W        W21199  13.301   8.156   3.783 -0.0598  0.1043 -0.0190
 5016W        W21200  11.537  12.448   0.030 -0.1425 -0.1002 -0.3158
 5017W        W21201  14.712  15.364   3.393 -0.1457  0.1928  0.0155
 5018W        W21202  17.879   7.435  16.001 -0.1111  0.0583 -0.1245
 5019W        W21203  12.552   8.893   4.417 -0.2131  0.0835 -0.3072
 5020W        W21204   1.354   9.844  15.584 -0.1192 -0.3066 -0.1839
 5021W        W21205  13.710   0.043  13.211  0.0414 -0.2697  0.4299
 5022W        W21206   2.993  12.588   2.911  0.1085  0.0527 -0.1726
 5023W        W21207  15.552   2.477  14.902 -0.2019 -0.1558  0.0774
 5024W        W21208   2.293   0.868   0.646  0.2487 -0.0704  0.1101
 5025W        W21209   1.352   0.595   4.473 -0.1892  0.1216 -0.1415
 5026W        W21210  10.213  14.439  14.539  0.1482 -0.2388  0.0028
 5027W        W21211   7.954  10.776   3.354 -0.0134  0.0280  0.2884
 5028W        W21212   1.580   5.673   0.529  0.1673  0.1166  0.0457
 5029W        W21213   8.998   6.203  14.645  0.2596 -0.2881  0.0875
 5030W        W21214   9.935   6.558  14.381  0.0018 -0.2622 -0.2428
 5031W        W21215   5.708  10.713  12.751 -0.3373  0.0920 -0.1456
 5032W        W21216   4.352  11.668   0.471 -0.0490 -0.3659 -0.0637
 5033W        W21217  11.328   6.486   3.102  0.1313  0.0497 -0.1116
 5034W        W21218   7.349   4.685   5.700 -0.0805 -0.2101  0.2299
 5035W        W21219  14.792  14.672  14.948  0.2208  0.0918 -0.2433
 5036W        W21220   2.169   4.602   0.012 -0.1936 -0.0920 -0.2374
 5037W        W21221  13.455  14.757  13.534 -0.2170  0.0983  0.1654
 5038W        W21222  13.662   5.638   1.721  0.3412  0.0430 -0.0044
 5039W        W21223   9.224   7.071   0.889 -0.2555  0.0439 -0.1101
 5040W        W21224   7.597  16.719   0.276 -0.0813 -0.0890  0.0151
 5041W        W21225  13.177   0.051  15.290  0.2118  0.0488 -0.2050
 5042W        W21226  15.206  18.021   0.351 -0.0888 -0.0912  0.2338
 5043W        W21227  18.097  10.990   4.531 -0.0913  0.0589 -0.1053
 5044W        W21228  15.474  10.597  12.564 -0.2325 -0.0092 -0.0486
 5045W        W21229   3.092  11.985   1.551  0.0066  0.0537 -0.0348
 5046W        W21230   9.260   7.411   4.264  0.0175  0.1794  0.3388
 5047W        W21231   4.941   1.099  14.108  0.0036 -0.0887  0.2260
 5048W        W21232   1.820  10.787  12.582 -0.1190 -0.1027 -0.1151
 5049W        W21233   2.428   1.662   4.325 -0.0221  0.2427  0.0137
 5050W        W21234  17.345   6.036  15.171 -0.0010  0.2609 -0.0295
 5051W        W21235   6.000   8.676   2.019 -0.0559 -0.1132  0.2900
 5052W        W21236   4.745   7.422   4.977  0.0752 -0.2852  0.2165
 5053W        W21237   1.075  13.264   3.891  0.1826  0.0510 -0.1353
 5054W        W21238   6.145  10.041   1.434  0.1215 -0.0490 -0.3084
 5055W        W21239  16.715   0.480  13.029 -0.0766 -0.1734 -0.1422
 5056W        W21240  12.867  17.152  14.164 -0.0264 -0.3099  0.1053
 5057W        W21241   9.674  14.475  15.383  0.3491 -0.1221  0.2360
 5058W        W21242   8.060   7.078   0.542  0.6934 -0.2708  0.0754
 5059W        W21243  16.361   6.475  14.285 -0.1299  0.2642 -0.1968
 5060W        W21244  13.230   4.804   5.363  0.0699  0.1087 -0.0172
 5061W        W21245  12.376  16.201  13.483 -0.3359  0.0779 -0.2219
 5062W        W21246   8.593   5.330   5.122 -0.3824 -0.2840  0.1979
 5063W        W21247  11.957   1.094   2.947  0.0161  0.1772  0.3974
 5064W        W21248  17.421   3.890   9.651 -0.2099 -0.1834  0.1765
 5065W        W21249   2.496   3.094   3.252  0.0056  0.0620 -0.0458
 5066W        W21250   8.704  14.912   4.767  0.2195 -0.0493 -0.0875
 5067W        W21251  14.123  12.438   4.815 -0.4893  0.3811 -0.1573
 5068W        W21252   3.795   5.603   4.114 -0.0917 -0.1617  0.3282
 5069W        W21253   1.104  17.651   4.631  0.6112 -0.0133 -0.0605
 5070W        W21254   3.129  16.245  13.337 -0.0260 -0.1545  0.1632
 5071W        W21255  14.624   4.069   4.895  0.0223  0.2058  0.0299
 5072W        W21256  17.108   2.695  13.217 -0.0955 -0.0204 -0.0606
 5073W        W21257  16.674   4.022  15.759  0.4579 -0.4584 -0.2071
 5074W        W21258  13.132  12.365  11.949  0.0023  0.1371 -0.1269
 5075W        W21259   5.536   5.752   2.686 -0.0756 -0.2879 -0.0142
 5076W        W21260   6.673  12.235  14.315 -0.0358  0.0080 -0.1221
 5077W        W21261   0.148  10.718  13.536 -0.3478 -0.1889 -0.0940
 5078W        W21262   5.345  17.283   2.439 -0.1046  0.2218 -0.0096
 5079W        W21263   7.276  13.410   5.507  0.0690 -0.1384 -0.1126
 5080W        W21264  13.424  13.563   3.496 -0.0273  0.0873  0.0133
 5081W        W21265   4.843  11.268  12.098  0.0243  0.2245 -0.0341
 5082W        W21266  14.407  10.003   2.520  0.1999 -0.0512  0.1668
 5083W        W21267  16.467   1.657   4.514  0.1268 -0.2277 -0.1984
 5084W        W21268   8.970  12.107   3.291  0.0889 -0.0956 -0.1376
 5085W        W21269   0.119  16.241  14.163  0.0743  0.1082  0.4616
 5086W        W21270  11.043  15.010  11.584 -0.0131  0.0512  0.1032
 5087W        W21271   5.783   4.156  14.130  0.1915  0.3712  0.1676
 5088W        W21272   5.411   8.537  15.342 -0.0916  0.0381  0.3061
 5089W        W21273   9.175   8.331   5.389 -0.3829 -0.0950  0.2125
 5090W        W21274   4.988   0.399   5.509 -0.0048 -0.2404  0.1167
 5091W        W21275   5.125   3.596  14.130  0.3875 -0.0338  0.1338
 5092W        W21276  14.503   1.021   2.889 -0.1925  0.2920 -0.1853
 5093W        W21277   8.324   4.924  15.687 -0.0042  0.0470 -0.0569
 5094W        W21278   0.618   3.994  15.642  0.0025  0.1953 -0.0055
 5095W        W21279   3.457   2.033   1.172 -0.2091  0.3580  0.1775
 5096W        W21280   4.801  10.867   1.046 -0.3551 -0.4352  0.0838
 5097W        W21281  16.481   6.831   3.874  0.0414 -0.4701 -0.0131
 5098W        W21282   6.402  10.417   1.260  0.0621  0.2196 -0.2195
 5099W        W21283  13.544  12.582   2.509  0.3887  0.2235  0.2080
 5100W        W21284  14.917  13.933   0.514  0.1938 -0.5107 -0.0271
 5101W        W21285  16.798   5.768   1.685 -0.0022 -0.0397  0.0482
 5102W        W21286   8.606   0.392  16.661 -0.2677 -0.3346  0.1082
 5103W        W21287  11.997   5.939  15.347  0.0207 -0.3685 -0.2259
 5104W        W21288   6.392   8.379   1.567 -0.1950  0.1661 -0.3405
 5105W        W21289  16.054  17.021   6.093 -0.1311 -0.1620 -0.1228
 5106W        W21290   0.078  11.461  16.392 -0.0726  0.0368 -0.0306
 5107W        W21291  10.034   2.092  15.258 -0.2875 -0.1394 -0.5160
 5108W        W21292   0.408  16.150   4.531  0.1092  0.1253  0.0739
 5109W        W21293  14.329  14.083  15.476  0.0942  0.0394 -0.1786
 5110W        W21294   4.759  14.562  16.331  0.0281 -0.4209 -0.0607
 5111W        W21295   1.677   2.272   1.857  0.0971  0.4578  0.1903
 5112W        W21296   5.329   3.782   3.605  0.2676  0.1069 -0.3015
 5113W        W21297  16.736  15.554   2.992 -0.1392  0.3240 -0.0618
 5114W        W21298   3.604  17.334   2.801 -0.0013  0.1396  0.1786
 5115W        W21299   6.157  13.160   4.407  0.0122  0.0710 -0.1348
 5116W        W21300  14.593   6.766  12.178 -0.1217 -0.1194 -0.1566
 5117W        W21301  15.767  17.404  14.983  0.3125 -0.3004 -0.2064
 5118W        W21302   8.693   5.034  14.820  0.4510 -0.0453  0.0575
 5119W        W21303  15.244   0.272   2.324 -0.0320 -0.0646  0.0288
 5120W        W21304   3.468  12.939   5.385  0.1932  0.3625  0.0792
 5121W        W21305  16.546  17.817   0.087  0.0277 -0.0872 -0.1568
 5122W        W21306   0.312  17.171   0.023  0.0415  0.0953 -0.0956
 5123W        W21307  15.250   9.557   2.128 -0.0682  0.0252 -0.2246
 5124W        W21308  17.487  17.819   4.389 -0.0347 -0.0327  0.0986
 5125W        W21309  14.339   0.608  15.662 -0.3321 -0.2095 -0.1548
 5126W        W21310  16.331   0.524   1.214 -0.0684  0.1205  0.2381
 5127W        W21311  15.381   1.368  15.377 -0.3766 -0.0341 -0.2553
 5128W        W21312  14.004   7.020   3.989  0.3863  0.2919  0.1594
 5129W        W21313  12.962   0.183  11.801 -0.1654  0.0336 -0.1115
 5130W        W21314  16.101  10.700  15.903  0.3560  0.0399 -0.1599
 5131W        W21315   2.796   2.322  15.756  0.0515 -0.0610  0.0433
 5132W        W21316  10.593   4.688   3.828  0.2556  0.4542 -0.1798
 5133W        W21317  15.755  17.174  13.316  0.3791  0.0200  0.2406
 5134W        W21318  12.510   3.821   0.536  0.1090  0.0556 -0.1826
 5135W        W21319  14.755   4.450  15.941 -0.0518 -0.0332  0.1682
 5136W        W21320   5.142  10.935   1.507  0.1278  0.0715  0.3055
 5137W        W21321   4.142   8.865  12.449  0.0216 -0.1012 -0.2289
 5138W        W21322   9.091   6.723  14.560 -0.1209 -0.2372 -0.0705
 5139W        W21323   7.542  16.039  12.891  0.1039  0.2094 -0.2942
 5140W        W21324   9.970  18.010  15.025 -0.2210  0.0663  0.2330
 5141W        W21325   4.185   6.874   1.815  0.1318 -0.1561  0.2873
 5142W        W21326   9.603  16.733   3.241  0.1415 -0.1137 -0.2522
 5143W        W21327   3.590   4.003   4.190  0.1877 -0.1266  0.0552
 5144W        W21328  15.164   5.560  12.083  0.1737 -0.0151 -0.2762
 5145W        W21329   7.075   8.038   4.984  0.0887  0.2667  0.0899
 5146W        W21330  16.463   5.286   2.628 -0.2826  0.0980  0.0024
 5147W        W21331  10.128  15.866  16.376  0.3077  0.2114 -0.1128
 5148W        W21332   9.138  14.719   0.842  0.1237 -0.3362  0.1071
 5149W        W21333  15.304   3.451   3.934 -0.1331 -0.0388 -0.1320
 5150W        W21334   4.260  15.680   0.863  0.1861  0.2160  0.0464
 5151W        W21335   2.564  12.149   6.300  0.0154  0.0201  0.1269
 5152W        W21336  11.326  10.898  15.154  0.1376 -0.2472  0.0111
 5153W        W21337  10.406   7.588   0.446 -0.0496  0.2177  0.1067
 5154W        W21338   2.959  15.772   5.485 -0.2513 -0.0075  0.3085
 5155W        W21339  11.726   5.915   5.454  0.0061  0.2400  0.0219
 5156W        W21340  14.574   1.836   3.724  0.0900 -0.3545 -0.1463
 5157W        W21341  13.763  14.548   0.801  0.2238 -0.1149  0.0272
 5158W        W21342  14.121   7.954   0.981 -0.4591 -0.2013 -0.2763
 5159W        W21343  13.653  16.326   0.919  0.0821  0.1422  0.3102
 5160W        W21344   1.190  11.593   2.345  0.1154 -0.1341 -0.2687
 5161W        W21345  12.098  15.940   2.734  0.1755  0.0143 -0.2729
 5162W        W21346  17.637   0.283  14.775 -0.1865  0.0216 -0.0555
 5163W        W21347  10.232   3.943   1.155 -0.2282  0.3745  0.1922
 5164W        W21348   8.432   3.380  14.185 -0.1348  0.3076  0.1358
 5165W        W21349   8.801   7.474   4.607 -0.2147  0.1494 -0.2514
 5166W        W21350  16.833   1.716   1.313  0.0229  0.2930  0.2538
 5167W        W21351   8.737  17.777  12.557 -0.1074 -0.0950  0.2590
 5168W        W21352   8.095   7.905   6.270  0.0824 -0.3814  0.2187
 5169W        W21353  10.727   1.558   3.629  0.0617 -0.0655 -0.1893
 5170W        W21354  17.229  10.652  11.275  0.2202 -0.0959 -0.0412
 5171W        W21355   2.578   4.697   2.386 -0.1281  0.1382  0.0725
 5172W        W21356   1.402   0.291   1.131 -0.2140  0.0880 -0.0452
 5173W        W21357  12.154   4.901  12.639 -0.0451  0.1829 -0.0272
 5174W        W21358  11.745  10.543   4.347  0.0692 -0.2605 -0.0577
 5175W        W21359  13.882   2.064  13.879  0.0647  0.1990  0.2507
 5176W        W21360  12.787   2.460   0.038  0.2744  0.1527  0.0695
 5177W        W21361   2.743  11.795   5.208 -0.2808  0.0925 -0.2369
 5178W        W21362  12.989   9.484  16.347  0.2333 -0.0228  0.1046
 5179W        W21363   9.401   4.019  15.805 -0.2330 -0.0200  0.0275
 5180W        W21364  16.075   4.170  14.237 -0.2431 -0.1313  0.0932
 5181W        W21365   1.403  17.972   1.166 -0.1366 -0.0954  0.2033
 5182W        W21366   2.655   9.954   0.994 -0.0698  0.0145 -0.0443
 5183W        W21367   5.335  14.412  14.348  0.0909 -0.0407 -0.1426
 5184W        W21368   7.621   6.258   0.116 -0.0824  0.0291  0.1309
 5185W        W21369   2.479   8.451  15.378  0.1870 -0.1031 -0.2965
 5186W        W21370   7.288   1.096  15.200 -0.1154  0.0901 -0.1014
 5187W        W21371   0.408   5.020  10.296  0.1576 -0.1482  0.2852
 5188W        W21372  11.502  17.991   5.101  0.0160 -0.2097  0.0447
 5189W        W21373  13.574  12.246  15.226 -0.0981  0.4774  0.0485
 5190W        W21374   2.416  11.830  11.793  0.0147 -0.0372 -0.1732
 5191W        W21375   2.061  15.346   1.564 -0.1967  0.1506  0.2771
 5192W        W21376  12.474   5.050  13.909 -0.0078  0.2055  0.0143
 5193W        W21377   5.541  10.634   6.134 -0.0202  0.4016  0.0547
 5194W        W21378   4.391  12.522   5.243  0.2014 -0.0121 -0.0378
 5195W        W21379   7.405  13.582  15.695  0.1262 -0.2211 -0.0976
 5196W        W21380   3.622   1.543  15.946  0.1673 -0.4233 -0.0293
 5197W        W21381  15.543   3.058   3.681  0.2556 -0.1664 -0.1548
 5198W        W21382  14.281   2.554  15.353 -0.0859 -0.0719  0.1056
 5199W        W21383   9.115   6.256  14.192  0.2339 -0.1127 -0.1037
 5200W        W21384   5.948  18.033  15.028 -0.0027  0.1873  0.1825
 5201W        W21385  12.176  11.354   4.751  0.3813 -0.1683  0.1424
 5202W        W21386   8.355  14.721  14.731  0.1720  0.1177 -0.1740
 5203W        W21387   4.913  17.194   4.259 -0.0848 -0.5717 -0.1500
 5204W        W21388  11.938  14.872  11.707 -0.3417  0.1357 -0.4023
 5205W        W21389   8.855   8.683  15.862  0.1355 -0.1773  0.0690
 5206W        W21390  10.447   4.844   4.269  0.0161 -0.0627  0.0862
 5207W        W21391  13.308   9.680   3.388 -0.0320  0.0488 -0.0244
 5208W        W21392  18.046  17.888  11.623  0.2319 -0.0326 -0.1238
 5209W        W21393  14.041   9.757  14.341 -0.1133  0.0693 -0.1481
 5210W        W21394   8.190   2.244  16.551  0.3560 -0.3751 -0.0505
 5211W        W21395   5.484  12.658  13.186  0.1509 -0.2121  0.2482
 5212W        W21396   3.390   1.032  15.537 -0.2639  0.1704  0.3155
 5213W        W21397   4.904  14.658   0.692  0.1643  0.0142 -0.0668
 5214W        W21398   3.662   9.746   0.107  0.4745  0.0879 -0.2125
 5215W        W21399  11.837   7.561  15.815 -0.1530 -0.1230  0.2077
 5216W        W21400  13.317  12.693  15.220 -0.1370 -0.0166  0.0128
 5217W        W21401   6.574   4.038  13.891  0.1530  0.1309  0.3839
 5218W        W21402  15.555   7.832  11.617 -0.1017 -0.0429 -0.3039
 5219W        W21403  17.485  12.851  16.270  0.1902  0.0416  0.0933
 5220W        W21404   7.525   0.080   2.641 -0.2312 -0.1902 -0.0575
 5221W        W21405   6.350   6.127   5.690  0.1757 -0.0432  0.3704
 5222W        W21406   9.531   6.855  15.912 -0.0340  0.0935  0.2477
 5223W        W21407   2.379   9.146  12.713 -0.1523  0.2942 -0.1172
 5224W        W21408  14.396  11.880   0.406 -0.3823 -0.0659 -0.5099
 5225W        W21409  17.913   3.095   2.374  0.4032  0.1967 -0.0907
 5226W        W21410   2.928  12.698   5.779 -0.0230  0.0709  0.1347
 5227W        W21411  12.599   5.699  13.713  0.1637 -0.1319 -0.0896
 5228W        W21412   1.377  16.370  13.952  0.0646  0.5321  0.3054
 5229W        W21413   1.432   7.483  16.137 -0.2784 -0.0145  0.2352
 5230W        W21414   1.373   5.163   3.314  0.1280  0.1962  0.2638
 5231W        W21415  17.006   1.089  16.346  0.0904  0.2605 -0.1261
 5232W        W21416  17.359  11.951   3.420 -0.1367  0.0571 -0.0850
 5233W        W21417   3.134  15.320  13.858  0.0907  0.1911  0.2148
 5234W        W21418  16.223   7.162   3.506 -0.4050  0.0548 -0.2109
 5235W        W21419   6.316  10.876   5.410  0.0788 -0.0283 -0.0943
 5236W        W21420  13.928  16.864  15.239 -0.2500  0.3845  0.2470
 5237W        W21421  11.141   3.475   5.694  0.0800 -0.2877 -0.0981
 5238W        W21422   4.254   4.261   5.990 -0.5385  0.1062 -0.3406
 5239W        W21423   3.143  13.574  12.784  0.0651 -0.1641 -0.2689
 5240W        W21424   2.092  14.450  15.388  0.0974 -0.0649  0.2539
 5241W        W21425   6.690   9.263   2.095 -0.0101  0.0041 -0.1616
 5242W        W21426   8.037  10.292  12.923  0.1824 -0.3285 -0.0573
 5243W        W21427   1.935   1.622   4.466  0.1758  0.0196 -0.0476
 5244W        W21428   4.769   3.720   3.706 -0.0214  0.0786 -0.0298
 5245W        W21429  12.448   6.690   0.049 -0.2787 -0.1451 -0.0326
 5246W        W21430  16.513   7.964  13.225 -0.2737 -0.0345 -0.1891
 5247W        W21431   2.450  12.416   5.774  0.1878 -0.0418  0.0110
 5248W        W21432  16.450   7.758  13.720 -0.3230 -0.0043 -0.0326
 5249W        W21433   8.384  15.493  12.664 -0.2470 -0.0865 -0.1185
 5250W        W21434   3.293   0.825   3.852  0.0512  0.1216  0.3544
 5251W        W21435   0.140   0.154   4.759  0.2388  0.0514  0.2227
 5252W        W21436  16.833  14.120  13.902 -0.0385 -0.0981  0.0726
 5253W        W21437  18.068   4.331  12.191 -0.2013  0.0237  0.2450
 5254W        W21438   4.449   6.216  14.764 -0.3292 -0.0265  0.0376
 5255W        W21439  10.543   9.645   2.620 -0.0718  0.1469 -0.1238
 5256W        W21440   7.219   1.921   0.871  0.1639 -0.1213  0.1378
 5257W        W21441  17.427  18.161  13.661 -0.2302  0.0248 -0.0212
 5258W        W21442   2.349   4.352   3.818 -0.1082 -0.3032  0.1073
 5259W        W21443  16.439   1.861  12.482 -0.2007  0.1864  0.0671
 5260W        W21444  11.680   8.925  15.038  0.2030 -0.1151 -0.0010
 5261W        W21445   8.140   9.430  12.726 -0.1895  0.2047 -0.0950
 5262W        W21446   0.144  12.838  11.787  0.0769  0.1365 -0.3133
 5263W        W21447  11.902   8.577   6.229  0.0089 -0.1930 -0.4025
 5264W        W21448  13.804   2.284   1.543  0.0055  0.0785 -0.0821
 5265W        W21449  15.886  15.463   3.347 -0.3374 -0.1078 -0.0026
 5266W        W21450  16.762   6.084  16.039 -0.2686 -0.3188 -0.2085
 5267W        W21451  16.672  15.950  12.014  0.3165 -0.1895  0.2388
 5268W        W21452   2.152   1.763   3.295  0.2133  0.2041  0.3070
 5269W        W21453  12.840  14.437   1.363  0.2267  0.0222  0.1546
 5270W        W21454  15.541  13.907  13.271 -0.0712  0.0136  0.3295
 5271W        W21455  12.250   2.480  15.978 -0.0046 -0.1136  0.0081
 5272W        W21456   8.587   8.607   5.900 -0.1948  0.1230  0.2343
 5273W        W21457   9.386   5.066  11.417  0.1680 -0.2488 -0.2454
 5274W        W21458   2.898   7.586   2.119  0.0577 -0.1374 -0.0397
 5275W        W21459   1.950  10.950   5.229 -0.0280  0.0942  0.2210
 5276W        W21460  11.417  17.480  12.792  0.0258  0.3165  0.0713
 5277W        W21461   2.797   9.083   5.889  0.4056 -0.0227  0.1764
 5278W        W21462   3.587  17.822  13.949 -0.2227 -0.2013  0.1373
 5279W        W21463   1.562  15.885   2.951  0.0252  0.0350  0.3272
 5280W        W21464  13.857  11.991   4.788 -0.2111  0.2357  0.0275
 5281W        W21465   3.803  13.952   2.367 -0.0642 -0.1763 -0.1130
 5282W        W21466  17.445  14.310   0.341  0.0529  0.0505 -0.2106
 5283W        W21467  14.287   6.365   1.479  0.1102  0.0781 -0.1505
 5284W        W21468   1.071   6.857   3.632 -0.0068 -0.1143 -0.2065
 5285W        W21469  10.272  16.235  14.495  0.2377 -0.0720  0.2704
 5286W        W21470   8.259  17.224   4.034  0.0919 -0.0111  0.1115
 5287W        W21471   9.024  13.265  12.629 -0.1459  0.1591 -0.2619
 5288W        W21472  14.367  16.878   2.906  0.2413  0.1110 -0.2484
 5289W        W21473  13.357   1.051  16.163 -0.2558  0.2227  0.3607
 5290W        W21474   5.599   4.975  13.085  0.2439 -0.1391 -0.0357
 5291W        W21475   8.786  14.744  12.060  0.3324  0.0019  0.2624
 5292W        W21476  11.901  15.943  13.341  0.0208  0.0028  0.1185
 5293W        W21477  16.003   9.099   2.458 -0.2952  0.0675  0.0125
 5294W        W21478   0.378   5.024  14.359  0.0295 -0.0832  0.0834
 5295W        W21479   5.009   0.328   2.105 -0.0061  0.1764 -0.1306
 5296W        W21480  17.672  15.764   2.846  0.1588 -0.2088  0.2112
 5297W        W21481  17.211   3.057  14.484  0.1867 -0.2485 -0.3163
 5298W        W21482  11.888   9.010   1.842  0.0127 -0.1323  0.0582
 5299W        W21483   0.596   0.110   4.653 -0.1057 -0.0401 -0.3113
 5300W        W21484   6.653   0.714   4.089 -0.0107 -0.1390  0.0599
 5301W        W21485  10.451   1.925   0.117  0.3294 -0.0945  0.1550
 5302W        W21486  11.370  16.573   2.555 -0.2634 -0.0907  0.2205
 5303W        W21487  15.831   0.136  12.599 -0.1466  0.1821 -0.0539
 5304W        W21488   7.078   6.787  13.599 -0.0168  0.0272  0.1386
 5305W        W21489   9.140   0.288   1.700  0.0791  0.1990  0.2361
 5306W        W21490   9.596   0.293   0.980  0.0919 -0.1343 -0.0595
 5307W        W21491  15.835   2.400   0.616  0.2084  0.0517  0.2601
 5308W        W21492  17.427   7.638  13.272 -0.1887 -0.1193  0.2455
 5309W        W21493  15.923   5.490   1.631  0.0315 -0.1681 -0.1456
 5310W        W21494   8.252   4.601   0.083  0.0764 -0.2731 -0.0217
 5311W        W21495  10.580  11.848  10.927  0.0311 -0.0972  0.2588
 5312W        W21496   9.818  14.852  12.693  0.2363 -0.0317 -0.0691
 5313W        W21497   1.977   1.589   2.166 -0.1276 -0.0394 -0.0278
 5314W        W21498  10.527   1.484   0.389  0.0018 -0.1066  0.1195
 5315W        W21499   7.560  10.345  13.003 -0.1131 -0.1653 -0.2096
 5316W        W21500  12.951   8.541   6.270 -0.1325  0.0610  0.0260
 5317W        W21501   8.721   8.458   5.355 -0.0462  0.1188 -0.2245
 5318W        W21502   9.599  10.860  15.040  0.2419 -0.0424  0.1209
 5319W        W21503   0.469  15.616  14.967  0.0476 -0.1264 -0.0459
 5320W        W21504   6.121   3.840  13.836  0.2285  0.1671  0.0290
 5321W        W21505   9.680   9.741  15.742  0.0505 -0.0183  0.4077
 5322W        W21506  12.949  13.800   6.196  0.1996 -0.2896  0.0546
 5323W        W21507  16.630   1.975   4.936  0.3235  0.0262  0.0668
 5324W        W21508   5.932   7.851   2.152  0.3876 -0.1930  0.2836
 5325W        W21509  17.821   3.655  10.913 -0.1281 -0.2206 -0.0297
 5326W        W21510  11.929   4.914  13.107  0.0920  0.0389  0.1184
 5327W        W21511  13.410   0.871  11.934  0.2211  0.1111  0.1465
 5328W        W21512   0.960  15.405  15.651 -0.0755  0.0976  0.4342
 5329W        W21513  11.519   2.264  14.855  0.0690  0.2027  0.2149
 5330W        W21514  15.777   0.030   1.060 -0.0347  0.1464 -0.3200
 5331W        W21515   7.453   5.948  15.045 -0.0451  0.3475 -0.1326
 5332W        W21516  12.745   7.079   4.437 -0.3796 -0.0411 -0.1501
 5333W        W21517  15.068  10.667  11.641  0.0816 -0.0864  0.0827
 5334W        W21518   6.282  10.039   0.985 -0.0357  0.0324  0.3778
 5335W        W21519   3.530   0.187  15.414 -0.2027 -0.1520  0.1946
 5336W        W21520   8.576  11.747   0.094 -0.0561 -0.1103 -0.0870
 5337W        W21521  15.045   2.219   4.972 -0.2912  0.1725  0.1635
 5338W        W21522  17.853  14.839  14.607 -0.0343 -0.2004 -0.1126
 5339W        W21523   9.327   8.216  15.981  0.4006  0.0763  0.0462
 5340W        W21524   3.380  15.393  12.870  0.0091  0.1142 -0.1226
 5341W        W21525   7.466   4.354  14.141  0.0240 -0.0485  0.3433
 5342W        W21526  17.138  10.721   1.261  0.0546  0.4109  0.6136
 5343W        W21527   1.182   3.528   2.963  0.2862 -0.2346  0.2185
 5344W        W21528   8.237   7.665  14.010  0.0565  0.0887 -0.0162
 5345W        W21529  13.890  12.025   0.738  0.1654 -0.0937 -0.0361
 5346W        W21530   3.148   9.132   1.029  0.1059  0.3377 -0.2435
 5347W        W21531  10.560  14.997   3.833  0.0222 -0.1735 -0.0674
 5348W        W21532  14.063  10.720  15.798 -0.2101 -0.2695  0.1789
 5349W        W21533  10.431  18.048   0.950 -0.3110  0.3311  0.1457
 5350W        W21534   2.702   0.056   2.556  0.0004 -0.1375 -0.2127
 5351W        W21535  13.563   6.385  11.345 -0.4586  0.0294  0.2068
 5352W        W21536   3.661  12.993  16.148 -0.2216  0.0542 -0.2783
 5353W        W21537  15.315   5.357   2.443 -0.0376  0.0157 -0.0848
 5354W        W21538  15.332  11.960  15.988  0.0866  0.1111 -0.4151
 5355W        W21539  13.758  10.284  15.650 -0.0047 -0.1216 -0.1820
 5356W        W21540  12.721   9.244   4.125 -0.4477 -0.0903 -0.0092
 5357W        W21541  11.616   2.585   1.697  0.1511 -0.0477  0.2279
 5358W        W21542   3.734  11.163   1.342  0.1176 -0.0711 -0.1613
 5359W        W21543  12.731   3.210  13.354  0.0141  0.0684  0.1631
 5360W        W21544  16.510  11.809  16.063  0.0656 -0.1526  0.0100
 5361W        W21545   4.936   0.130  13.906 -0.1319 -0.5969 -0.0255
 5362W        W21546  11.731   6.129  14.040 -0.1048 -0.1418 -0.0965
 5363W        W21547   6.367   0.511   1.839  0.1662 -0.0390  0.0949
 5364W        W21548  14.567   3.688   0.790  0.1534  0.0832 -0.1015
 5365W        W21549   1.196   3.574  13.960 -0.2494 -0.2118 -0.1167
 5366W        W21550  16.036   9.827   1.539  0.0426 -0.2540 -0.1486
 5367W        W21551  15.914  12.780   4.695 -0.2883  0.2183  0.3140
 5368W        W21552  13.374   6.401   1.744  0.1626  0.2639  0.0796
 5369W        W21553  10.768  16.648  11.842 -0.1133  0.0656 -0.2376
 5370W        W21554  13.456   7.618  13.366  0.1367 -0.2337  0.1217
 5371W        W21555  10.355   0.256   3.471  0.0456 -0.0795 -0.0093
 5372W        W21556   4.309   7.282   5.240 -0.3717  0.2578 -0.0524
 5373W        W21557  10.602   1.549  15.228  0.0718  0.3299  0.1102
 5374W        W21558  16.376   9.473  16.522 -0.4136 -0.0460 -0.2392
 5375W        W21559  17.883  11.459   4.466 -0.0404  0.1091 -0.0865
 5376W        W21560   2.277   6.841   0.383 -0.1303  0.2612 -0.0534
 5377W        W21561   7.195   3.202   0.766 -0.2646  0.2377 -0.0362
 5378W        W21562   3.086  12.799  13.072  0.2851  0.0612  0.1132
 5379W        W21563  13.643  13.999   3.176  0.3137 -0.1995 -0.0159
 5380W        W21564  13.825   6.684   1.670  0.0581  0.0737 -0.1671
 5381W        W21565  13.484   7.441  15.141 -0.0096 -0.0590 -0.1484
 5382W        W21566   6.204  13.607   1.515  0.1903 -0.3594 -0.1499
 5383W        W21567   1.316  15.524  16.361 -0.0505 -0.0472 -0.0787
 5384W        W21568   8.307  11.582   5.521 -0.0650  0.1032 -0.0727
 5385W        W21569  17.144  13.458   2.925  0.0397 -0.3184  0.0304
 5386W        W21570  18.040  15.178   3.270  0.0942  0.1645  0.0457
 5387W        W21571   7.533   2.797   0.692  0.0782 -0.1496  0.1211
 5388W        W21572   5.363  13.193  13.422 -0.0977  0.4705 -0.2230
 5389W        W21573  17.662   3.573   2.025  0.0455 -0.2072  0.3851
 5390W        W21574  17.855   4.618  13.663  0.2687 -0.2302  0.0090
 5391W        W21575  10.209   5.753  13.142 -0.4375  0.0913 -0.0667
 5392W        W21576  10.973   9.716  15.873  0.0902  0.1326 -0.0460
 5393W        W21577  17.720  14.171  15.330 -0.0322  0.0155  0.1620
 5394W        W21578  15.293  11.375  14.688  0.1222 -0.3733 -0.0777
 5395W        W21579   8.038   4.153   2.510  0.2603  0.0894 -0.2809
 5396W        W21580   5.405   3.912  12.448 -0.0299  0.1777  0.0181
 5397W        W21581  17.195   7.960   3.206  0.1221 -0.1739  0.0342
 5398W        W21582   7.420   7.534  14.136  0.1373  0.1815  0.2804
 5399W        W21583   7.812  14.247   5.394 -0.3242 -0.0865 -0.0763
 5400W        W21584  17.500   3.627  16.200 -0.1355 -0.0692 -0.0119
 5401W        W21585  16.455   5.728  16.276 -0.1915  0.1718 -0.0326
 5402W        W21586   4.342   5.220   0.779  0.0301 -0.0913  0.1009
 5403W        W21587   2.522  12.936   3.589 -0.2006  0.0781  0.3310
 5404W        W21588   7.868   6.093  12.086  0.4058  0.0434  0.0983
 5405W        W21589  12.779  12.615   0.018  0.0321  0.2503 -0.0999
 5406W        W21590  18.103  16.003  11.442 -0.1008 -0.0339  0.1463
 5407W        W21591   9.062  13.871  15.584  0.0639  0.0887 -0.1800
 5408W        W21592   8.098   3.692  12.985  0.1252  0.1111  0.1841
 5409W        W21593  11.707   5.113   4.544 -0.0846 -0.3784  0.3864
 5410W        W21594  11.671   1.496  13.317  0.1376 -0.1130 -0.0402
 5411W        W21595   6.036   4.454  15.787  0.0102 -0.2090  0.0168
 5412W        W21596   6.358   6.585   4.642 -0.0646  0.0845 -0.0104
 5413W        W21597   6.429   2.829  14.282  0.3635  0.0091 -0.2014
 5414W        W21598  17.426   2.092   3.976 -0.0135  0.1607 -0.0535
 5415W        W21599  10.636   6.689   1.599 -0.3498  0.0681 -0.0464
 5416W        W21600  11.857   9.381   4.755  0.3222  0.1197 -0.1893
 5417W        W21601  15.922  11.553   1.210 -0.1529  0.0877 -0.1917
 5418W        W21602   8.629  14.119   1.053 -0.1182 -0.2263 -0.1218
 5419W        W21603   5.934   6.866  12.601 -0.0636 -0.0375 -0.0051
 5420W        W21604   9.128   7.213  11.409  0.0342  0.2136  0.2053
 5421W        W21605   8.244   0.941   2.946  0.1524  0.0277  0.1945
 5422W        W21606   2.375  14.610   0.825  0.1927  0.0370  0.1885
 5423W        W21607   4.169   1.984   5.014  0.2607 -0.0209 -0.0479
 5424W        W21608   5.981  16.067  12.163 -0.1310 -0.0645 -0.2104
 5425W        W21609  14.121   6.990  12.219  0.1482 -0.1208 -0.0991
 5426W        W21610   7.807   7.791   4.511 -0.0578 -0.0706 -0.0274
 5427W        W21611   3.383   4.992   4.534  0.2239 -0.2451 -0.1790
 5428W        W21612   7.617   5.437   0.428 -0.2809  0.3075 -0.2874
 5429W        W21613  14.000   2.831  14.136  0.0492 -0.2862  0.0828
 5430W        W21614   0.111   1.827   0.207  0.3385 -0.3695 -0.1177
 5431W        W21615   5.870  14.962   1.751  0.1012 -0.0203  0.0646
 5432W        W21616  13.600   6.890  15.007 -0.0105  0.1503  0.2074
 5433W        W21617   9.561   2.504  13.790 -0.0775  0.1159 -0.0784
 5434W        W21618  11.026   6.346  13.100  0.1019 -0.0420 -0.3861
 5435W        W21619   1.614  13.705   5.018  0.1312 -0.1445  0.1868
 5436W        W21620   3.591  17.942  13.422  0.3021 -0.0021  0.1834
 5437W        W21621   9.827  15.838   5.404 -0.2296  0.1283 -0.2449
 5438W        W21622  16.142  17.224   5.142  0.4505 -0.1214  0.0807
 5439W        W21623   7.291   0.815   1.999  0.1693  0.1164  0.3011
 5440W        W21624   2.160   5.036   0.231 -0.1231  0.0237  0.0045
 5441W        W21625  16.581   1.734   3.726 -0.0450  0.3290  0.1778
 5442W        W21626  12.171   7.425   2.445 -0.3890  0.2928  0.0142
 5443W        W21627   6.229   3.864  15.743 -0.0491 -0.0159  0.0117
 5444W        W21628  11.661   7.912  16.559  0.2691 -0.2485 -0.2804
 5445W        W21629   8.062   8.251  12.183 -0.0746  0.1236 -0.0859
 5446W        W21630   9.374  10.582   1.338 -0.1116 -0.0080  0.2102
 5447W        W21631  12.012   3.871  12.945  0.0981 -0.2717 -0.0679
 5448W        W21632   2.061  11.497   3.447  0.1254  0.2826  0.0189
 5449W        W21633   1.685  13.645   5.510 -0.1381 -0.0761 -0.0894
 5450W        W21634   0.917   0.748   3.911 -0.2157  0.0945  0.2830
 5451W        W21635   4.289   0.163   4.608  0.0739 -0.0966 -0.0505
 5452W        W21636   3.892  12.448  12.877  0.0877  0.2733  0.0150
 5453W        W21637  16.521  14.537   5.392  0.2130  0.0694 -0.2330
 5454W        W21638  17.181   7.601   2.502  0.0740 -0.3153 -0.2135
 5455W        W21639  15.697  11.787   3.116 -0.0226 -0.0739 -0.1002
 5456W        W21640   2.403   8.716  14.958  0.2328  0.0692  0.1595
 5457W        W21641   0.546  15.021  14.434  0.1384  0.1039 -0.0796
 5458W        W21642  16.804   9.846   5.922 -0.1379  0.1046 -0.1842
 5459W        W21643  14.836  13.542  14.187 -0.1556 -0.0242 -0.1733
 5460W        W21644   4.971  15.953   0.530  0.1866 -0.0687 -0.2870
 5461W        W21645   2.869  10.371   3.499 -0.0222  0.0436  0.0293
 5462W        W21646  16.162   1.916  15.419 -0.2544 -0.2413 -0.0176
 5463W        W21647  15.842   4.802  10.435  0.0921  0.2304 -0.0672
 5464W        W21648   0.965   3.365  16.316 -0.0145 -0.1522 -0.0294
 5465W        W21649  11.840   3.153  14.342 -0.2381  0.0890  0.0695
 5466W        W21650   7.950  15.326  14.912 -0.0613  0.0570  0.2573
 5467W        W21651   6.278   0.427  16.420  0.1902  0.0289 -0.0158
 5468W        W21652   9.205   2.876   4.041  0.3342 -0.1929  0.1117
 5469W        W21653  10.483   1.804  12.356 -0.1524  0.1095  0.1033
 5470W        W21654  17.867  18.047   0.161 -0.0056  0.0159  0.1847
 5471W        W21655  16.141   0.006   2.407  0.0940 -0.0437  0.1859
 5472W        W21656   8.892   3.603   0.725  0.2732 -0.0737  0.1949
 5473W        W21657  13.153  16.192   1.057  0.2108 -0.3107 -0.0634
 5474W        W21658   5.188   5.613  11.398 -0.3200  0.2366 -0.1361
 5475W        W21659  15.283  10.930  14.881  0.0856  0.2235 -0.1926
 5476W        W21660   3.150   4.782  11.145  0.0146  0.1289  0.1826
 5477W        W21661  12.107   2.578  12.277  0.3806  0.0320  0.1817
 5478W        W21662   3.327  15.187  14.715  0.1995 -0.0728 -0.2383
 5479W        W21663   3.339   3.086   2.263 -0.1111  0.0785 -0.0584
 5480W        W21664   2.049  12.757   5.368  0.0148  0.3744  0.1545
 5481W        W21665   6.024  13.497   5.181  0.0490 -0.0362  0.0125
 5482W        W21666  10.446   2.455   5.417 -0.1717  0.1791 -0.5432
 5483W        W21667  14.824   1.971  13.342  0.1414 -0.2127 -0.0331
 5484W        W21668  17.799  16.130   3.164  0.0785  0.1482  0.0977
 5485W        W21669  13.886   4.153   1.632  0.1499  0.0365  0.1613
 5486W        W21670  15.253   9.580  12.572 -0.1255  0.1541 -0.0474
 5487W        W21671   5.981   5.940   2.962  0.1121  0.0258  0.3304
 5488W        W21672  13.642   1.935   1.063 -0.0324  0.1399 -0.1324
 5489W        W21673   8.218  16.736  11.899 -0.0328  0.2750 -0.0230
 5490W        W21674  10.909   7.789   4.289  0.1581  0.1386 -0.0727
 5491W        W21675   7.664   7.439  13.087 -0.2051  0.4266 -0.0160
 5492W        W21676   8.450  14.292  12.187 -0.0689 -0.0416  0.1923
 5493W        W21677  13.662  15.894   0.620 -0.0782  0.1592 -0.1166
 5494W        W21678  16.482   0.804   1.590  0.1621  0.3058  0.1907
 5495W        W21679  17.887  16.555  16.655 -0.0504  0.1345 -0.2364
 5496W        W21680   2.275  15.817   3.199 -0.0419  0.0970  0.3877
 5497W        W21681  17.365   7.001  15.199 -0.2072  0.0215  0.1399
 5498W        W21682   9.091   1.931   0.218  0.2520  0.0910  0.1950
 5499W        W21683   6.965  12.501  12.623 -0.1850  0.1060 -0.1157
 5500W        W21684   9.311   4.679   3.908  0.0899 -0.1778  0.1255
 5501W        W21685  13.745  15.567  14.429  0.0059 -0.1296 -0.0915
 5502W        W21686   3.165  17.557  16.595  0.0909 -0.0396 -0.0968
 5503W        W21687   6.611   1.864   1.077 -0.1279  0.0973  0.1369
 5504W        W21688   7.569   9.123   4.765  0.0938 -0.2700 -0.1345
 5505W        W21689   7.689   3.872  15.695 -0.1740 -0.2472 -0.1121
 5506W        W21690  17.666   6.211  16.019 -0.0022 -0.3114  0.1129
 5507W        W21691  16.185   4.654  11.456 -0.0141  0.1693  0.0551
 5508W        W21692   0.390   3.417   4.208 -0.0254  0.0090 -0.0743
 5509W        W21693  17.237   8.940  12.667  0.0115 -0.1569 -0.1158
 5510W        W21694   7.025  14.956   3.569 -0.1039  0.0562  0.1436
 5511W        W21695  15.039  10.386   0.012  0.2382 -0.1011 -0.0344
 5512W        W21696   9.171  15.678   1.577  0.0380  0.1981 -0.1508
 5513W        W21697   7.851   3.063  12.543 -0.0391 -0.1266  0.0941
 5514W        W21698   0.744  15.308  13.996 -0.0142  0.1217  0.1147
 5515W        W21699  16.562  16.430  13.288 -0.2717  0.2704  0.0073
 5516W        W21700  11.530   2.988   3.568 -0.0206 -0.3111  0.3541
 5517W        W21701  11.548   9.007   3.972  0.0589 -0.0930 -0.0533
 5518W        W21702   9.079   3.536  13.207 -0.2255  0.0753 -0.1315
 5519W        W21703  10.306   7.215  12.247 -0.1394 -0.0703  0.0002
 5520W        W21704   4.861   9.017  15.974 -0.1325 -0.0352  0.2153
 5521W        W21705   3.323   6.893  15.676 -0.0703  0.0992 -0.1068
 5522W        W21706   7.653  15.350  15.721 -0.0893  0.0573 -0.1016
 5523W        W21707   5.472  11.995  15.345 -0.0817  0.1670 -0.0837
 5524W        W21708   1.715   6.532  14.449  0.1628 -0.2281  0.3102
 5525W        W21709  11.469  17.918  13.677  0.1029  0.1435  0.0335
 5526W        W21710  12.760  15.592   0.427  0.0174  0.2482 -0.1569
 5527W        W21711   0.843   9.336  13.961  0.1457  0.1207  0.1964
 5528W        W21712  17.237  13.472   0.094  0.2146  0.2853  0.0028
 5529W        W21713  15.931   3.403  15.443  0.2430  0.5146 -0.1183
 5530W        W21714   7.732   9.319  13.685  0.1060 -0.2349  0.0252
 5531W        W21715  16.930   5.765  10.608  0.0661 -0.0365 -0.4198
 5532W        W21716  12.710   1.892  14.772  0.0933 -0.2748 -0.0198
 5533W        W21717  10.586   5.837  15.099 -0.1476  0.1563  0.1109
 5534W        W21718  16.667   9.728  12.648 -0.3551  0.1435 -0.1340
 5535W        W21719  14.828  10.252  12.219 -0.1118  0.0246  0.0225
 5536W        W21720   1.064   1.406   5.724  0.1203 -0.1600  0.0718
 5537W        W21721   2.724   8.618   3.099 -0.4514 -0.1310  0.1379
 5538W        W21722   5.853  11.684  14.444 -0.0492 -0.1088 -0.1801
 5539W        W21723   5.062   7.168   0.483 -0.0098  0.3045 -0.1365
 5540W        W21724  10.216   3.629  12.574  0.1240 -0.1330  0.2503
 5541W        W21725   9.382  12.648   0.689 -0.1521 -0.1041 -0.0176
 5542W        W21726   0.033  16.962  12.885  0.1668  0.0826  0.1008
 5543W        W21727  11.567  18.066   2.910  0.1146 -0.1970 -0.0635
 5544W        W21728   6.826   7.046   1.968  0.1590  0.2362 -0.1365
 5545W        W21729  14.950  16.420   5.812  0.1112  0.2940 -0.0224
 5546W        W21730  14.093  16.438  14.133 -0.0281 -0.0453  0.1929
 5547W        W21731   6.845   5.932   3.349 -0.0266 -0.2722  0.2339
 5548W        W21732  16.562   9.100  13.686  0.3024 -0.2120  0.0245
 5549W        W21733   2.364   7.670  16.416 -0.1421 -0.2012  0.2035
 5550W        W21734   7.642  17.927  13.170  0.0190  0.1959 -0.1012
 5551W        W21735   4.445   6.814  13.929 -0.1196 -0.1376  0.2422
 5552W        W21736  13.836   9.204  11.200  0.2024 -0.0338  0.3305
 5553W        W21737  15.190  16.468   0.620  0.1331 -0.1239 -0.1118
 5554W        W21738   4.502  10.156   1.839  0.1674 -0.3756 -0.0198
 5555W        W21739  17.347  16.364  12.552 -0.1807  0.1965 -0.4334
 5556W        W21740  17.108  13.688  11.981  0.0415 -0.0157 -0.2678
 5557W        W21741   7.545  10.672  15.334 -0.0428  0.1686 -0.2266
 5558W        W21742   3.109   0.408   3.179 -0.2906  0.1145  0.0942
 5559W        W21743   7.857   1.993  11.785 -0.0348  0.0304  0.2593
 5560W        W21744   7.411   2.949  15.492  0.1639 -0.0563  0.2257
 5561W        W21745  11.885  16.419   5.875  0.0422  0.0126  0.3836
 5562W        W21746  17.319  14.790   5.917 -0.2350  0.0793 -0.0448
 5563W        W21747   8.662  14.549  16.545  0.0889  0.2362  0.1027
 5564W        W21748  17.543   8.834   2.097 -0.0643  0.1630 -0.0337
 5565W        W21749  12.343   4.245   1.664 -0.0854 -0.1619  0.1343
 5566W        W21750   9.277  14.038   1.905 -0.0496  0.0138  0.0832
 5567W        W21751  13.778   1.694  15.312 -0.1600 -0.0748 -0.0081
 5568W        W21752  14.450  11.169  14.849 -0.0925  0.0990  0.0092
 5569W        W21753   2.400   4.252   3.080 -0.1490  0.2711  0.1814
 5570W        W21754   3.830   0.329   2.542  0.1104  0.0208 -0.1756
 5571W        W21755   5.772  14.677   1.014 -0.0281  0.2200  0.0114
 5572W        W21756   2.238   5.141   3.400 -0.1924  0.2411 -0.0701
 5573W        W21757  17.518  12.154   2.032 -0.0045 -0.0068 -0.0140
 5574W        W21758   1.467   4.471   0.242 -0.0791  0.2695  0.0894
 5575W        W21759   9.112   9.220   6.595  0.1098 -0.0110  0.0273
 5576W        W21760  18.141   5.114  11.666 -0.2380 -0.0009 -0.1591
 5577W        W21761   1.199  15.145  13.896  0.0032 -0.2316  0.0035
 5578W        W21762  14.179  14.948   2.632  0.3071 -0.0019  0.2812
 5579W        W21763  16.088  15.251  14.961  0.0418  0.0120 -0.2705
 5580W        W21764   2.982   2.250   3.529 -0.0285  0.0191 -0.1422
 5581W        W21765  16.699   9.800   1.727  0.0905 -0.0912  0.1753
 5582W        W21766  16.331  14.008  12.685  0.1438 -0.4035 -0.0162
 5583W        W21767  14.626  15.218  16.639 -0.1124 -0.2133 -0.1406
 5584W        W21768   8.069  14.742  15.825  0.1714 -0.0699  0.2172
 5585W        W21769   0.544   5.593   5.861 -0.0215  0.1745 -0.0168
 5586W        W21770   6.331   7.242  15.854 -0.1960  0.1365  0.0543
 5587W        W21771   3.977  16.927   1.185  0.1273  0.0990 -0.0520
 5588W        W21772   5.177   0.878   1.362  0.1777  0.1579 -0.0867
 5589W        W21773  13.414   0.026  16.590  0.1813 -0.1420  0.2109
 5590W        W21774   0.535   4.667   4.958 -0.1161  0.1851 -0.2158
 5591W        W21775   9.519  13.660  15.547  0.0510  0.1579 -0.2067
 5592W        W21776  10.546   5.098  15.138 -0.4599  0.0762 -0.0832
 5593W        W21777  16.036   2.549  15.127  0.0551  0.1021  0.0115
 5594W        W21778  14.157  10.428  13.059  0.1972 -0.0861  0.1065
 5595W        W21779   3.437   3.675  13.006 -0.1850 -0.1472  0.0945
 5596W        W21780   3.511  15.036   1.851  0.2225 -0.0731 -0.1764
 5597W        W21781  17.472  14.838   3.427 -0.1142  0.1439 -0.1324
 5598W        W21782  16.635   3.821   9.326  0.2226 -0.0043  0.1303
 5599W        W21783  16.869  11.256  12.169 -0.2199 -0.1134  0.0215
 5600W        W21784   7.596   6.647   0.427  0.2417 -0.0826 -0.0035
 5601W        W21785   1.601   5.836  13.610  0.0790 -0.2811 -0.2704
 5602W        W21786  14.297  11.814   0.973 -0.0786 -0.1071  0.0892
 5603W        W21787   2.208  16.890   3.473 -0.2870  0.3213 -0.1141
 5604W        W21788   6.518   5.815  12.854  0.0097 -0.1297  0.0030
 5605W        W21789   1.924  11.714  12.910  0.2367  0.0953  0.0574
 5606W        W21790  15.411   8.571  15.863 -0.3417 -0.2947 -0.2568
 5607W        W21791   6.091   4.626  14.778  0.0206  0.1868  0.0358
 5608W        W21792   4.973   4.542  15.942 -0.0279 -0.0779  0.1942
 5609W        W21793   0.374   5.522   4.144  0.1960  0.1520  0.1409
 5610W        W21794  12.232   6.758  16.280  0.3654  0.4362  0.2012
 5611W        W21795   8.934  11.614  16.445  0.0166 -0.3343 -0.0847
 5612W        W21796  12.252   4.752  14.971 -0.0138  0.1218 -0.1758
 5613W        W21797   5.918  17.822  16.076  0.0340  0.0086 -0.3481
 5614W        W21798   8.014  16.283   0.429  0.0171 -0.1392  0.0380
 5615W        W21799   7.549   1.140  14.745 -0.3060  0.1206 -0.0064
 5616W        W21800  16.773   4.404  13.469  0.2175 -0.1163  0.0379
 5617W        W21801  12.184  16.829  16.100 -0.1672  0.2636 -0.0709
 5618W        W21802   9.908   0.238  11.902 -0.0080  0.0230  0.2369
 5619W        W21803   7.871  11.962   0.550 -0.1515 -0.0109  0.3296
 5620W        W21804   6.036  14.402  12.167 -0.1620  0.0950 -0.0679
 5621W        W21805  10.376  13.232   4.025  0.1809 -0.0797 -0.1125
 5622W        W21806  18.120   0.601   1.040  0.1197  0.0314  0.0563
 5623W        W21807   8.649   2.603   4.321 -0.0155 -0.0236  0.3521
 5624W        W21808  16.013  15.793  12.767 -0.0455 -0.1469 -0.4525
 5625W        W21809  15.444   8.236  12.433  0.0376 -0.1325  0.2899
 5626W        W21810  16.911  12.038  12.588 -0.0188 -0.2584  0.1576
 5627W        W21811  13.141  10.081  12.951 -0.3230  0.1292  0.0083
 5628W        W21812  11.607   0.086   4.363  0.0595 -0.2212  0.0538
 5629W        W21813  13.838   2.027  16.085 -0.0815 -0.1350 -0.2539
 5630W        W21814   8.319  17.928   0.989 -0.0224  0.2506  0.1991
 5631W        W21815   3.132  14.191  14.298  0.0375  0.1011  0.1079
 5632W        W21816   8.657   8.134  14.718  0.1078  0.1234 -0.0274
 5633W        W21817   8.553   5.862  16.638 -0.3569 -0.3287  0.1846
 5634W        W21818   5.083   6.247   0.912  0.1719 -0.1556  0.0856
 5635W        W21819  15.830  10.560  14.103  0.2687 -0.0662  0.1004
 5636W        W21820  16.221  16.465   0.367  0.4559  0.0323 -0.1306
 5637W        W21821  15.578   0.031  13.020 -0.0653  0.0477 -0.1037
 5638W        W21822   9.088  10.533  16.663 -0.3159  0.0536  0.3294
 5639W        W21823  15.500  16.388   4.842 -0.3765 -0.1909  0.0830
 5640W        W21824   8.416  10.414   4.695 -0.1053  0.2231 -0.2614
 5641W        W21825  16.440   6.774   2.158  0.0250 -0.0488 -0.1258
 5642W        W21826  16.708   2.872  13.388 -0.0177  0.0751  0.1554
 5643W        W21827  14.086   2.668  12.759 -0.0802 -0.0040  0.0660
 5644W        W21828   8.504   9.926  14.930 -0.4009 -0.0514 -0.2994
 5645W        W21829   5.713  13.616  15.873  0.2517 -0.0729 -0.0962
 5646W        W21830   6.250   7.336  13.646 -0.1500  0.0467  0.1195
 5647W        W21831   7.173  10.940  15.112 -0.2475  0.1855 -0.1217
 5648W        W21832   7.451   9.866  12.582  0.3822 -0.0055  0.1939
 5649W        W21833   5.909  13.868   1.991 -0.0325 -0.1040 -0.1494
 5650W        W21834  11.067   8.921  11.720 -0.0376 -0.0141  0.0641
 5651W        W21835  14.386   5.469  16.076  0.1471  0.0288 -0.0630
 5652W        W21836  10.239   2.334  13.083 -0.0154  0.2362 -0.1494
 5653W        W21837   1.406   3.363  12.654  0.1581 -0.4086  0.0703
 5654W        W21838   1.768  14.150   5.754 -0.2595 -0.0242  0.2263
 5655W        W21839   4.276   2.686  13.256  0.0591  0.0654 -0.0117
 5656W        W21840   9.638   8.301   4.625 -0.2413  0.3689 -0.0206
 5657W        W21841   6.182  14.297   2.153 -0.1907 -0.2027  0.1011
 5658W        W21842  11.360   3.011  14.429  0.1859  0.1255 -0.2143
 5659W        W21843  13.964   5.058   5.265  0.2404  0.1971 -0.0609
 5660W        W21844   6.918  10.465   4.069 -0.0410 -0.0108  0.2660
 5661W        W21845  10.599   2.631  12.949  0.1748  0.0170  0.1190
 5662W        W21846   5.063  14.851  15.920 -0.0264 -0.0827  0.1746
 5663W        W21847  14.787  16.952  16.555 -0.1014  0.0322  0.0698
 5664W        W21848   5.342   4.299   0.648 -0.1819 -0.1046 -0.3361
 5665W        W21849  16.288  10.294   5.338 -0.1473 -0.0305 -0.5020
 5666W        W21850  12.404   6.131   1.851 -0.1195  0.0338 -0.0753
 5667W        W21851  14.928   0.544  16.124  0.1440 -0.1227 -0.1379
 5668W        W21852   1.328   0.012  15.569  0.0179 -0.1034 -0.2437
 5669W        W21853  11.911  17.140  12.610 -0.0286 -0.2374 -0.1216
 5670W        W21854   4.472   9.143   1.023  0.0358 -0.1528 -0.2199
 5671W        W21855   5.381   3.148  12.073 -0.1470  0.2083  0.0087
 5672W        W21856  14.243   0.058  11.638 -0.1409 -0.0122  0.1723
 5673W        W21857   6.727  11.682   3.812 -0.0002  0.1647  0.0359
 5674W        W21858  14.989  15.650  15.292 -0.3102  0.1385 -0.2322
 5675W        W21859  16.322  13.896  16.446  0.0924 -0.1975  0.1200
 5676W        W21860   3.758  15.646  11.529  0.2161  0.0976 -0.5355
 5677W        W21861   9.568   2.798  12.876 -0.0951  0.4921  0.0287
 5678W        W21862  13.704  14.573   1.669 -0.3639 -0.1316 -0.2455
 5679W        W21863  11.077   6.167   4.755  0.2415  0.0191 -0.0824
 5680W        W21864  17.179  12.990  13.602 -0.0771 -0.0139  0.1874
 5681W        W21865  11.800   2.471  13.277 -0.1755  0.0153  0.0813
 5682W        W21866   7.912  15.579   0.136 -0.0784  0.1230  0.0481
 5683W        W21867  14.424   5.594  12.549 -0.2079 -0.1864 -0.2930
 5684W        W21868   7.172  14.310   1.176  0.3176 -0.0738 -0.1297
 5685W        W21869  16.792   8.983   4.274 -0.5636  0.1179  0.1511
 5686W        W21870  11.442   1.996   4.088  0.1406  0.2514  0.1219
 5687W        W21871   2.743  17.630   1.799  0.3319  0.0525 -0.1033
 5688W        W21872  16.274   8.612  11.074  0.0891  0.0741 -0.0494
 5689W        W21873  17.356  12.018  12.772 -0.1023  0.1688  0.2546
 5690W        W21874   8.902  13.738  12.541  0.1285 -0.0793 -0.2581
 5691W        W21875  12.362  16.527   3.573  0.1202 -0.0598  0.0362
 5692W        W21876  15.660  17.482   0.241 -0.2607 -0.2181 -0.0325
 5693W        W21877  11.000   4.248   3.001 -0.3459  0.1865 -0.0838
 5694W        W21878   1.133   2.848   2.407  0.0640  0.2916  0.2774
 5695W        W21879  15.683   2.347  12.994 -0.1349 -0.1101 -0.1037
 5696W        W21880   0.948  17.018   1.608  0.3011  0.2790 -0.1966
 5697W        W21881   1.195  18.098  15.094 -0.1252  0.0908  0.0766
 5698W        W21882  14.897  10.066  13.520  0.3977  0.0928  0.1555
 5699W        W21883  14.417  17.271   0.325 -0.1947 -0.0063  0.4140
 5700W        W21884  11.088   4.443   1.352 -0.0081 -0.0224  0.1563
 5701W        W21885  15.318   6.306   4.301  0.0918  0.3588  0.3643
 5702W        W21886   5.837   8.724   1.021 -0.2813  0.3082  0.0883
 5703W        W21887  17.660   7.812  12.458  0.0245  0.2163 -0.1088
 5704W        W21888   3.135  13.774   2.211 -0.2651  0.0149 -0.1454
 5705W        W21889   2.332  14.760  15.761 -0.1639  0.2719  0.0003
 5706W        W21890  15.749  12.565   1.804 -0.3583  0.3223 -0.0178
 5707W        W21891  10.675  10.336  14.995 -0.0687  0.3795 -0.2891
 5708W        W21892   0.873   2.134  14.961  0.1540 -0.1908 -0.3629
 5709W        W21893   2.566  17.005  13.883  0.1164 -0.1085 -0.0636
 5710W        W21894  14.533   1.918   3.212 -0.0075 -0.1116  0.2372
 5711W        W21895   0.331  14.128  16.652  0.4126 -0.0500 -0.1822
 5712W        W21896   0.588   3.487  15.722 -0.1301 -0.2056 -0.2369
 5713W        W21897  16.501  15.077  13.560 -0.0440 -0.0179  0.1194
 5714W        W21898   2.946  13.986   4.495 -0.1858 -0.3036 -0.0123
 5715W        W21899   6.752  17.901   3.582  0.0658 -0.2640 -0.3121
 5716W        W21900   2.544  10.476   0.778 -0.0493 -0.1319 -0.0381
 5717W        W21901  13.825   6.072   3.741  0.3922  0.1271  0.1036
 5718W        W21902   0.495   6.282   1.610 -0.1856  0.1073  0.3155
 5719W        W21903  11.853   7.215   3.445 -0.1088  0.0007  0.1404
 5720W        W21904   3.941  10.538   3.859 -0.2544  0.0153  0.4191
 5721W        W21905  15.100   7.578   3.009 -0.1287 -0.3010 -0.2925
 5722W        W21906  12.875  15.535   3.805  0.1865 -0.0406 -0.1340
 5723W        W21907   6.063   1.855   4.149  0.0990 -0.1742 -0.1930
 5724W        W21908  14.030   2.115  12.079 -0.0377 -0.1709  0.1684
 5725W        W21909  10.147   8.230   5.349  0.1404  0.1188  0.2328
 5726W        W21910   4.274   5.511  14.940  0.4861  0.0724  0.0388
 5727W        W21911   4.731   7.884   3.635  0.1396  0.0972  0.0786
 5728W        W21912  14.096   6.993  10.931  0.0811  0.0983  0.0568
 5729W        W21913   0.704   9.110  14.383  0.1954  0.2105  0.1204
 5730W        W21914  10.255  12.328   0.670 -0.1589  0.2051 -0.1581
 5731W        W21915   8.744   4.678   3.843  0.0501 -0.2944 -0.0614
 5732W        W21916  12.520  12.782  14.625  0.2119  0.1556  0.0947
 5733W        W21917  15.886   2.035  10.921  0.0770 -0.3761  0.1228
 5734W        W21918   3.829   0.386   1.917 -0.0601  0.3085 -0.2237
 5735W        W21919  12.652  16.019  11.529 -0.1978  0.1662 -0.2529
 5736W        W21920   4.094  16.862   4.001 -0.0482 -0.2447  0.3554
 5737W        W21921   8.871  14.195  15.985 -0.0386 -0.0337  0.5291
 5738W        W21922   6.171  11.237  16.235 -0.0549 -0.0538 -0.4838
 5739W        W21923   7.033   4.146  12.296  0.0807  0.3669 -0.2888
 5740W        W21924   2.427  12.551   0.792 -0.1278  0.0319  0.1863
 5741W        W21925   9.701   4.629   1.700  0.0928  0.0189  0.0166
 5742W        W21926   6.680  12.327  15.358 -0.0361  0.1178 -0.0247
 5743W        W21927  10.047  14.329  11.821  0.1932 -0.0682 -0.0610
 5744W        W21928  17.388   4.693   4.477 -0.0465  0.0826  0.0455
 5745W        W21929   8.855  15.272  15.277 -0.1724  0.2112  0.2340
 5746W        W21930  15.498   3.057  15.616  0.0134 -0.1209 -0.2485
 5747W        W21931   9.428   5.276   4.673  0.1240  0.1449 -0.2003
 5748W        W21932   8.503  14.016  12.668  0.0220 -0.0885 -0.1725
 5749W        W21933   9.674  17.638  15.386 -0.0765 -0.3864  0.0202
 5750W        W21934  17.799  15.884   5.325  0.1409  0.1322  0.1288
 5751W        W21935   0.930  13.652   1.592  0.2002 -0.0323  0.0762
 5752W        W21936   8.445  11.771   2.446  0.1691 -0.3745 -0.2610
 5753W        W21937  16.199   2.990   0.780 -0.0127 -0.2222  0.0238
 5754W        W21938  12.436  15.810  12.838  0.4465 -0.2520 -0.1319
 5755W        W21939   0.334  13.681  14.234  0.5702 -0.1392 -0.1946
 5756W        W21940  14.425  16.790   1.463  0.0145 -0.2590  0.1400
 5757W        W21941   8.939   1.589   3.946  0.2450  0.1442  0.0002
 5758W        W21942   4.674   8.239  13.207 -0.0647 -0.1870 -0.0936
 5759W        W21943  15.375   6.217  11.046 -0.1983  0.2160 -0.3267
 5760W        W21944   0.673  13.145  12.278  0.1743 -0.0579  0.4642
 5761W        W21945   2.165   4.267  11.911 -0.3940 -0.2417 -0.3130
 5762W        W21946   6.080  11.182  13.497  0.2754 -0.0288 -0.2061
 5763W        W21947   3.007  10.159  14.772 -0.0781  0.0779  0.1302
 5764W        W21948  13.710   9.807   1.280  0.3824 -0.1764 -0.1018
 5765W        W21949  13.431   0.116   5.907 -0.1516 -0.1543 -0.2077
 5766W        W21950   6.496  10.073   2.375 -0.1309  0.2000 -0.2969
 5767W        W21951  17.774   8.468   1.274  0.2005 -0.1779  0.3148
 5768W        W21952  17.958   8.114   5.667 -0.1776  0.0991 -0.1538
 5769W        W21953   7.413   5.340  12.383 -0.3023  0.0595 -0.2056
 5770W        W21954   7.160   0.617  13.925 -0.2072  0.1642  0.0692
 5771W        W21955   9.560  16.741   2.179 -0.0824  0.1239  0.2510
 5772W        W21956   5.021  12.706  14.071 -0.4639 -0.2850 -0.0456
 5773W        W21957   0.789   4.618   5.909 -0.0376  0.0157 -0.2336
 5774W        W21958   0.937  12.223   1.727  0.2981 -0.0104  0.5160
 5775W        W21959   9.753   6.629   4.628 -0.0044  0.2315 -0.2599
 5776W        W21960  16.432   2.448   4.993 -0.1042  0.0005 -0.0833
 5777W        W21961   9.135  16.723   5.550 -0.1242  0.0097 -0.1059
 5778W        W21962   2.114   3.351   0.454 -0.2433  0.2656 -0.0868
 5779W        W21963  14.153   4.182  10.450  0.3310  0.1252  0.0261
 5780W        W21964   2.300  11.828  13.430  0.0792 -0.3396 -0.0556
 5781W        W21965   8.570   4.050   0.012  0.0747 -0.1050 -0.0829
 5782W        W21966  17.389  16.832   2.709  0.5278 -0.2566  0.2204
 5783W        W21967   9.364   4.926  10.859  0.1462 -0.1894  0.2674
 5784W        W21968  12.213   8.511   5.829  0.0502  0.2082  0.0200
 5785W        W21969   5.618  15.441   1.008  0.0136  0.1020 -0.1503
 5786W        W21970  17.954   6.729  11.593 -0.0385  0.1484  0.0924
 5787W        W21971   4.797  13.600   0.788 -0.1645  0.3586  0.1235
 5788W        W21972  15.642  11.769   4.176 -0.1576  0.1395 -0.2817
 5789W        W21973   5.429   9.747   2.567  0.0845  0.2209 -0.1827
 5790W        W21974  11.389  17.352  14.417  0.1682 -0.0503 -0.1058
 5791W        W21975  15.493   4.137   0.899  0.2245 -0.4183  0.1563
 5792W        W21976  12.668   9.755   1.513  0.1382  0.1767  0.0076
 5793W        W21977   9.739   3.551  12.380 -0.1836  0.2233 -0.3541
 5794W        W21978   3.375  13.154   3.915  0.0747  0.2278  0.0391
 5795W        W21979   7.413  12.249   4.103 -0.1561  0.0649  0.0066
 5796W        W21980  14.858   6.705  15.073  0.0702 -0.3754 -0.0412
 5797W        W21981  17.183   3.689  13.626  0.1675  0.1361  0.0639
 5798W        W21982   0.542  10.572  12.794  0.1368  0.2151  0.0747
 5799W        W21983   6.326   5.917  14.923  0.0138  0.0337  0.0279
 5800W        W21984   9.032   2.863   5.824 -0.1958 -0.1600 -0.2563
 5801W        W21985   1.930  10.101  12.101 -0.0031 -0.0742 -0.0504
 5802W        W21986  16.161   6.487   1.847 -0.2181  0.0860 -0.0241
 5803W        W21987   8.647  14.020   3.302 -0.1846  0.1897  0.0483
 5804W        W21988  14.636  14.309   3.154 -0.2172  0.2076  0.1448
 5805W        W21989  11.131  16.072  13.804  0.0749 -0.1412  0.0149
 5806W        W21990  16.678   8.992  15.793 -0.0183 -0.2408  0.1190
 5807W        W21991   6.315   2.268  15.886  0.0524  0.4795  0.2477
 5808W        W21992   5.358  10.469  12.490 -0.1568  0.2211 -0.3425
 5809W        W21993  11.991   1.944  14.000 -0.1841  0.1633  0.2353
 5810W        W21994  14.775  17.793  15.858  0.0532  0.2828  0.0589
 5811W        W21995  13.716  17.416  12.494 -0.3201 -0.2564  0.2670
 5812W        W21996   6.260   0.230   4.950  0.1430  0.0035  0.3512
 5813W        W21997  13.152  16.106  11.544 -0.0639  0.2448 -0.1399
 5814W        W21998   5.829   0.681  15.966  0.0703 -0.2382  0.2221
 5815W        W21999   5.542   3.370  12.528  0.0157 -0.0333 -0.1667
 5816W        W22000   3.740   2.270  15.678  0.1240 -0.0797 -0.0428
 5817W        W22001   9.181  11.647   0.659  0.0432 -0.4072  0.0795
 5818W        W22002  14.427  13.688  12.639  0.4050  0.3777 -0.1360
 5819W        W22003  11.048  17.362   4.342 -0.2134  0.4112 -0.1775
 5820W        W22004   7.439   3.487  11.851  0.1729 -0.1611  0.0610
 5821W        W22005   1.106  13.768  13.628 -0.1683 -0.1441  0.0225
 5822W        W22006  15.858  14.851  14.711  0.3077  0.4331  0.1568
 5823W        W22007  14.038  11.496   0.727  0.0335  0.1278 -0.1377
 5824W        W22008   2.384  13.268   2.640  0.1028  0.0176 -0.0318
 5825W        W22009  17.205  16.966  14.394 -0.2624  0.2815 -0.0252
 5826W        W22010  18.090   3.793  13.927 -0.0395  0.1928 -0.2490
 5827W        W22011   3.877   5.129   0.517  0.1431 -0.0013 -0.2562
 5828W        W22012  14.806   8.533   1.461 -0.2500  0.0053  0.3366
 5829W        W22013  14.866   4.347   2.329  0.2309  0.3897 -0.1284
 5830W        W22014   5.304   6.551   2.529  0.1562 -0.1947 -0.0063
 5831W        W22015  13.893   2.263   4.270 -0.1771  0.1599  0.2293
 5832W        W22016  14.422   2.519   5.022 -0.0300  0.0308  0.0243
 5833W        W22017  17.079  11.851   0.218  0.3334 -0.0237  0.3637
 5834W        W22018  14.357   0.398  16.141  0.1301  0.0823  0.3259
 5835W        W22019  16.015  14.415   4.947 -0.1467 -0.0467 -0.1539
 5836W        W22020  12.461  13.841  12.771  0.0669 -0.0456  0.0485
 5837W        W22021   8.369  10.157   3.979  0.1343 -0.0869 -0.3114
 5838W        W22022   3.185   6.508   2.728 -0.0877 -0.2497  0.4150
 5839W        W22023  15.209   3.436   4.453  0.0712  0.2894 -0.0257
 5840W        W22024  15.237   1.614   0.988 -0.1130  0.2247  0.2305
 5841W        W22025  14.455  12.770   0.980  0.1353 -0.0960 -0.0646
 5842W        W22026   0.173   5.876   4.983 -0.2113 -0.2853  0.5389
 5843W        W22027   9.573   9.117  14.714 -0.1878 -0.1777 -0.0411
 5844W        W22028   3.516   3.164   5.996 -0.3106 -0.0344 -0.4710
 5845W        W22029  12.934   9.484  12.021  0.1351 -0.2980 -0.2109
 5846W        W22030  14.862   3.050  14.049 -0.3088 -0.0628 -0.0541
 5847W        W22031  17.394   4.212   4.027  0.1048 -0.1784  0.1196
 5848W        W22032   2.341   1.108   1.998 -0.1119 -0.1017  0.0313
 5849W        W22033   7.806   0.650  14.765 -0.1069  0.0188  0.2029
 5850W        W22034  13.443   1.704   1.430  0.0145 -0.1251  0.4357
 5851W        W22035   5.135  15.061  12.681  0.2573  0.0056  0.0862
 5852W        W22036  10.606   6.250  15.906  0.3485 -0.0283 -0.3227
 5853W        W22037   7.189   0.813   0.255 -0.2598  0.1220  0.0090
 5854W        W22038  15.610  14.543   5.712 -0.1585  0.1788  0.0326
 5855W        W22039   7.219  16.424   0.486 -0.0842 -0.1873 -0.0046
 5856W        W22040  10.535   4.040   0.608 -0.0873 -0.1064 -0.1672
 5857W        W22041   6.569  15.958   2.972 -0.0575 -0.0756  0.4014
 5858W        W22042  13.363  14.854  14.252 -0.2966 -0.0704  0.2445
 5859W        W22043  17.073   0.138   5.485  0.0378  0.0260  0.0075
 5860W        W22044  13.603   5.881   2.499  0.2155  0.2397 -0.2749
 5861W        W22045   8.031  11.218   5.415 -0.2300  0.1818  0.4723
 5862W        W22046  16.935   7.465  11.731 -0.0305  0.0027 -0.0070
 5863W        W22047   5.641  11.169   3.008  0.2264  0.2954  0.1355
 5864W        W22048   9.929   7.158  11.907  0.1629 -0.1067  0.0061
 5865W        W22049  17.102   9.321  13.995 -0.1745 -0.0907  0.2581
 5866W        W22050  15.317  15.010  15.477  0.4421  0.4985 -0.1069
 5867W        W22051   2.691  12.287  14.148 -0.2450 -0.0172 -0.0588
 5868W        W22052  10.285   6.611   0.564  0.1621  0.4084 -0.2492
 5869W        W22053   8.045   3.259   6.184 -0.2044 -0.0836  0.1882
 5870W        W22054  10.029   5.217  13.851 -0.1604 -0.0396  0.1109
 5871W        W22055   0.709   4.190  12.859 -0.2085 -0.0816 -0.0846
 5872W        W22056   3.968   1.115   0.815  0.1540 -0.4064  0.4060
 5873W        W22057   5.943  17.230   6.646 -0.1935 -0.2227 -0.3766
 5874W        W22058  10.594  12.616  16.064 -0.2717 -0.0065  0.1151
 5875W        W22059  14.274   1.506  13.796 -0.0562  0.0118 -0.0641
 5876W        W22060   3.764  12.804  16.584 -0.2349 -0.1520  0.1376
 5877W        W22061  10.859  10.619   5.466  0.0348  0.0194  0.2417
 5878W        W22062   9.360  12.709  14.212 -0.1090  0.0441 -0.0675
 5879W        W22063   4.816  14.491   4.140 -0.0098 -0.5304  0.2071
 5880W        W22064  16.933  13.793   0.909  0.0155 -0.0113  0.1645
 5881W        W22065  13.136   7.708   2.376 -0.3999  0.0036  0.0805
 5882W        W22066  14.504  17.897  13.956 -0.2675 -0.1200  0.1223
 5883W        W22067   6.695   6.421  15.535 -0.1829 -0.0395 -0.0067
 5884W        W22068   6.167   5.125  16.007 -0.0194  0.4858  0.0121
 5885W        W22069   6.879   3.235   2.414  0.1067 -0.0482  0.0651
 5886W        W22070  11.739  18.079  12.195  0.3748 -0.1669 -0.3488
 5887W        W22071  12.955  12.561   2.481  0.0192 -0.1158  0.1390
 5888W        W22072   2.780   3.011  11.009  0.1110 -0.2352 -0.0293
 5889W        W22073  16.118  10.740   1.098 -0.0087 -0.1135  0.4552
 5890W        W22074  12.918   0.684   5.607 -0.1693 -0.0018  0.0208
 5891W        W22075  15.415   7.252  12.442 -0.0668 -0.1315  0.3753
 5892W        W22076   3.862  14.978  13.309 -0.0756 -0.1684 -0.1113
 5893W        W22077  16.555   4.278   2.058  0.4615  0.1766 -0.0230
 5894W        W22078   8.304   7.458  11.724 -0.2900 -0.1702  0.0770
 5895W        W22079  15.383   5.996   2.413  0.2194  0.1019 -0.2701
 5896W        W22080  12.838  10.698   4.138  0.0419  0.4099  0.0135
 5897W        W22081  15.617   1.481   3.632 -0.1033  0.2013 -0.1948
 5898W        W22082   4.590   1.170   4.797  0.2912  0.0253  0.2529
 5899W        W22083  10.088  17.475   0.758 -0.1228  0.3432  0.1674
 5900W        W22084  16.864  10.263   5.098 -0.0038  0.4128  0.2186
 5901W        W22085  10.626  17.546  13.918 -0.1631 -0.0172 -0.0265
 5902W        W22086   2.617  17.439  15.439 -0.0083  0.2214  0.0325
 5903W        W22087   0.182   1.639   0.668 -0.1342  0.2543 -0.1940
 5904W        W22088  14.158   1.489   4.926 -0.1415  0.1112  0.1023
 5905W        W22089   1.599   8.189  14.855  0.1892  0.5477  0.2266
 5906W        W22090   1.654   1.563   3.111  0.1665  0.2310  0.1439
 5907W        W22091  13.383   3.099   1.049  0.2198  0.0780 -0.0080
 5908W        W22092  15.886   9.442   4.018  0.0702 -0.1023 -0.0422
 5909W        W22093  14.772   6.258   1.083 -0.1199  0.0225  0.0950
 5910W        W22094   2.515  10.630  13.955 -0.0366 -0.2309 -0.2663
 5911W        W22095  15.049   2.871   0.760  0.2542  0.0838 -0.0138
 5912W        W22096  17.655  14.865  16.339 -0.1319  0.1607 -0.0907
 5913W        W22097  17.942   2.599   2.535  0.0226 -0.1250  0.1432
 5914W        W22098   5.655   4.366  14.552  0.0941 -0.1602 -0.1491
 5915W        W22099   2.601   6.121  12.417 -0.1603  0.1732  0.0789
 5916W        W22100   5.978   0.393   3.529 -0.5244  0.0662  0.0197
 5917W        W22101   2.476   5.762   4.079  0.0496 -0.2222 -0.1833
 5918W        W22102   6.462  12.563  14.674 -0.0068  0.2549  0.0561
 5919W        W22103   3.832  11.283  11.978  0.0149 -0.5143 -0.0636
 5920W        W22104  17.804  15.692  16.503 -0.1654 -0.1364 -0.0544
 5921W        W22105   2.384   4.737  11.598 -0.0853 -0.1193 -0.1559
 5922W        W22106  15.817   0.404  13.318  0.1423 -0.1450 -0.1288
 5923W        W22107   3.770   4.603  13.204 -0.0746  0.3427 -0.0270
 5924W        W22108   2.146  15.729  13.513 -0.0801 -0.0876 -0.1315
 5925W        W22109   5.815  11.546  13.899  0.0396 -0.2401 -0.1114
 5926W        W22110  10.903   5.228   2.979  0.1719 -0.0154 -0.1264
 5927W        W22111  10.300   3.723   5.754 -0.2461 -0.4371  0.2736
 5928W        W22112   2.402   6.771  11.407  0.2477  0.0991 -0.1566
 5929W        W22113   3.683   0.223  13.183  0.0313  0.0902  0.1614
 5930W        W22114  13.076   4.915   4.817  0.0972  0.2893 -0.1731
 5931W        W22115   6.887   6.677   4.894  0.0897 -0.0236  0.1322
 5932W        W22116  10.494   1.670   1.794  0.5703  0.2469 -0.0521
 5933W        W22117   0.833   4.627  11.634  0.0857 -0.1770  0.0019
 5934W        W22118   8.789   4.080   5.085 -0.0308  0.0099  0.0916
 5935W        W22119  14.377   2.587  12.350  0.3791 -0.0852 -0.3531
 5936W        W22120   2.392   3.369  11.069  0.1784 -0.1713 -0.0677
 5937W        W22121  12.933   9.595  15.353  0.0710  0.1655  0.2394
 5938W        W22122   7.455  17.880   0.573 -0.2491 -0.1043 -0.1182
 5939W        W22123  15.113   9.972   0.337 -0.4447 -0.0694 -0.1104
 5940W        W22124  11.682   6.780   1.366 -0.1359 -0.1750 -0.2392
 5941W        W22125   7.376  10.876  16.312  0.1549 -0.0556  0.2537
 5942W        W22126   2.401  15.260  15.749 -0.2584  0.0969  0.0535
 5943W        W22127   5.052   9.521  12.727 -0.0716 -0.1119 -0.2140
 5944W        W22128  12.617  12.426  13.906 -0.0864  0.0462 -0.2085
 5945W        W22129   9.321  16.675  10.517 -0.0471 -0.0621 -0.3281
 5946W        W22130  17.933   0.167  13.019 -0.1690 -0.0481 -0.0590
 5947W        W22131  11.446  12.074  15.279 -0.3760  0.2773 -0.0002
 5948W        W22132   2.073  10.177   4.713  0.3020 -0.1482  0.2113
 5949W        W22133   6.291   1.422   1.013  0.0563 -0.1327  0.0185
 5950W        W22134   7.725   7.813  13.864 -0.1551  0.0572 -0.0262
 5951W        W22135   0.738  12.288   0.440  0.3946 -0.2511 -0.3957
 5952W        W22136   0.380  17.162  13.250 -0.0514  0.2760  0.2643
 5953W        W22137  15.923   7.199   2.697 -0.0326  0.1651 -0.1221
 5954W        W22138  12.120  14.256  12.797 -0.3552 -0.0783 -0.0674
 5955W        W22139   4.400   2.715  14.241 -0.0951  0.1626 -0.1675
 5956W        W22140   1.364   6.471  16.289  0.0021 -0.4893 -0.1873
 5957W        W22141  17.352  12.124   5.014 -0.2790  0.0577 -0.1116
 5958W        W22142   0.077  10.255  15.860 -0.2008 -0.1035 -0.1453
 5959W        W22143   3.953  17.880  11.644  0.1105 -0.1441  0.1748
 5960W        W22144   8.114  14.293  15.572 -0.0212  0.0583 -0.0040
 5961W        W22145  17.539   8.794   4.999 -0.1153  0.1119 -0.2008
 5962W        W22146   4.798  10.832  15.165 -0.0700 -0.0445  0.4261
 5963W        W22147   8.452   3.774   4.300  0.0548 -0.0723  0.3585
 5964W        W22148   3.393  14.905  15.978  0.0516 -0.1677  0.0015
 5965W        W22149  12.707  12.332  14.744  0.2192  0.0466 -0.0773
 5966W        W22150   4.197  15.687   1.764 -0.1047  0.4060 -0.2516
 5967W        W22151  12.470  12.018   2.927  0.0632  0.0653 -0.0317
 5968W        W22152  17.229   5.436   1.633  0.0208  0.0137  0.1509
 5969W        W22153  14.909   3.993  14.907  0.3261  0.0929 -0.0219
 5970W        W22154   3.968   1.687  14.947  0.2896  0.1458 -0.2018
 5971W        W22155   7.963   5.068  15.365 -0.0339  0.0492 -0.0705
 5972W        W22156  13.663  17.735  16.460 -0.0211 -0.1442 -0.0058
 5973W        W22157  12.829   4.309   3.916  0.2227 -0.1418 -0.1821
 5974W        W22158   6.076   1.383  15.389 -0.0242  0.2229  0.0416
 5975W        W22159   2.365   6.298  14.546  0.1345 -0.1824 -0.0044
 5976W        W22160   1.625  10.251  11.728 -0.0526 -0.4017  0.4200
 5977W        W22161  14.024   8.241   3.206  0.2730 -0.1810  0.0699
 5978W        W22162   9.609  15.852  15.802  0.2137  0.2059  0.1641
 5979W        W22163   3.177  11.461  15.586 -0.0162  0.0237  0.1360
 5980W        W22164   3.691   0.632  14.038 -0.0482  0.2275 -0.0832
 5981W        W22165   3.892  14.836  11.984  0.2055 -0.0511  0.3791
 5982W        W22166   8.434   2.487  14.169 -0.0373 -0.0406  0.0240
 5983W        W22167  10.908   5.931  15.648  0.2968  0.2464  0.2713
 5984W        W22168   2.132   8.207   1.039 -0.1402 -0.0368  0.1627
 5985W        W22169   6.250   4.912   0.986  0.0371  0.0546  0.2246
 5986W        W22170  12.332   8.929  12.352 -0.0606 -0.1179  0.2828
 5987W        W22171  10.116   1.567   0.010 -0.1810 -0.1395  0.1173
 5988W        W22172   7.645  17.301  15.124 -0.2084 -0.1916 -0.0495
 5989W        W22173   7.533  13.801  14.712  0.2122 -0.5202  0.2632
 5990W        W22174  14.912   8.407  11.286 -0.0115  0.0380  0.2872
 5991W        W22175   8.696   3.611   4.818 -0.1264  0.1555 -0.1071
 5992W        W22176   9.552   7.855  14.361  0.0874  0.0985 -0.0248
 5993W        W22177  16.241  11.182   1.189 -0.2938 -0.1708  0.2785
 5994W        W22178   4.045  15.915   1.395 -0.0956  0.2114 -0.1119
 5995W        W22179  15.924  10.451   2.919  0.0016 -0.0513 -0.1947
 5996W        W22180  14.233  15.929  15.652  0.1363 -0.2347  0.2451
 5997W        W22181  12.872   6.174   4.003  0.0162 -0.2807 -0.1602
 5998W        W22182  14.745   9.067  14.393  0.0234 -0.2228 -0.1031
 5999W        W22183  12.642  13.274   1.287  0.0849  0.0198  0.0271
 6000W        W22184   0.471   0.073   2.882 -0.0533  0.0241  0.2297
 6001W        W22185   1.804   6.803   4.000 -0.0280 -0.2295  0.0774
 6002W        W22186   1.005   3.442  11.640 -0.1860  0.2001 -0.1999
 6003W        W22187   9.681   1.870  14.387  0.3647  0.4010 -0.2140
 6004W        W22188   3.987   1.305   1.354 -0.2984  0.2539 -0.0045
 6005W        W22189  18.018  13.490   0.639  0.0682 -0.1142 -0.1970
 6006W        W22190   5.420   8.909  14.966  0.2034 -0.0486  0.2892
 6007W        W22191   8.137   5.391   4.869 -0.0926  0.0385 -0.1014
 6008W        W22192   1.123   9.743  16.523 -0.0732  0.0664 -0.2605
 6009W        W22193  10.165   5.378  12.716  0.0400 -0.1366 -0.3156
 6010W        W22194  11.783   3.726  16.337 -0.1007 -0.1079  0.0124
 6011W        W22195  15.347  12.001   2.396 -0.0915  0.0819 -0.1883
 6012W        W22196  16.763   7.868  16.528  0.0742  0.1761 -0.0886
 6013W        W22197  13.862   6.946   3.272  0.1498 -0.1894 -0.0754
 6014W        W22198  16.550   9.867   2.861 -0.1486  0.0423  0.2095
 6015W        W22199  14.248   5.160  14.246 -0.0691  0.1415 -0.2366
 6016W        W22200   1.520  17.247   4.078 -0.3596  0.3545 -0.4147
 6017W        W22201  18.133  13.593   4.755 -0.0855 -0.0122 -0.0968
 6018W        W22202  15.661   1.672   0.207 -0.0637  0.1622  0.2790
 6019W        W22203  11.797   1.795   3.688 -0.0930  0.1347  0.0986
 6020W        W22204   8.492  12.825   1.680  0.4665 -0.0597 -0.2335
 6021W        W22205   6.220   1.295   1.854 -0.3077  0.0225 -0.0101
 6022W        W22206   2.682   2.057  14.190  0.2288  0.2142  0.0377
 6023W        W22207   4.358   3.598   4.525 -0.0970 -0.4096 -0.2816
 6024W        W22208  17.725   6.753  15.534 -0.2898  0.3397 -0.6875
 6025W        W22209   9.773  11.657  12.692 -0.0020  0.1321 -0.1763
 6026W        W22210   7.594  10.118   3.465 -0.0171  0.4007 -0.1317
 6027W        W22211   1.966  14.540  12.895 -0.1982  0.3091 -0.1224
 6028W        W22212  13.003   0.887   4.417  0.1691  0.0919  0.2206
 6029W        W22213  13.613  16.880  13.347 -0.0752  0.0650  0.2139
 6030W        W22214  12.975   2.623   3.626 -0.0633  0.1579  0.2109
 6031W        W22215   0.641   6.302   2.585  0.0404 -0.0066 -0.0599
 6032W        W22216  15.444  11.674   1.926  0.0055  0.2415 -0.0886
 6033W        W22217  10.348  15.054   5.814 -0.0047  0.2159 -0.1215
 6034W        W22218   1.254  13.762   5.807  0.0934 -0.3082  0.0453
 6035W        W22219  10.704  16.007   4.049 -0.0245  0.2165  0.2529
 6036W        W22220   8.523   8.491   6.396 -0.2748  0.0884  0.0864
 6037W        W22221   5.089   4.948  11.973  0.1413 -0.1704  0.1839
 6038W        W22222  12.454   7.060  12.718  0.5907 -0.2937 -0.0908
 6039W        W22223   2.108   2.846   3.008  0.3644 -0.0936  0.1323
 6040W        W22224   7.243  12.153   3.104 -0.2768  0.0550 -0.0114
 6041W        W22225  13.224   6.675   4.523  0.1678  0.4293 -0.1732
 6042W        W22226  15.309   2.178  16.180 -0.2167  0.0802  0.1245
 6043W        W22227  16.781   8.237  12.319 -0.0883  0.2197  0.0574
 6044W        W22228   8.480   2.825  15.022 -0.1332 -0.0312 -0.2748
 6045W        W22229   7.209   5.212   0.608 -0.1083 -0.0771  0.1344
 6046W        W22230   8.555  11.808  14.193 -0.2252 -0.1542 -0.1341
 6047W        W22231   6.014   3.822   5.127 -0.0093  0.1182 -0.0945
 6048W        W22232  15.134  13.201   3.508 -0.1165 -0.1824 -0.1589
 6049W        W22233  10.322   6.820  11.832 -0.1452 -0.0497  0.0355
 6050W        W22234  17.394   0.997  15.649 -0.0722 -0.1154 -0.2817
 6051W        W22235  14.855   9.889  16.480  0.0257  0.1691 -0.1066
 6052W        W22236  11.709   9.267  15.661 -0.3942 -0.1359  0.1960
 6053W        W22237   4.144  15.475   4.743  0.0715 -0.0700 -0.1579
 6054W        W22238   2.399   5.393  15.568  0.2142 -0.1219  0.3086
 6055W        W22239   4.563   8.306   3.384 -0.1052  0.0470  0.1199
 6056W        W22240  11.430   2.703  10.953  0.1381 -0.0377 -0.1138
 6057W        W22241  15.526   7.170  15.450 -0.4246 -0.0478 -0.0941
 6058W        W22242   9.030  16.060   4.185  0.2829  0.2668  0.1654
 6059W        W22243   3.646   7.594   2.616 -0.1529 -0.1898  0.0751
 6060W        W22244  13.783  16.282   4.926  0.3124 -0.2285  0.2892
 6061W        W22245   0.672   6.873  10.648 -0.3877 -0.1058 -0.1301
 6062W        W22246  16.978  13.692   4.523  0.1310  0.0991  0.1613
 6063W        W22247   7.561  17.738  15.348  0.0219 -0.2319  0.2557
 6064W        W22248   0.261  17.932   4.488 -0.4822 -0.2083  0.1092
 6065W        W22249   9.312   4.879  15.988  0.1644  0.0181  0.0000
 6066W        W22250  16.327   8.557  15.955 -0.0454  0.0669 -0.1156
 6067W        W22251   4.639  16.327   3.652  0.2319  0.0399  0.0974
 6068W        W22252   2.966   1.959   1.868  0.0338 -0.1347  0.0786
 6069W        W22253   5.506   1.097   4.129  0.4031 -0.1807 -0.1921
 6070W        W22254  15.569  10.979  16.555 -0.2364 -0.1180  0.0091
 6071W        W22255   6.577  13.629  13.970  0.1957  0.0680 -0.3847
 6072W        W22256  17.112  10.018  16.622 -0.0188  0.0409  0.0701
 6073W        W22257  17.015   3.078  14.979  0.1194 -0.1831  0.0641
 6074W        W22258  15.231   3.837  11.927  0.3065 -0.0861  0.0843
 6075W        W22259   0.650  16.409  12.542  0.0377 -0.1672  0.2122
 6076W        W22260   5.763   5.017  14.662 -0.3464 -0.0510 -0.0199
 6077W        W22261   0.917  17.760  13.414 -0.2511  0.1536  0.3186
 6078W        W22262  10.812  15.650   1.043 -0.1487 -0.1688  0.1505
 6079W        W22263  16.227   7.342  13.911  0.1737 -0.0512 -0.1410
 6080W        W22264   2.671   9.862  12.932  0.0105 -0.1447 -0.2070
 6081W        W22265   4.978   6.359   6.520  0.1163  0.1784 -0.0855
 6082W        W22266  11.393  14.141   4.653  0.3008 -0.2328  0.4139
 6083W        W22267   5.846  16.640  16.680  0.3786 -0.3032 -0.0904
 6084W        W22268  12.062   8.712   0.454 -0.1729  0.0376  0.0403
 6085W        W22269  14.511   5.751   2.277 -0.1129 -0.0964  0.1518
 6086W        W22270  10.993  13.449  15.844  0.0213  0.1566 -0.2064
 6087W        W22271   5.006   8.278   4.585  0.1994  0.1055 -0.2837
 6088W        W22272  10.296   1.017  11.844 -0.1432 -0.2715 -0.1378
 6089W        W22273  15.961   1.884   0.493 -0.0490 -0.0240  0.0015
 6090W        W22274   6.163   1.403  14.466 -0.0908 -0.1151 -0.0199
 6091W        W22275   4.619  11.476  14.505  0.0461  0.1258  0.0458
 6092W        W22276  17.795   1.891   4.452 -0.0168 -0.0902  0.1272
 6093W        W22277  17.287  10.476   3.071 -0.1709 -0.1912  0.3108
 6094W        W22278   1.115   7.406  12.925  0.2301 -0.1357  0.0439
 6095W        W22279   9.301  14.310   5.735  0.5025  0.0059 -0.0887
 6096W        W22280   0.812   1.839   4.016  0.1587 -0.0513 -0.1845
 6097W        W22281   9.181   5.915   3.424 -0.1765  0.1434 -0.0084
 6098W        W22282   2.123   3.996   5.507 -0.1595  0.0362 -0.1693
 6099W        W22283   5.939   4.659  14.203  0.2221  0.1102  0.3253
 6100W        W22284   2.120   5.086   0.722 -0.1204  0.5239  0.1677
 6101W        W22285  10.005   7.936   3.199 -0.3534 -0.2728 -0.1474
 6102W        W22286   9.126  13.373   1.054  0.1824 -0.0849 -0.4245
 6103W        W22287   0.621  18.046   0.658  0.4946  0.1056  0.0022
 6104W        W22288   3.087  14.918  15.049  0.0803  0.2060 -0.2047
 6105W        W22289  17.710   3.966   1.572 -0.2084  0.2362  0.0181
 6106W        W22290   4.913   1.025   3.789 -0.1782 -0.2606  0.1071
 6107W        W22291  15.466  11.466   4.638 -0.2809 -0.3267  0.0140
 6108W        W22292   9.679   6.989   0.020 -0.0056 -0.1795  0.0209
 6109W        W22293  15.679   2.799   3.091 -0.0058  0.1605  0.0830
 6110W        W22294  16.843   4.115   4.078 -0.0492 -0.1422 -0.1376
 6111W        W22295   4.753  12.642  11.928  0.1676 -0.1280  0.1354
 6112W        W22296  14.465  13.416   4.049 -0.0249 -0.3226  0.1679
 6113W        W22297   9.310  15.018  12.893 -0.0632  0.2263 -0.1091
 6114W        W22298   2.835   2.859  11.514  0.0343 -0.1551  0.0950
 6115W        W22299   2.233   0.520   4.876  0.0515 -0.3260  0.0529
 6116W        W22300  10.152  10.955   0.175  0.0895  0.2836 -0.0547
 6117W        W22301  13.472   6.864   2.011  0.0058  0.0034  0.0363
 6118W        W22302  11.488  11.248  13.002 -0.0190  0.0356  0.2149
 6119W        W22303   9.032   1.139   2.091  0.0195 -0.1687  0.1613
 6120W        W22304  12.738   4.781   3.792 -0.1823 -0.0930 -0.0562
 6121W        W22305  17.721   1.337   1.843  0.2652 -0.3160  0.1379
 6122W        W22306   2.335   0.970  12.012  0.2005  0.0875  0.0388
 6123W        W22307   1.164   4.822  11.203 -0.1841  0.3249  0.4536
 6124W        W22308  18.016   7.146   0.673  0.2985  0.2063 -0.0904
 6125W        W22309  17.537   7.898   0.318 -0.0246 -0.1063 -0.1318
 6126W        W22310   4.243  16.156  14.187  0.0737  0.4024 -0.4285
 6127W        W22311  10.516  10.760   1.057 -0.2493  0.3221  0.0353
 6128W        W22312   7.129   1.800  15.399 -0.1528 -0.3124  0.0130
 6129W        W22313  14.621  12.960   0.329 -0.2104 -0.2963 -0.1625
 6130W        W22314  11.959  15.088   2.501 -0.2777  0.0685  0.1617
 6131W        W22315  10.493  17.260  15.967  0.2184 -0.0807 -0.0694
 6132W        W22316  16.681  10.771  14.485 -0.2595  0.1289  0.0639
 6133W        W22317  10.535   9.592  11.748  0.0399 -0.2218  0.3369
 6134W        W22318   3.446  17.326  14.036  0.0121 -0.3232  0.0894
 6135W        W22319  13.730   9.911   5.143  0.0528 -0.1737 -0.1351
 6136W        W22320   3.693   6.586   4.620 -0.1250 -0.0937 -0.0297
 6137W        W22321   9.411  15.992  14.330 -0.0531 -0.0168 -0.1411
 6138W        W22322   3.661  13.273  13.593  0.1643  0.0938  0.0107
 6139W        W22323   4.522  14.695   1.558  0.1823 -0.1366  0.0223
 6140W        W22324  17.150  16.955   0.327 -0.0885 -0.2047 -0.2161
 6141W        W22325  11.340   7.610  12.661 -0.0392 -0.0456 -0.0828
 6142W        W22326   8.209  17.444  15.253  0.3671  0.1466  0.0782
 6143W        W22327  16.461   7.163  12.255 -0.0487 -0.4303 -0.2858
 6144W        W22328  10.243  12.275  16.114  0.0150  0.0647 -0.0075
 6145W        W22329  16.689   3.293  13.656  0.0427  0.3452  0.0418
 6146W        W22330   4.950  15.977  13.016 -0.1105 -0.1779  0.0436
 6147W        W22331   2.271  14.413  13.502 -0.0783 -0.3879  0.2394
 6148W        W22332   4.203  18.019   1.223 -0.0634  0.0178 -0.0139
 6149W        W22333   1.491  13.500  14.712  0.0140 -0.0118 -0.4633
 6150W        W22334  16.795  14.492   5.797  0.2031  0.1385 -0.2027
 6151W        W22335  15.541  10.077   2.724  0.0175  0.0494  0.0110
 6152W        W22336   8.044   3.911   2.938 -0.0053 -0.0610  0.0858
 6153W        W22337   6.138   1.664  13.884 -0.0186  0.1143  0.1910
 6154W        W22338   4.157   3.360  11.306  0.0970 -0.0434 -0.1412
 6155W        W22339  16.207  15.216   1.055  0.0058  0.1630  0.2968
 6156W        W22340  13.531   6.311  12.587 -0.1877 -0.1732  0.2565
 6157W        W22341  13.215   4.836  13.800 -0.0583 -0.0954 -0.0915
 6158W        W22342   4.139   9.020   5.353  0.2030  0.1676 -0.1622
 6159W        W22343   8.293   0.015  11.924 -0.1399 -0.0944 -0.4447
 6160W        W22344  16.011   6.277   3.234  0.0602 -0.0854  0.1774
 6161W        W22345  13.941  16.674  11.249  0.0481 -0.1486  0.1389
 6162W        W22346  10.674  11.449  12.425 -0.0354  0.1004  0.2485
 6163W        W22347   7.478  17.165  11.655  0.0852  0.1317  0.1266
 6164W        W22348  10.595  14.379  11.868 -0.0456  0.0027  0.2888
 6165W        W22349   1.436  10.745   5.107 -0.0638  0.1265 -0.3821
 6166W        W22350   7.809  16.305  13.446  0.0407  0.1115  0.0204
 6167W        W22351   1.396   7.404   4.924  0.2457 -0.0023  0.6158
 6168W        W22352  16.528  12.143   3.167  0.1190  0.0036 -0.1113
 6169W        W22353  11.762   3.552  15.366  0.3089  0.1320 -0.3021
 6170W        W22354  17.891   3.983   2.619 -0.0350  0.1138  0.1180
 6171W        W22355   3.596  10.565  14.018  0.1801 -0.0841 -0.4113
 6172W        W22356   1.604  11.753   4.193 -0.0883 -0.3624  0.0451
 6173W        W22357   1.962   7.943   3.241 -0.0974  0.1371  0.1173
 6174W        W22358   5.270  15.625  12.810  0.0932  0.1402  0.4613
 6175W        W22359  10.300  11.352  14.483  0.0710  0.1222 -0.0378
 6176W        W22360   9.402   1.693  12.432 -0.0735  0.1041  0.1653
 6177W        W22361  10.223   5.730  16.521  0.2706 -0.1317 -0.0472
 6178W        W22362   7.836   2.264   2.298 -0.0485  0.1204  0.0112
 6179W        W22363   8.378   9.281  15.509  0.2214 -0.0745 -0.3375
 6180W        W22364   1.923  14.359   0.651 -0.2295 -0.0917 -0.1314
 6181W        W22365   1.004  10.099  14.305 -0.1411 -0.1287  0.2980
 6182W        W22366   5.836   7.250  12.918  0.2379 -0.0474 -0.3964
 6183W        W22367   3.883   4.022   5.764 -0.1439 -0.4030  0.1131
 6184W        W22368  14.823  11.075  12.202  0.1525  0.0395  0.2132
 6185W        W22369  10.259   0.710   3.303 -0.2005 -0.1783 -0.0519
 6186W        W22370  16.273  16.166   4.937  0.0546 -0.0557 -0.1354
 6187W        W22371   0.541   3.079  15.421 -0.1768  0.1784  0.1722
 6188W        W22372   4.802   7.283  10.623 -0.0277 -0.0482  0.3596
 6189W        W22373   3.148  11.433  12.335  0.0737  0.0174 -0.0422
 6190W        W22374   3.290   3.796  10.772 -0.2734  0.0360  0.0979
 6191W        W22375   6.888  15.018   2.567  0.0139  0.1793  0.1447
 6192W        W22376  12.737   9.595  11.550  0.0872 -0.0404  0.0658
 6193W        W22377   0.987  14.245   0.430  0.1405  0.0894 -0.0665
 6194W        W22378  12.341   8.907  14.290 -0.1049  0.2139  0.0899
 6195W        W22379   0.988  15.947  12.745 -0.0324 -0.3025  0.0569
 6196W        W22380   3.800  12.938   2.122  0.0528  0.0069  0.1339
 6197W        W22381   3.633  11.745  15.651  0.0096 -0.2143 -0.0861
 6198W        W22382  16.795  10.858   0.281  0.1044  0.1076 -0.1460
 6199W        W22383  10.970   0.046   1.743 -0.1468 -0.0347  0.0953
 6200W        W22384  11.228   2.363   0.330  0.2041  0.0563  0.2019
 6201W        W22385   7.340   8.179  13.158  0.2818 -0.1564  0.0460
 6202W        W22386   8.522   8.363  12.042  0.0951 -0.0331 -0.1439
 6203W        W22387  10.748   8.999   4.019 -0.0135 -0.0170 -0.0211
 6204W        W22388   4.127   2.820  16.194  0.0459 -0.0412  0.0575
 6205W        W22389  17.400  15.170  16.642  0.1465  0.0647  0.0789
 6206W        W22390   0.271   1.071   3.379  0.2607  0.0676  0.1622
 6207W        W22391  11.914  12.117   1.917 -0.0779  0.0060 -0.1007
 6208W        W22392   6.287   1.033  14.153  0.1697  0.0301  0.0645
 6209W        W22393   6.024   4.734   5.358 -0.2315 -0.1867 -0.0708
 6210W        W22394   7.282   7.393  16.628  0.1618 -0.0791  0.0434
 6211W        W22395  14.243   3.370   5.156  0.0913 -0.1220 -0.0994
 6212W        W22396  16.925  11.227  15.149  0.1572  0.0372 -0.2594
 6213W        W22397   6.383  14.704   2.663  0.1649  0.5405 -0.1693
 6214W        W22398   5.650   2.407  13.741 -0.0212 -0.0068  0.1632
 6215W        W22399   9.311  11.250  14.494  0.1246  0.0497  0.1435
 6216W        W22400   9.175  13.540   5.289  0.2167  0.0064  0.0437
 6217W        W22401  10.482   3.773  14.568 -0.0982  0.0371 -0.1388
 6218W        W22402  10.662   0.870  12.190 -0.2228 -0.1961  0.2140
 6219W        W22403  15.717   9.011   0.433  0.0486 -0.1938  0.2532
 6220W        W22404   4.058   6.244   2.812 -0.0227  0.1957  0.0963
 6221W        W22405  16.800   7.188   3.726 -0.5365 -0.1217 -0.0380
 6222W        W22406   3.040   8.989  10.881  0.0335 -0.2976  0.2310
 6223W        W22407  12.496   6.516   4.927  0.1498  0.1921 -0.2191
 6224W        W22408  10.017  14.008   3.854 -0.2569 -0.0569  0.0725
 6225W        W22409  10.694  14.367   5.001  0.2705 -0.0319 -0.0789
 6226W        W22410   0.944  13.615   2.344 -0.0006 -0.0640 -0.0882
 6227W        W22411  13.769   2.188   5.331 -0.0270  0.4238 -0.3819
 6228W        W22412  12.000   2.818  12.832  0.0788  0.1832 -0.0596
 6229W        W22413   2.049  15.606  11.676 -0.2296 -0.0737  0.3002
 6230W        W22414   3.440   2.343   2.712 -0.1437 -0.3623 -0.0623
 6231W        W22415   5.377   6.355  16.113 -0.0408 -0.3684  0.0652
 6232W        W22416   0.431   5.427  16.278  0.3296  0.0417 -0.2313
 6233W        W22417  11.517   2.278  12.561  0.1389 -0.0791  0.0180
 6234W        W22418  10.068   6.810  15.738 -0.0787 -0.1076 -0.1733
 6235W        W22419   4.824  12.263   3.583  0.2352 -0.1550  0.0290
 6236W        W22420   3.218  12.976  11.685 -0.1607  0.0558  0.1919
 6237W        W22421  17.850   2.670  10.611 -0.1031  0.0449  0.1552
 6238W        W22422  17.752   6.628  13.512  0.1779 -0.0559  0.2454
 6239W        W22423  17.310  11.697  14.840 -0.0691  0.1105 -0.1104
 6240W        W22424   6.826   5.306  12.068 -0.0487  0.1387  0.3337
 6241W        W22425   6.124   2.618  13.788  0.0088  0.1471  0.1004
 6242W        W22426  13.871  10.524   1.973  0.1264 -0.0206  0.1329
 6243W        W22427  14.877  17.384  14.237  0.3579  0.2310 -0.1265
 6244W        W22428  15.031   0.551  12.854 -0.0314 -0.4392  0.2194
 6245W        W22429   3.400   8.646   1.120 -0.0659  0.6140 -0.3142
 6246W        W22430   1.921  16.541  13.994  0.1028  0.0710 -0.1598
 6247W        W22431  14.592   1.246   3.857 -0.3542 -0.1454 -0.0889
 6248W        W22432   1.923   9.854  14.208 -0.1639 -0.2613  0.0051
 6249W        W22433  16.775  11.330   0.301 -0.0146  0.1781  0.1920
 6250W        W22434  15.252   9.522   0.423 -0.1096  0.0934 -0.1577
 6251W        W22435  12.577   4.500  15.244  0.2248 -0.0942  0.4733
 6252W        W22436   0.621  12.948   0.086  0.0849  0.1366  0.0309
 6253W        W22437  11.527  10.489   3.240 -0.0954  0.0572 -0.4322
 6254W        W22438   2.735  12.213   1.910 -0.0493  0.1390 -0.3958
 6255W        W22439   3.341  10.271  14.439  0.1163  0.2729 -0.0747
 6256W        W22440   6.370  14.473  15.579 -0.0047  0.1077 -0.0354
 6257W        W22441   2.583   6.790  14.815  0.1148 -0.1067 -0.3053
 6258W        W22442  11.219  11.563   1.418 -0.1134  0.0223 -0.1475
 6259W        W22443  10.328  10.919  16.097 -0.0964  0.0430  0.1499
 6260W        W22444  16.694   8.851  12.964 -0.1448 -0.2412 -0.4447
 6261W        W22445   5.877   3.716  16.455 -0.0191 -0.2207  0.1053
 6262W        W22446  16.733  11.397   1.151 -0.4401  0.6039  0.2800
 6263W        W22447  11.921  16.396   4.693  0.1033 -0.2031 -0.0563
 6264W        W22448   9.506   9.918   2.950  0.3841  0.3358 -0.0143
 6265W        W22449  16.507  11.141   3.773  0.0556 -0.1577  0.0844
 6266W        W22450  11.499   5.688   0.455 -0.0122 -0.2304  0.0945
 6267W        W22451   5.861   7.323  12.433  0.0491 -0.1311 -0.0689
 6268W        W22452  12.339   8.037  16.622 -0.2867 -0.2987  0.2450
 6269W        W22453   3.976   1.388  13.455 -0.1567  0.1834  0.3012
 6270W        W22454  10.394   5.152   4.776  0.2508  0.3071 -0.0672
 6271W        W22455   7.416  14.513  11.922  0.1478 -0.2310 -0.0994
 6272W        W22456  18.156   6.009   2.839 -0.3426  0.0954  0.0130
 6273W        W22457  12.372  12.881   1.315  0.1335  0.3057 -0.1789
 6274W        W22458  10.939  13.336   3.253 -0.1676  0.1903 -0.3518
 6275W        W22459  12.548  10.200  11.718 -0.1132  0.1972 -0.0426
 6276W        W22460  16.667   8.259  11.632 -0.0640 -0.2168  0.2689
 6277W        W22461  15.515  17.677   5.098 -0.2230 -0.3250  0.1318
 6278W        W22462  16.146   3.626   4.106 -0.0659 -0.0938 -0.2076
 6279W        W22463  13.921   4.135  11.592  0.2850  0.1277  0.1398
 6280W        W22464  11.631  11.950  16.439  0.0304 -0.3323  0.0901
 6281W        W22465   6.990  16.723   3.297  0.0942 -0.2107 -0.1075
 6282W        W22466  10.652  16.303   6.235  0.1424  0.0536 -0.0172
 6283W        W22467  10.743  17.705   6.325  0.1435 -0.0942  0.2595
 6284W        W22468  11.166   2.595  12.141  0.1401  0.1926  0.2209
 6285W        W22469   4.286   3.252   1.992 -0.2554 -0.5209  0.1917
 6286W        W22470   2.040  16.141   4.173 -0.4414 -0.5299 -0.3071
 6287W        W22471   0.215   1.766   1.394  0.1726  0.0506 -0.2766
 6288W        W22472   1.597  17.456  14.593  0.0379  0.1335 -0.1291
 6289W        W22473  17.291   8.423   0.950 -0.1513  0.2565 -0.3867
 6290W        W22474  13.377  13.231  13.502 -0.1499 -0.0701  0.4674
 6291W        W22475   5.614  17.829  14.354 -0.3085 -0.0984 -0.1758
 6292W        W22476   6.827   0.217  15.125 -0.0126 -0.0524  0.0314
 6293W        W22477  13.858   7.476   1.164 -0.1462  0.1352  0.2776
 6294W        W22478   7.674  12.409   5.712 -0.0882  0.1250  0.0757
 6295W        W22479   5.680   1.512  12.353  0.0409  0.3589  0.1574
 6296W        W22480   3.388   8.240  12.903  0.1176 -0.1778 -0.0911
 6297W        W22481   6.901  14.686  15.260  0.2240  0.1111 -0.2056
 6298W        W22482   5.379   5.854   0.912 -0.3483 -0.1698  0.0892
 6299W        W22483  16.723   4.913  15.886  0.1156 -0.1777 -0.1324
 6300W        W22484  18.078   0.383   0.201  0.1168 -0.2325  0.2173
 6301W        W22485  14.359  10.169  12.182  0.1394  0.0454 -0.0315
 6302W        W22486  10.942  17.792   0.889 -0.0584  0.0811  0.1192
 6303W        W22487   4.005  11.408  16.355  0.1748  0.0417  0.2188
 6304W        W22488   1.491  15.841  14.049  0.1236  0.1944 -0.1954
 6305W        W22489  13.023   9.441   2.428  0.0333 -0.0377 -0.1390
 6306W        W22490  14.435   5.921  13.715  0.0043 -0.3433 -0.1187
 6307W        W22491  13.888   2.229   4.852 -0.1930 -0.0777  0.0730
 6308W        W22492  15.625   5.465  12.379 -0.2261  0.5368  0.0306
 6309W        W22493   2.446   2.303   4.943  0.0334 -0.0037  0.2106
 6310W        W22494   7.932   7.708   1.712 -0.0949 -0.1216 -0.2892
 6311W        W22495   8.968  10.771   0.945 -0.1440 -0.1477 -0.0310
 6312W        W22496  11.430  17.778  14.787  0.1870  0.4919 -0.0934
 6313W        W22497   9.047  16.069  14.651 -0.0828 -0.0301  0.2825
 6314W        W22498  14.726   3.503  16.130 -0.2815 -0.0623  0.1904
 6315W        W22499  12.337  16.927   2.494 -0.0723  0.0581 -0.1880
 6316W        W22500   1.759  17.125   4.876 -0.0114 -0.1529  0.2134
 6317W        W22501  11.933   2.125  12.344 -0.0103  0.2573 -0.1325
 6318W        W22502   4.686   9.387  13.072 -0.0438 -0.0893 -0.0918
 6319W        W22503  13.916   5.055  11.280 -0.0567 -0.4627  0.0718
 6320W        W22504   4.875   8.920   4.708  0.0104 -0.2666  0.0414
 6321W        W22505   2.997   9.688   2.262  0.4196 -0.2942  0.1550
 6322W        W22506  11.087   5.488  15.530 -0.2000 -0.0904 -0.3717
 6323W        W22507  15.183  15.853  11.465 -0.0519 -0.0372 -0.0264
 6324W        W22508   2.774   8.992   2.613 -0.0179 -0.3761 -0.2011
 6325W        W22509  16.914  13.887  15.075  0.0841 -0.1682 -0.3168
 6326W        W22510   1.932   0.072   2.344 -0.2215  0.1331 -0.3754
 6327W        W22511  12.444   0.002  14.037 -0.2303  0.0077  0.1606
 6328W        W22512  11.724   0.595  13.842 -0.2663 -0.1000 -0.0214
 6329W        W22513  17.257  15.929  11.327  0.1944  0.0189  0.3612
 6330W        W22514   2.454   1.601  11.727  0.0455  0.1258 -0.0644
 6331W        W22515   0.122   3.672  10.629  0.2712 -0.1277  0.1530
 6332W        W22516  17.759   6.462   0.730 -0.0129 -0.1539  0.0243
 6333W        W22517   3.431  14.699  12.250  0.0079 -0.3371  0.0681
 6334W        W22518  13.469   3.661  14.316 -0.0908 -0.0578  0.2289
 6335W        W22519   2.017  15.411   2.997  0.1322 -0.1418  0.1863
 6336W        W22520   7.094   2.468  11.805  0.1741  0.0393  0.4790
 6337W        W22521  17.230   5.848   2.517  0.3326  0.1188 -0.0980
 6338W        W22522   1.037   9.025  10.290 -0.0058 -0.2360  0.2400
 6339W        W22523  13.535   3.640   0.530  0.2519 -0.0815 -0.1203
 6340W        W22524  14.296  16.879   0.030 -0.2256 -0.3330  0.4418
 6341W        W22525   5.897   1.181   1.481  0.2403  0.3371  0.1842
 6342W        W22526  14.836  11.472  13.213 -0.1346  0.0024  0.0494
 6343W        W22527   6.307   0.788   2.316 -0.0152 -0.0964  0.2898
 6344W        W22528  17.192   2.900   1.930 -0.1634 -0.0098 -0.1228
 6345W        W22529  17.506   0.062   4.817  0.1229 -0.0975 -0.0470
 6346W        W22530   3.107   3.617  16.496 -0.2132 -0.2377  0.0138
 6347W        W22531   6.835   5.835  13.302  0.1360 -0.0981 -0.0345
 6348W        W22532  13.653   5.143  16.240 -0.0926 -0.0702 -0.0185
 6349W        W22533   6.270  16.751   1.392  0.2854 -0.0399  0.1724
 6350W        W22534  16.141  12.307  12.107 -0.0547  0.1267  0.2478
 6351W        W22535  15.950   6.497  10.762 -0.0738 -0.1969  0.0104
 6352W        W22536  11.586   9.597  16.443 -0.0808  0.0932  0.2225
 6353W        W22537   6.546   6.837   5.995  0.0772  0.1382 -0.0713
 6354W        W22538  17.653  17.902  11.288 -0.0510  0.2872 -0.1315
 6355W        W22539   2.157  16.606   0.065  0.1370  0.1133 -0.2615
 6356W        W22540  16.631  12.607   4.195  0.3381 -0.3635  0.1254
 6357W        W22541   2.972   5.070  15.461  0.0591 -0.1734 -0.1578
 6358W        W22542  17.730   1.901  14.776 -0.1944  0.1894  0.3618
 6359W        W22543   4.497   2.364   4.915  0.0236  0.2913  0.2220
 6360W        W22544  10.446  15.894   2.605 -0.0863  0.0698 -0.1821
 6361W        W22545   1.097   1.897  10.648  0.1208  0.1428  0.0930
 6362W        W22546   5.373   1.985   2.839  0.0464 -0.1648 -0.0305
 6363W        W22547  16.309  13.568  14.873 -0.2953  0.2908 -0.0145
 6364W        W22548  16.344  15.330  15.436  0.1391 -0.2245  0.2587
 6365W        W22549   2.219  12.432   5.055 -0.0464 -0.0498 -0.0591
 6366W        W22550   0.946  12.507   2.970  0.0920 -0.1430  0.0991
 6367W        W22551   7.088  11.754   4.836 -0.1164 -0.2258  0.0196
 6368W        W22552   0.989   2.006   2.250 -0.4327  0.0853 -0.1195
 6369W        W22553  16.372  17.331   0.615 -0.2887  0.1158  0.0419
 6370W        W22554  14.264   8.985   5.397 -0.0164 -0.2877  0.1488
 6371W        W22555   5.640  18.029  13.591  0.0894 -0.3485 -0.1275
 6372W        W22556  11.367   1.719  15.538 -0.0003 -0.3110 -0.1979
 6373W        W22557   6.890  13.129   5.367 -0.2075 -0.4031 -0.0352
 6374W        W22558   6.475   3.400  15.305  0.4399 -0.2100 -0.2017
 6375W        W22559   4.990  16.685  11.785  0.2190 -0.0745  0.0972
 6376W        W22560  18.001  11.291  15.606  0.1377  0.2419 -0.0345
 6377W        W22561  14.323   1.334  16.317  0.1217  0.0400  0.2734
 6378W        W22562  16.695  13.092  16.320 -0.0600 -0.1725 -0.2223
 6379W        W22563  16.441   1.358   0.793 -0.1505  0.1213 -0.0387
 6380W        W22564  14.927  12.787   1.090  0.0640 -0.0853 -0.0452
 6381W        W22565   9.319   7.932   0.485 -0.1146  0.2181 -0.0624
 6382W        W22566   0.418   8.965   1.040  0.0409 -0.3028  0.1359
 6383W        W22567   4.915  12.446  16.057 -0.2907  0.0292  0.1096
 6384W        W22568   6.283   6.497  13.348 -0.0121 -0.0004  0.1244
 6385W        W22569  14.325  12.186   5.268 -0.1384  0.2141 -0.1372
 6386W        W22570  18.108  15.627   3.762 -0.2849  0.0398  0.2557
 6387W        W22571   1.121   1.593   2.644 -0.0337 -0.1139 -0.0634
 6388W        W22572  10.715  12.670   2.413 -0.2618  0.3387 -0.2739
 6389W        W22573   2.848  10.642   4.473 -0.0506  0.0139 -0.0717
 6390W        W22574  15.444   1.394   3.033  0.2657 -0.1705  0.0560
 6391W        W22575  12.933   9.880   3.190  0.2028 -0.2617  0.2635
 6392W        W22576   3.964  14.064   0.298 -0.1747 -0.1843  0.0969
 6393W        W22577  13.470   5.502  13.946  0.0092 -0.4250  0.1999
 6394W        W22578  17.506  16.229  16.432 -0.4015 -0.0512 -0.0259
 6395W        W22579  10.949   0.579   5.435  0.1317  0.1914 -0.2753
 6396W        W22580   6.853  16.484  15.698  0.2580 -0.1643  0.3675
 6397W        W22581  14.773   5.437   0.715  0.1358  0.1284  0.1736
 6398W        W22582   4.084  13.479   2.868  0.1016  0.1894 -0.1151
 6399W        W22583   7.220   0.462   0.628  0.0861  0.3883 -0.4627
 6400W        W22584   5.914   9.931   4.379 -0.2166 -0.2364 -0.1838
 6401W        W22585   4.425   7.434   2.964  0.0726 -0.1042 -0.0213
 6402W        W22586  13.348   9.257  15.579 -0.1403 -0.0766  0.0870
 6403W        W22587  17.937  12.796   2.211 -0.0574 -0.2480 -0.0383
 6404W        W22588  11.486   8.303  13.238  0.3148  0.1857 -0.1001
 6405W        W22589   6.368   2.455   2.222  0.2759 -0.1332 -0.0308
 6406W        W22590  17.182   8.795   0.621  0.0914 -0.0383  0.1849
 6407W        W22591   3.087   1.111  13.665  0.0109 -0.2519  0.1386
 6408W        W22592  15.645   9.897   2.280 -0.0233 -0.0425  0.0029
 6409W        W22593   2.987   9.899  14.302  0.0855 -0.3316  0.2226
 6410W        W22594  12.347  16.455   5.697 -0.3465  0.4091 -0.1591
 6411W        W22595  10.822  18.054   4.764  0.2459  0.0872 -0.1260
 6412W        W22596   9.495  16.881   4.151 -0.1003 -0.0836 -0.0210
 6413W        W22597   9.707   7.415  12.269 -0.3116 -0.1674 -0.1413
 6414W        W22598  18.061   5.332   0.494  0.1964 -0.0207 -0.0512
 6415W        W22599  13.997   8.976  12.093 -0.1580  0.0511  0.0346
 6416W        W22600  12.037  16.346  15.811  0.0300  0.2014 -0.1535
 6417W        W22601  13.986   4.169   0.755 -0.0057  0.0248  0.2096
 6418W        W22602   8.817   6.478   5.159 -0.2827  0.0004 -0.2648
 6419W        W22603   4.376  10.660   0.772 -0.2250 -0.1703 -0.1198
 6420W        W22604   9.078  11.444   4.289  0.0283  0.0926 -0.1262
 6421W        W22605  14.515   9.429   4.789 -0.2820  0.0558  0.2290
 6422W        W22606  13.331   1.441   5.635  0.0322 -0.1120  0.0148
 6423W        W22607  12.434  16.817   4.720  0.1943 -0.2133 -0.2305
 6424W        W22608  17.319   5.744   3.010 -0.0062  0.2365 -0.2267
 6425W        W22609   0.273   8.475   4.469 -0.3116 -0.1556 -0.0312
 6426W        W22610  11.268  17.552   4.936 -0.0985  0.0985 -0.1395
 6427W        W22611  11.553   4.077  12.030  0.2239  0.0255 -0.2075
 6428W        W22612  16.485   9.302  14.610  0.1936 -0.0958 -0.0674
 6429W        W22613   0.689   1.134   1.968  0.0329 -0.1864 -0.2477
 6430W        W22614   8.599   0.247  11.413  0.2999 -0.3825 -0.2273
 6431W        W22615   7.508   1.903  14.212  0.1160  0.0100 -0.0266
 6432W        W22616   5.188  11.056  10.649 -0.0570  0.2028 -0.0984
 6433W        W22617  16.723  10.296  13.411  0.0482  0.0048  0.1745
 6434W        W22618  13.407  12.534  11.556 -0.0377  0.4944 -0.0262
 6435W        W22619   9.500   4.198   1.868  0.0990  0.1567  0.2160
 6436W        W22620  13.560   2.317   0.350 -0.0807 -0.2122  0.2728
 6437W        W22621   9.882  12.073   3.411 -0.3032  0.0197  0.1118
 6438W        W22622  12.817   0.483   0.325  0.1208  0.0391  0.1943
 6439W        W22623   5.132  17.629  16.131  0.2238  0.3205 -0.0273
 6440W        W22624   0.213   3.329  13.510 -0.0330 -0.2044 -0.1007
 6441W        W22625  16.021  13.049  14.270  0.1516  0.0154 -0.2909
 6442W        W22626   8.881  14.676  14.790 -0.0663  0.1746 -0.1805
 6443W        W22627   5.102   6.221  12.878  0.0767 -0.0138 -0.1447
 6444W        W22628  12.637  17.313   0.360 -0.0713  0.0468 -0.1684
 6445W        W22629   3.561   9.869   0.592  0.1462  0.1955 -0.2503
 6446W        W22630   2.656   3.399  16.420  0.4675  0.0112  0.1668
 6447W        W22631   5.165  12.464  15.345  0.1640  0.1769 -0.2815
 6448W        W22632   6.077  18.123  12.119 -0.0244  0.3164 -0.3814
 6449W        W22633  15.357   3.943   3.055 -0.0302  0.0633 -0.2605
 6450W        W22634   7.037  15.775  14.769  0.1156  0.1604  0.1592
 6451W        W22635  16.236  17.499  15.195  0.3702 -0.1447  0.0832
 6452W        W22636   1.966   1.758   5.940  0.1753  0.1447  0.1461
 6453W        W22637  16.923  12.169   3.497 -0.0600  0.1026 -0.2449
 6454W        W22638   3.802   3.484   2.679  0.2620  0.0748 -0.1225
 6455W        W22639   5.379  15.350   2.876  0.0662  0.0853  0.0370
 6456W        W22640   4.107  17.066   2.754 -0.2214 -0.1241 -0.0914
 6457W        W22641   3.703   9.993   1.596  0.2893  0.0130  0.0076
 6458W        W22642   1.030   0.264   2.096  0.1242  0.1829  0.0665
 6459W        W22643  13.984  13.585   3.223  0.1321  0.5406 -0.1552
 6460W        W22644  13.464   4.140  12.282 -0.2601  0.1795 -0.2744
 6461W        W22645   7.149  15.386  14.421 -0.0381 -0.2286 -0.1357
 6462W        W22646  17.568  16.318   0.330 -0.0140  0.1041  0.0423
 6463W        W22647   6.492  12.665   2.919  0.0746 -0.2223 -0.0460
 6464W        W22648   3.488  10.268   5.264 -0.3319  0.0428  0.1369
 6465W        W22649  17.021   9.172   3.320 -0.3227 -0.1093  0.1369
 6466W        W22650  10.294  11.887  13.614 -0.3763  0.0470  0.4375
 6467W        W22651  14.175   9.454  12.107  0.1035 -0.0452 -0.0687
 6468W        W22652  15.501  14.613   5.189  0.0532  0.1648  0.0115
 6469W        W22653  11.929   6.434  14.538 -0.0372  0.2664  0.1816
 6470W        W22654  12.496   6.066  12.952 -0.2925 -0.1030 -0.3111
 6471W        W22655   7.532  13.299   0.547  0.1815 -0.2324  0.0838
 6472W        W22656   4.933   2.898  14.408 -0.0232  0.4514  0.0035
 6473W        W22657  12.493   7.600  13.704  0.0199 -0.0326  0.1630
 6474W        W22658  18.091   6.307  12.962 -0.2515  0.3643  0.0721
 6475W        W22659  12.975  13.518   2.207  0.0829  0.3014  0.0951
 6476W        W22660   2.588   7.627  11.483 -0.2839  0.0062 -0.1044
 6477W        W22661   4.477  17.496   0.637 -0.1951 -0.0378 -0.4120
 6478W        W22662   7.475   2.276   0.563 -0.0505  0.0007  0.1977
 6479W        W22663   8.501   8.296   1.930 -0.1112 -0.0421  0.4615
 6480W        W22664   6.370  13.793   5.484  0.2185 -0.0334  0.1581
 6481W        W22665  11.303  14.316  16.029  0.2650  0.0891  0.0162
 6482W        W22666   6.808   1.968  12.012  0.2310  0.0160 -0.2044
 6483W        W22667   1.248   8.746   4.101 -0.0590  0.1829  0.4204
 6484W        W22668  15.855   9.655  16.435 -0.1048  0.0566  0.0956
 6485W        W22669  16.243  14.953  15.744  0.1332  0.1566 -0.0628
 6486W        W22670   0.806   8.607   1.223 -0.2340  0.0904 -0.1557
 6487W        W22671   5.494   5.286  12.302 -0.0989  0.2038  0.2250
 6488W        W22672  15.115   6.969   0.665 -0.1529 -0.1018 -0.1365
 6489W        W22673  17.696   0.893   0.873 -0.1817  0.3955  0.1638
 6490W        W22674   4.353   1.679   3.249  0.1255  0.0591 -0.3178
 6491W        W22675  15.023   7.834   1.127  0.0433  0.1119 -0.1914
 6492W        W22676   2.887   4.710  11.557 -0.1204 -0.2580  0.0194
 6493W        W22677   3.433   3.984  14.047  0.0310  0.1488  0.1424
 6494W        W22678   5.561  11.793   0.006 -0.1047  0.1454 -0.2745
 6495W        W22679  10.591   0.872   3.040 -0.0073 -0.0095  0.0024
 6496W        W22680   2.404  11.144   5.807 -0.0212  0.2615 -0.0260
 6497W        W22681  14.812   5.014   0.303 -0.2355  0.0288  0.2176
 6498W        W22682  12.220   9.572   1.226 -0.0717  0.0588  0.0471
 6499W        W22683   4.706   6.327  11.692 -0.1339  0.3325  0.0898
 6500W        W22684   0.383  16.548  11.623  0.0566  0.0938  0.3403
 6501W        W22685  10.599  12.677  12.033  0.3994  0.3408 -0.1543
 6502W        W22686   2.171   2.516   3.892 -0.0161 -0.0696 -0.2412
 6503W        W22687  16.324   8.763  15.509 -0.0775  0.1338  0.0432
 6504W        W22688   9.216   7.653   4.639  0.0637 -0.1914 -0.1508
 6505W        W22689  12.403   5.819   5.736 -0.0624  0.0040  0.1955
 6506W        W22690  17.297  13.260  12.307  0.1333  0.2457 -0.1714
 6507W        W22691  11.829   9.879   5.486  0.0043 -0.1952 -0.0347
 6508W        W22692   2.875  16.563   2.917  0.0906 -0.0187  0.4176
 6509W        W22693  15.539  10.668   3.941  0.1621 -0.1439 -0.2033
 6510W        W22694   6.822   1.267  15.178 -0.0212 -0.0228  0.3217
 6511W        W22695  12.220   3.415  12.795  0.0199  0.1352 -0.0261
 6512W        W22696   6.328   5.499   5.087  0.4413  0.0738  0.3574
 6513W        W22697   1.605  14.565  13.399  0.0003 -0.3441 -0.0770
 6514W        W22698  16.455  12.609   2.201 -0.0895 -0.3559 -0.0703
 6515W        W22699   5.528   7.765   3.302  0.1542 -0.1970 -0.0148
 6516W        W22700   8.551  15.556  10.503 -0.1627  0.0574 -0.1547
 6517W        W22701  11.783   7.214   4.331  0.3081 -0.0108 -0.0013
 6518W        W22702  10.826  13.325   3.837 -0.0543  0.3120 -0.1677
 6519W        W22703   1.026   8.259  16.124  0.2892 -0.1603 -0.0579
 6520W        W22704   1.693   2.844   2.596 -0.0017 -0.2552  0.0677
 6521W        W22705  18.158  15.634   5.537  0.2243 -0.3361  0.3827
 6522W        W22706   8.015  15.228  12.376  0.0550  0.1261  0.1457
 6523W        W22707  10.754   1.969  16.412  0.1511  0.2319 -0.2339
 6524W        W22708  17.334  11.087  12.512  0.1456  0.1160 -0.1238
 6525W        W22709   0.929  10.071  14.810 -0.0525 -0.0273  0.2417
 6526W        W22710   8.425   3.541   2.946 -0.0925  0.0453  0.0860
 6527W        W22711  16.799  15.674   0.040  0.0990  0.0666  0.0755
 6528W        W22712   2.946   4.744  16.253 -0.1618 -0.0898 -0.1992
 6529W        W22713   5.229  15.785  13.994 -0.1339 -0.3148  0.0593
 6530W        W22714   7.341   7.900   0.014  0.0464  0.2703  0.2826
 6531W        W22715   2.935  18.096   1.764  0.1773  0.1254  0.0599
 6532W        W22716   6.740   0.954  14.407 -0.0819 -0.0874 -0.1277
 6533W        W22717  17.558  15.001  12.495 -0.2506 -0.0747  0.0393
 6534W        W22718  12.145   6.234  16.230 -0.1712  0.2993 -0.2102
 6535W        W22719   6.648   3.759   3.003 -0.0061 -0.0440 -0.0367
 6536W        W22720   1.200  12.963   0.039  0.1007 -0.1652 -0.1072
 6537W        W22721  17.127   0.137  14.113  0.0728 -0.0504 -0.1756
 6538W        W22722  15.167   0.567  14.613  0.1077  0.0468  0.0515
 6539W        W22723   8.097  17.812  15.681 -0.1028 -0.1267 -0.3889
 6540W        W22724   0.659  11.597   4.535  0.0274  0.0578  0.1069
 6541W        W22725   3.258   9.810  12.979  0.3490 -0.0211  0.0863
 6542W        W22726   3.749  13.473  15.893  0.0903  0.0652 -0.1019
 6543W        W22727  11.432   0.022  14.481 -0.1760  0.0002  0.1117
 6544W        W22728  12.430  12.795   2.499 -0.1240  0.0988  0.0393
 6545W        W22729  12.186  14.008   3.769 -0.2450 -0.0765  0.1114
 6546W        W22730  13.532  14.267  12.794 -0.2010  0.0941  0.1227
 6547W        W22731   3.344   3.571   0.626  0.0044  0.1086 -0.0539
 6548W        W22732   2.479   0.323   0.897  0.0590 -0.0739  0.0354
 6549W        W22733   4.677  10.819   5.566 -0.0245  0.3436 -0.2803
 6550W        W22734   0.193   2.131  15.759  0.0161 -0.0729 -0.1705
 6551W        W22735  14.663   3.417  15.633 -0.1783 -0.0918  0.0096
 6552W        W22736  14.574  17.885   5.206  0.2570  0.3050 -0.1229
 6553W        W22737   3.363   9.320  14.015 -0.1324 -0.0653 -0.0354
 6554W        W22738   5.459  17.144  16.055 -0.1224  0.0209 -0.0976
 6555W        W22739   3.963   2.096   2.497 -0.3247  0.0126 -0.2396
 6556W        W22740   1.699  11.386   3.870  0.0802  0.0864 -0.1216
 6557W        W22741  12.058  15.421   6.122  0.0651  0.1131 -0.5039
 6558W        W22742   5.913   5.193  13.482  0.1208  0.0380 -0.2004
 6559W        W22743   6.673   1.633   2.546 -0.1705  0.2482  0.1643
 6560W        W22744   6.041   4.366   0.854 -0.2059  0.0929 -0.1228
 6561W        W22745  12.737   8.830   4.894 -0.0037  0.2309  0.1025
 6562W        W22746   4.523   4.994  14.723 -0.2792  0.2415 -0.0581
 6563W        W22747   5.392   4.994   3.658 -0.0106 -0.2389 -0.0064
 6564W        W22748   2.747  14.594  11.891  0.3743  0.0451 -0.4386
 6565W        W22749   6.769  17.229  12.124  0.3614  0.0517  0.0265
 6566W        W22750  13.523  12.293   3.806  0.1737  0.0307  0.1815
 6567W        W22751   1.528   0.534   1.878 -0.0885 -0.2082  0.1973
 6568W        W22752  11.513   0.802  12.131 -0.1022 -0.0509  0.1887
 6569W        W22753  12.964   2.584  15.185 -0.2566 -0.0312 -0.0529
 6570W        W22754  13.509   4.015   1.992 -0.1515  0.0724 -0.0494
 6571W        W22755   2.424  12.977   2.225  0.2063  0.0236 -0.2452
 6572W        W22756   1.591   8.694  13.141  0.0346  0.2349 -0.0261
 6573W        W22757   3.284   4.645  14.438  0.2108  0.0799  0.0593
 6574W        W22758   2.576  16.719  15.854 -0.1502  0.1647  0.1622
 6575W        W22759  16.313  11.679  14.773  0.1555 -0.1617  0.2214
 6576W        W22760   6.114   2.925   5.861  0.1618 -0.1449 -0.0349
 6577W        W22761  10.777   7.271   3.028  0.1220 -0.0237 -0.0777
 6578W        W22762   4.101  12.099   2.992 -0.1419  0.0445  0.0487
 6579W        W22763   8.540  17.520  13.655 -0.0000 -0.0221 -0.2363
 6580W        W22764   3.530   5.633   1.267  0.0787  0.1042 -0.0179
 6581W        W22765   4.648  10.828  16.069 -0.0303  0.1107  0.1875
 6582W        W22766  17.188   4.207   4.493  0.3243 -0.0249 -0.0516
 6583W        W22767   2.188  15.143  11.386 -0.0071 -0.0008  0.2690
 6584W        W22768  18.076  14.064  13.092 -0.1208  0.2193  0.1461
 6585W        W22769   6.774  14.736  15.759  0.1987 -0.2269  0.1302
 6586W        W22770   6.408  17.332  14.603 -0.1457 -0.0419 -0.0640
 6587W        W22771  17.653  11.750   5.128 -0.1696 -0.0358 -0.2197
 6588W        W22772   6.652  17.559  13.491 -0.2156  0.1095  0.0438
 6589W        W22773   7.624   1.582  11.728 -0.1274 -0.1093  0.3546
 6590W        W22774   4.478   4.489   4.069 -0.6135 -0.0529  0.0488
 6591W        W22775   3.750  16.798   4.961 -0.1410 -0.2472  0.2315
 6592W        W22776  14.151   4.526   0.400  0.1071 -0.1143 -0.0704
 6593W        W22777  16.984  16.331  11.205  0.0752  0.3996  0.0849
 6594W        W22778  12.860  10.609  11.812 -0.0942  0.1682  0.3184
 6595W        W22779   3.193  15.750  13.534 -0.2365 -0.0106 -0.1720
 6596W        W22780  13.362  17.530   3.861 -0.3547 -0.0226 -0.0446
 6597W        W22781   2.124  12.629   3.439 -0.0749 -0.0023  0.1020
 6598W        W22782  12.433   8.138  11.583 -0.1543 -0.2189  0.3258
 6599W        W22783   1.159  17.900   5.216  0.3574  0.2058 -0.1554
 6600W        W22784   3.533  15.167   4.721  0.0363  0.1420 -0.0425
 6601W        W22785  12.217  16.569   5.087 -0.0948  0.3547  0.0223
 6602W        W22786   8.452   9.893  15.518 -0.0717  0.0029 -0.4595
 6603W        W22787   4.425   3.732  12.861  0.0689 -0.0603 -0.0593
 6604W        W22788   1.939  15.583  12.206 -0.0744 -0.3123 -0.0397
 6605W        W22789  15.524   1.516   1.756  0.2951 -0.1091 -0.0794
 6606W        W22790  14.739  13.600   5.408  0.4210  0.0835  0.2823
 6607W        W22791   9.578  11.382   6.129 -0.2825  0.2584  0.2000
 6608W        W22792   5.245  10.797  12.998  0.1404 -0.2963 -0.4404
 6609W        W22793  15.019   4.612   3.618 -0.2669 -0.1702  0.1577
 6610W        W22794  15.562   3.930  13.243  0.3041  0.0322  0.2528
 6611W        W22795  14.103  16.199   0.801 -0.0184  0.0274 -0.0541
 6612W        W22796   6.600  10.126  13.687 -0.1074 -0.3271 -0.1269
 6613W        W22797  13.861   4.920  12.463  0.0756  0.0764 -0.1605
 6614W        W22798   8.927  10.175   4.651 -0.2126 -0.0423  0.1532
 6615W        W22799  15.752  12.700   0.349 -0.0670  0.0430 -0.0981
 6616W        W22800   8.839   6.010   4.507 -0.1310 -0.0862 -0.0501
 6617W        W22801   1.651   7.185   5.295 -0.0124 -0.2291 -0.0875
 6618W        W22802   9.475  11.555  13.146  0.2498 -0.0471  0.0430
 6619W        W22803  11.428  15.498  12.102  0.0899  0.0181 -0.0667
 6620W        W22804  11.648   0.398   5.112 -0.0004 -0.0757  0.0075
 6621W        W22805   0.204   6.637   2.366 -0.1755 -0.2728  0.1009
 6622W        W22806  15.966   0.961  12.397 -0.1236 -0.0637 -0.5635
 6623W        W22807   6.633  12.607   1.382 -0.0747  0.0938  0.2018
 6624W        W22808   0.297   1.226  14.343  0.1998  0.2840 -0.2562
 6625W        W22809  11.418  12.249  14.151 -0.5657  0.1619 -0.0223
 6626W        W22810   4.385  14.034   3.317  0.0533 -0.1410  0.0944
 6627W        W22811   8.707  11.131   4.192  0.1875 -0.0569  0.0472
 6628W        W22812   2.174   0.994  13.384  0.4879  0.2577 -0.2145
 6629W        W22813   7.232   7.278   2.067  0.0932 -0.2494 -0.3625
 6630W        W22814  17.363   4.287   1.389  0.0044 -0.3043 -0.1114
 6631W        W22815  17.470  17.229   0.591 -0.1976  0.0249  0.1206
 6632W        W22816   8.755  13.737  13.585  0.0924  0.1089 -0.1953
 6633W        W22817  13.591   6.434  13.927  0.0392  0.0555 -0.1531
 6634W        W22818  10.695  14.952  12.280  0.1490 -0.2508  0.0035
 6635W        W22819   6.525  14.885   3.674  0.1129  0.0111 -0.2904
 6636W        W22820   0.315   3.886   4.263  0.0812 -0.1398  0.1318
 6637W        W22821   0.667   3.175  11.875  0.1912  0.0474 -0.0967
 6638W        W22822  13.490  15.163   1.871  0.0746  0.0306  0.1519
 6639W        W22823  13.992  11.286  15.902 -0.2288  0.0488  0.1002
 6640W        W22824   5.766   2.396   4.157 -0.0196 -0.4023  0.0284
 6641W        W22825   2.010   7.825   3.991 -0.2429 -0.2017  0.0737
 6642W        W22826  11.567   7.550  15.412 -0.0866 -0.0739  0.0410
 6643W        W22827   1.903  10.398  11.326  0.0789  0.2700 -0.0591
 6644W        W22828   7.653   4.673  11.916  0.1218  0.1736 -0.0059
 6645W        W22829  13.212  11.731   3.985  0.2861  0.5143  0.4109
 6646W        W22830   4.912  15.261  13.910 -0.1223  0.2468  0.0476
 6647W        W22831   7.763   1.864   0.669 -0.1659 -0.0653  0.0939
 6648W        W22832   4.615   3.633   2.808 -0.1693 -0.0625 -0.1345
 6649W        W22833   7.985  11.434  14.217 -0.2771  0.2283  0.1566
 6650W        W22834  14.143  10.423   2.462 -0.2385 -0.4414 -0.3294
 6651W        W22835   7.602   4.535   1.503 -0.0545 -0.0808  0.1274
 6652W        W22836   8.083   7.959   0.540  0.0719 -0.0703 -0.0307
 6653W        W22837  12.285   5.101   3.054 -0.2855  0.0916  0.0560
 6654W        W22838   9.152  11.685  12.402  0.3692 -0.1106 -0.3910
 6655W        W22839  14.809  15.378   4.261  0.1758  0.1472 -0.1588
 6656W        W22840   7.779  12.826   0.791 -0.2485 -0.0538 -0.0411
 6657W        W22841  17.419  12.418  11.767  0.0858  0.2810 -0.0071
 6658W        W22842   4.304  10.335  14.700 -0.3263 -0.1166 -0.0868
 6659W        W22843   2.812   2.755   0.418  0.0135  0.1401  0.1069
 6660W        W22844   0.038   7.747  14.650 -0.2733 -0.1857 -0.0567
 6661W        W22845   9.408  11.551  16.600  0.5615 -0.0255  0.0311
 6662W        W22846   9.482   1.321  15.303 -0.2604  0.3355  0.0927
 6663W        W22847  13.270   5.869  16.540 -0.2050 -0.0329 -0.1469
 6664W        W22848   4.549  11.803  12.098 -0.2659 -0.5279  0.3037
 6665W        W22849   1.359   3.998  14.251 -0.1424 -0.0335 -0.0319
 6666W        W22850   3.939  12.166   1.535  0.3329  0.0782 -0.2295
 6667W        W22851   0.661  12.476   1.260 -0.0811  0.0787 -0.1116
 6668W        W22852   1.455  16.128  13.538  0.1128  0.1925 -0.0483
 6669W        W22853   6.599   2.144  15.455 -0.0581  0.0802  0.1355
 6670W        W22854  12.052   2.448   1.397  0.4092  0.2361  0.0154
 6671W        W22855  14.372  17.523  15.929  0.1221  0.0810 -0.0139
 6672W        W22856  14.299   1.140   0.644  0.0644  0.0337 -0.1874
 6673W        W22857   1.067  17.521   1.239  0.2801  0.2642  0.2152
 6674W        W22858   1.365  11.424   0.306  0.0936  0.1392  0.0130
 6675W        W22859   5.531  15.283  12.458 -0.2148  0.2122  0.0169
 6676W        W22860   1.268  14.270   5.912  0.3524  0.1855 -0.0193
 6677W        W22861   3.618  14.054  16.111 -0.0545 -0.0151  0.4905
 6678W        W22862  10.100   2.372   0.051  0.1305 -0.0794  0.0938
 6679W        W22863   7.507  15.249  15.272  0.0520 -0.0930  0.3060
 6680W        W22864  10.381  17.765   0.497  0.0815 -0.1657 -0.3827
 6681W        W22865   1.838   0.382  14.520 -0.3285 -0.2826 -0.4004
 6682W        W22866   4.619   3.510  11.487  0.3480  0.2160 -0.1031
 6683W        W22867  17.258   2.883   3.156 -0.0156  0.4827  0.1300
 6684W        W22868   7.335  15.936  12.202  0.1608  0.1778  0.1077
 6685W        W22869   4.252   5.897   0.153 -0.0879 -0.2345  0.1876
 6686W        W22870   3.174   1.058   1.683 -0.0774  0.1814  0.2186
 6687W        W22871  16.393  15.970   4.242  0.0592  0.0145  0.1814
 6688W        W22872  15.822   0.621   1.137  0.2651 -0.1718 -0.0611
 6689W        W22873   5.814   4.081  15.576  0.1350  0.0417  0.1292
 6690W        W22874  11.111   1.553   4.189 -0.3993  0.1444  0.1859
 6691W        W22875   3.923  17.150   2.225  0.0063  0.2965  0.3203
 6692W        W22876  12.526   6.531  15.169  0.1623  0.2062 -0.0555
 6693W        W22877  10.150  10.829  14.314 -0.0059  0.0375  0.1055
 6694W        W22878  13.631   9.303   0.985 -0.0984  0.1105 -0.0358
 6695W        W22879   0.714  15.452   4.151  0.1128 -0.0772  0.1562
 6696W        W22880   4.384   5.680   1.079 -0.0682 -0.0120  0.1684
 6697W        W22881   9.899  12.026   1.549 -0.0009  0.1577 -0.0887
 6698W        W22882   6.904   5.568   2.104  0.3165 -0.0218  0.0826
 6699W        W22883  13.513   9.466  12.518 -0.0526 -0.0942  0.0121
 6700W        W22884   8.841   7.953  12.501  0.0766  0.3657 -0.0110
 6701W        W22885   5.618  10.599  13.912  0.1768  0.2460  0.3872
 6702W        W22886   4.970   0.392  13.281  0.0627  0.1808  0.1132
 6703W        W22887   9.068  10.161  13.200  0.5677  0.1827  0.0375
 6704W        W22888  15.450   2.101   0.469 -0.2606 -0.1520 -0.0764
 6705W        W22889  17.335   6.667  13.094  0.0670  0.1031  0.0464
 6706W        W22890  14.374   0.071   3.201  0.4040  0.1129 -0.1794
 6707W        W22891   2.675   0.627  14.464 -0.0832  0.0644 -0.3743
 6708W        W22892   3.602   4.553   4.890  0.2635  0.1274 -0.1664
 6709W        W22893  16.330  11.067  11.479 -0.2142  0.1671  0.0029
 6710W        W22894  15.567   5.356  11.010  0.1206  0.0738 -0.0909
 6711W        W22895   7.749   0.223  16.451 -0.2121  0.2501 -0.0877
 6712W        W22896   3.630  11.610   5.495  0.1788  0.2791 -0.1165
 6713W        W22897   1.964  12.081  15.936  0.1462 -0.2259  0.0792
 6714W        W22898  12.814  15.384  13.627 -0.1189  0.0929  0.2420
 6715W        W22899   8.713  15.871  16.090 -0.3218  0.2070 -0.2568
 6716W        W22900   6.194   3.007   3.498 -0.1008  0.2025 -0.0605
 6717W        W22901   4.673   4.536  13.596 -0.0165 -0.1677 -0.2999
 6718W        W22902   2.152  10.848  12.201  0.0618  0.2932  0.2141
 6719W        W22903  11.257  13.549   2.341  0.0440  0.0210 -0.3012
 6720W        W22904   4.710  15.343   2.183 -0.2305 -0.2830  0.3159
 6721W        W22905  14.805  14.517   2.212  0.4449 -0.2272 -0.0985
 6722W        W22906  17.046  11.252  11.687 -0.2156  0.2697 -0.0961
 6723W        W22907   2.362   3.634   0.907  0.0039  0.2828 -0.1752
 6724W        W22908   7.330  14.808   3.192  0.2566 -0.1772 -0.0423
 6725W        W22909  10.959   8.064   1.273 -0.2182  0.2188  0.0611
 6726W        W22910   8.815  14.282  13.467  0.0720  0.5026 -0.1704
 6727W        W22911   6.128  17.427   0.868 -0.0103  0.0039  0.3866
 6728W        W22912  12.509   8.036   3.633  0.1041 -0.3375  0.0985
 6729W        W22913  17.955   4.500  16.109 -0.1086 -0.0206 -0.2786
 6730W        W22914  13.213   5.563  13.056  0.0401 -0.1996 -0.0969
 6731W        W22915   0.047   0.144  15.523 -0.1967 -0.0135  0.2740
 6732W        W22916  10.145   2.613  13.802 -0.3363 -0.1200  0.1649
 6733W        W22917   4.991  16.723   3.200 -0.4599 -0.0206 -0.2619
 6734W        W22918  14.503   2.104  12.544  0.1903  0.2625  0.0112
 6735W        W22919  12.852   7.133   5.900  0.5353  0.0195  0.0340
 6736W        W22920   3.380  11.184  16.481 -0.1399  0.0270 -0.0122
 6737W        W22921   2.369   7.417   4.428 -0.0583  0.0150 -0.1719
 6738W        W22922   0.917  11.347   5.998  0.1765 -0.2270 -0.0715
 6739W        W22923  15.453   7.228   0.406 -0.3266 -0.0652  0.3116
 6740W        W22924  10.645   9.116  15.305 -0.0051  0.1149 -0.2787
 6741W        W22925   1.485   3.818   2.532  0.1198  0.1282 -0.1846
 6742W        W22926  15.527  12.627  15.908 -0.0372  0.2008 -0.4562
 6743W        W22927  10.657   8.040   1.726  0.2331  0.1704 -0.0594
 6744W        W22928   7.925   8.684   4.019 -0.2662  0.0848  0.1643
 6745W        W22929   1.931  17.732  15.981  0.1146 -0.2134  0.2222
 6746W        W22930   7.771   0.637   5.553  0.4464 -0.0104  0.0193
 6747W        W22931  17.991  13.751   2.912 -0.1472  0.1564  0.2369
 6748W        W22932  11.593   5.166  13.498 -0.3913 -0.0591  0.0682
 6749W        W22933  17.857   5.382  11.261 -0.0600  0.0864 -0.0117
 6750W        W22934   4.450  10.499  12.973  0.2979  0.0863  0.2524
 6751W        W22935  13.746  11.187   4.228  0.0827  0.0629  0.2639
 6752W        W22936   6.793   0.589  14.732  0.1665  0.0411  0.0910
 6753W        W22937   9.933   3.679  11.859  0.1189  0.0069 -0.2999
 6754W        W22938   0.364   9.911   2.975 -0.0331 -0.1302 -0.1003
 6755W        W22939  11.392  17.819   3.310  0.0481  0.2524 -0.2031
 6756W        W22940   3.702   2.420   1.788 -0.1066  0.1429  0.3007
 6757W        W22941   9.163  14.279  16.462 -0.1194  0.3047 -0.1487
 6758W        W22942   5.853  16.655  15.448 -0.1229 -0.0398 -0.1948
 6759W        W22943  10.366  16.995  13.200  0.0472 -0.0795  0.0279
 6760W        W22944  10.940   5.595   2.557  0.4213 -0.0936  0.0558
 6761W        W22945  10.622  10.712   1.548 -0.3217 -0.1299 -0.0218
 6762W        W22946  17.388   1.920   0.577 -0.0639 -0.1129 -0.0506
 6763W        W22947  15.134  17.427   0.703 -0.0076 -0.0346 -0.4151
 6764W        W22948  16.181   0.517  12.697 -0.2280  0.1396  0.2019
 6765W        W22949  10.743  15.392   5.865  0.1205  0.0931  0.1176
 6766W        W22950   2.169  17.348  13.664 -0.0722 -0.0141 -0.2490
 6767W        W22951   1.405   8.927   4.554  0.0751 -0.3273  0.1190
 6768W        W22952   6.619  12.141  14.912  0.0192 -0.2107  0.0396
 6769W        W22953  12.189   8.446  16.295  0.0442  0.1973  0.0655
 6770W        W22954   2.143  10.609  14.428 -0.0968  0.1621  0.0826
 6771W        W22955   7.618  14.945  16.059 -0.1740  0.2816  0.0778
 6772W        W22956  16.951   9.592   0.498  0.2523  0.1262  0.0884
 6773W        W22957   0.496   9.883   4.345 -0.2971 -0.1440  0.1701
 6774W        W22958   5.080  14.489   3.479  0.0042 -0.2713 -0.0954
 6775W        W22959   6.940  13.403  14.277 -0.3355 -0.1647  0.1192
 6776W        W22960   0.461   6.011  16.349  0.2672 -0.2465  0.3923
 6777W        W22961  11.094  11.266   0.370 -0.3168  0.1841  0.4492
 6778W        W22962   0.359  11.972   3.056 -0.0320  0.1242  0.0473
 6779W        W22963   2.858   9.798   5.016 -0.3536 -0.3207 -0.1221
 6780W        W22964   0.005   3.938  14.728 -0.0791 -0.1529 -0.0488
 6781W        W22965  13.104  13.476  11.224  0.1939 -0.2661  0.1257
 6782W        W22966  10.391  12.070   6.074  0.3481  0.2747  0.0927
 6783W        W22967  10.681   4.179  11.893  0.1224 -0.4811 -0.0055
 6784W        W22968   4.000  13.228  13.120 -0.0680  0.1223 -0.3168
 6785W        W22969  13.264  17.581  14.261  0.3437  0.0866 -0.0866
 6786W        W22970  11.503   3.488   5.362 -0.4523 -0.0508 -0.3069
 6787W        W22971   8.999   7.815   4.135  0.2237  0.0802 -0.1953
 6788W        W22972  12.608   2.841  14.831  0.0433  0.1219 -0.2245
 6789W        W22973   7.062   1.258  15.683  0.0311  0.0542 -0.1515
 6790W        W22974   6.117   7.498   1.182  0.1195  0.1471  0.0062
 6791W        W22975   6.397  16.488   5.062 -0.0773  0.1097  0.1823
 6792W        W22976  10.732   9.938  14.140 -0.2444 -0.0562 -0.0570
 6793W        W22977   4.755  13.630   1.261  0.1743  0.1963 -0.0639
 6794W        W22978  14.343   4.825  10.976  0.0375 -0.2069  0.1124
 6795W        W22979   1.404  11.939  12.315 -0.3438  0.0092  0.0315
 6796W        W22980  13.581   2.240  14.471  0.0011  0.1612  0.1386
 6797W        W22981   5.530   3.535   0.761  0.0505  0.0686 -0.0549
 6798W        W22982   0.017   6.722  13.848  0.1109 -0.0127  0.0671
 6799W        W22983   7.861   3.831  11.669 -0.1166 -0.1759 -0.1276
 6800W        W22984   5.269  14.232  15.123 -0.2433  0.0810 -0.2106
 6801W        W22985   3.646  12.832  13.878 -0.1067 -0.1622 -0.0924
 6802W        W22986  13.872   7.404   3.651  0.1516 -0.0044 -0.1522
 6803W        W22987  17.201  13.772  15.480  0.1157 -0.0465  0.1125
 6804W        W22988   8.826   9.895   3.710  0.0875 -0.0408  0.1800
 6805W        W22989   7.559   8.611  12.968  0.2576 -0.2259 -0.0298
 6806W        W22990   3.435   4.619   2.712 -0.3551  0.0512  0.2587
 6807W        W22991  13.475   8.205  12.159  0.0633 -0.0080  0.0269
 6808W        W22992  13.843  15.052   1.582  0.1501 -0.1144  0.1180
 6809W        W22993   6.815   4.970  13.711  0.2669 -0.2333 -0.3295
 6810W        W22994  10.923   7.899  12.716  0.1851  0.2119  0.0882
 6811W        W22995   6.750   2.449  14.972 -0.0298  0.1612 -0.0156
 6812W        W22996   0.159   7.181   3.861 -0.2079  0.1396 -0.1045
 6813W        W22997   0.445   0.204   0.075  0.2572  0.1432 -0.0501
 6814W        W22998   6.557   6.298   2.589  0.0425 -0.1433  0.0267
 6815W        W22999  16.779   5.288  12.787  0.1346  0.0565 -0.2343
 6816W        W23000  13.415   8.797   5.118  0.1540  0.3120 -0.0992
 6817W        W23001   5.646   9.899  14.894 -0.2622 -0.0970  0.5241
 6818W        W23002  17.627   8.479  10.352 -0.3600  0.0841 -0.0279
 6819W        W23003  13.351   5.366   2.064  0.1966  0.1803  0.0607
 6820W        W23004   2.092   1.104  16.407  0.2707 -0.2306 -0.2696
 6821W        W23005   5.259   6.975   2.926 -0.1149  0.2762 -0.0484
 6822W        W23006  10.015   4.517   5.437 -0.0451  0.1962 -0.1727
 6823W        W23007   0.590  17.065  15.649  0.1914  0.1941  0.1614
 6824W        W23008   3.536   9.200  11.593  0.0284 -0.2021 -0.1199
 6825W        W23009  17.184  10.892   4.403  0.0384 -0.0442  0.0233
 6826W        W23010   0.958   1.220  12.047 -0.3149 -0.2647  0.2266
 6827W        W23011   5.800   3.064   5.443  0.2031  0.0688 -0.5810
 6828W        W23012   8.111   1.988   4.972  0.0553  0.1752  0.1103
 6829W        W23013   7.664  14.301  12.539 -0.1598 -0.0964  0.1572
 6830W        W23014   1.696   9.549  15.256  0.1676  0.0886 -0.0272
 6831W        W23015  17.972  14.788   2.214 -0.1043 -0.0792 -0.0012
 6832W        W23016   0.516   6.469  16.469 -0.0374  0.1196  0.1390
 6833W        W23017   8.638   9.984  13.979 -0.1272  0.0568 -0.0689
 6834W        W23018  18.034   8.773  10.590  0.1539  0.1762  0.2381
 6835W        W23019   0.556  16.433   4.076  0.0643 -0.2181  0.0805
 6836W        W23020   3.301  11.071  14.311  0.1977  0.0224 -0.0780
 6837W        W23021  10.229  10.953   2.447  0.1909  0.1712  0.0039
 6838W        W23022  11.313   4.588   2.276 -0.2312 -0.4186  0.1652
 6839W        W23023   4.221   6.937   6.528  0.0891 -0.1669  0.2688
 6840W        W23024  17.912  10.369  15.431 -0.1406 -0.1138  0.1503
 6841W        W23025   0.557  15.960  14.615 -0.0467 -0.1118  0.0312
 6842W        W23026  14.340  11.739  13.257 -0.1289 -0.2646  0.1620
 6843W        W23027   9.449   1.750   1.646 -0.2663  0.1758 -0.1103
 6844W        W23028   5.621   8.657   0.524  0.2510 -0.0939  0.1731
 6845W        W23029  12.232   1.158   0.532  0.2633 -0.0716 -0.0478
 6846W        W23030   5.605   6.047   5.424 -0.1838  0.0099 -0.0226
 6847W        W23031  17.599  17.217   5.132 -0.0032  0.0434 -0.2607
 6848W        W23032   2.131  17.911  12.093  0.1108  0.1958  0.0531
 6849W        W23033  14.775  14.152  11.960 -0.0347  0.1376 -0.1127
 6850W        W23034  16.899  14.230   2.401  0.1266  0.2002 -0.1872
 6851W        W23035  15.405   3.877   3.705 -0.4003  0.2759  0.1172
 6852W        W23036   6.100  11.330   3.222 -0.1723  0.0123  0.2277
 6853W        W23037  12.072   0.947   0.029  0.0279 -0.0686  0.0823
 6854W        W23038  11.395   6.910   3.518  0.0680 -0.1740  0.2856
 6855W        W23039   6.456   7.332  11.948  0.1484  0.3141  0.2496
 6856W        W23040  12.861   8.855  13.252  0.0946  0.0986  0.2685
 6857W        W23041   5.562  13.947   2.485 -0.0304 -0.0522 -0.1177
 6858W        W23042  12.493   1.557   4.200  0.2843 -0.0708  0.0310
 6859W        W23043   7.916  16.651   2.049 -0.2063  0.0805 -0.2227
 6860W        W23044  15.479   9.058  12.924 -0.1180 -0.3624 -0.1118
 6861W        W23045   0.643  11.910   0.769  0.1118 -0.1405  0.1379
 6862W        W23046  11.991  16.667   0.965  0.1128  0.1983 -0.1044
 6863W        W23047  17.056  17.820   0.325  0.0218 -0.2114  0.2458
 6864W        W23048  14.394   2.068  16.044  0.0395  0.1111 -0.1699
 6865W        W23049   8.647   5.545   2.789 -0.0088 -0.4112 -0.1786
 6866W        W23050  14.459  10.545   5.706  0.0564  0.2168 -0.1411
 6867W        W23051   6.220   9.138   2.229  0.0839 -0.0713  0.2925
 6868W        W23052  17.599   0.935  11.312 -0.1502 -0.2134 -0.1450
 6869W        W23053   6.137   9.120   4.111 -0.5315 -0.3336 -0.3734
 6870W        W23054  11.472   5.532  12.501  0.0029  0.2497 -0.0764
 6871W        W23055  14.152  16.992   1.791  0.0869 -0.1254  0.1080
 6872W        W23056   7.987  11.308   1.631 -0.1372  0.0479 -0.2402
 6873W        W23057   7.752  13.939  14.183 -0.4879  0.0953 -0.0318
 6874W        W23058   3.587  11.519   2.190  0.2077 -0.3496  0.0173
 6875W        W23059   1.074  15.308  15.153 -0.0255  0.1336  0.1293
 6876W        W23060   8.358  14.155   1.873  0.0216  0.0434 -0.1021
 6877W        W23061  13.267   7.452   5.900 -0.0239  0.3148 -0.1705
 6878W        W23062  16.132   4.770   4.255 -0.0184 -0.1564  0.0612
 6879W        W23063   0.956  16.371   5.853  0.0024  0.1712  0.0258
 6880W        W23064   0.301   9.877   0.411  0.2883  0.1427  0.2205
 6881W        W23065  14.393  15.815   1.640  0.1998 -0.0131  0.2019
 6882W        W23066   0.177   6.212   0.797  0.2525 -0.0526  0.0415
 6883W        W23067  10.387   2.691  15.953 -0.1790  0.0686  0.1713
 6884W        W23068   5.078  10.644   5.868 -0.1287  0.1379 -0.0655
 6885W        W23069   5.216   5.940  16.351  0.1790 -0.1962  0.0968
 6886W        W23070  10.910   7.888  15.022 -0.2428 -0.2284 -0.2956
 6887W        W23071   1.371   9.904  15.100  0.0524  0.1598 -0.3137
 6888W        W23072  14.608  16.167  16.182 -0.3842 -0.1757  0.3443
 6889W        W23073   9.469   6.204  13.715 -0.2136  0.4921 -0.2057
 6890W        W23074  10.023   8.744  11.759 -0.0142  0.0628 -0.0071
 6891W        W23075   9.223   7.321   1.317 -0.2169  0.0869 -0.0424
 6892W        W23076   9.715  15.814  15.299 -0.1553 -0.1880 -0.0643
 6893W        W23077  17.774  15.575  12.546  0.0450 -0.2999  0.0795
 6894W        W23078  13.869   0.271   2.709 -0.1063 -0.1142 -0.1215
 6895W        W23079  16.880  10.333  16.311  0.0384  0.0922 -0.0418
 6896W        W23080   7.292   5.739   0.935 -0.0976 -0.1077 -0.2482
 6897W        W23081  12.412  15.337  15.098  0.0646 -0.1248  0.0066
 6898W        W23082   1.318   9.505   3.823  0.1044  0.3327  0.0623
 6899W        W23083   8.127   2.296  12.802  0.1515 -0.3412  0.2096
 6900W        W23084  14.698   1.494  13.461 -0.0821 -0.0985 -0.0393
 6901W        W23085  10.609   7.401  15.016  0.1646  0.1763  0.3443
 6902W        W23086   0.920  14.568  11.720 -0.2714 -0.1063 -0.1781
 6903W        W23087   7.160  13.874   2.024 -0.1851 -0.0644  0.4882
 6904W        W23088   0.537   0.650   3.540 -0.0303 -0.2812  0.1783
 6905W        W23089  14.079   1.398   5.523  0.1512 -0.2614  0.0087
 6906W        W23090   3.001  13.785   5.177 -0.1074 -0.3103  0.2638
 6907W        W23091   9.466   8.986   4.634 -0.0674 -0.1147  0.2046
 6908W        W23092  18.006   3.405  15.475 -0.1184 -0.0131 -0.2260
 6909W        W23093   4.537   5.504  14.037  0.2588 -0.0619 -0.0902
 6910W        W23094   0.271   3.665  16.607 -0.2914  0.0052  0.1195
 6911W        W23095   8.597   3.851  14.132  0.0550 -0.2182  0.0438
 6912W        W23096  14.969   9.132   0.075 -0.0158  0.0769 -0.0353
 6913W        W23097   4.967   9.467   5.083  0.1419  0.0988  0.0495
 6914W        W23098  14.874  10.078   1.151  0.1098 -0.0887  0.0416
 6915W        W23099  13.367  14.871  12.945 -0.3377 -0.0672  0.1762
 6916W        W23100   7.836   6.837  12.872 -0.2265 -0.1242  0.0419
 6917W        W23101  12.664   3.758  12.893 -0.1433  0.0958 -0.0319
 6918W        W23102   7.325   2.102   5.582  0.1600 -0.2246  0.0038
 6919W        W23103   3.654   3.280  12.616 -0.0134 -0.0557 -0.1101
 6920W        W23104   8.850  12.741  12.627 -0.0368  0.3206  0.2107
 6921W        W23105  10.625   4.496  13.880 -0.1361  0.1377  0.1110
 6922W        W23106   8.791   8.358   3.805  0.2480 -0.2181  0.0542
 6923W        W23107   1.085   3.445  14.986 -0.0947 -0.2800  0.0585
 6924W        W23108  15.182  10.110   1.840 -0.1691 -0.1793 -0.0565
 6925W        W23109  12.080  11.565  13.787  0.0685  0.1208 -0.3802
 6926W        W23110  17.685  14.445  12.790  0.1668  0.2260 -0.0529
 6927W        W23111  16.420   4.890  11.853  0.0683  0.0844 -0.0627
 6928W        W23112  16.348  10.191   0.863 -0.1883 -0.0644  0.0430
 6929W        W23113   0.245  12.634  15.982  0.4282 -0.5901  0.1141
 6930W        W23114   2.831   4.435  14.685 -0.2154  0.0631 -0.1863
 6931W        W23115  16.606  10.564   5.847  0.1785  0.0278 -0.0616
 6932W        W23116   8.962  15.740  13.934  0.1202  0.2056  0.0332
 6933W        W23117  16.941   6.456  12.006 -0.1168  0.0147  0.1757
 6934W        W23118  14.233  12.729  13.115  0.3112  0.2598 -0.0017
 6935W        W23119   8.941  11.473  12.939 -0.0468 -0.1667 -0.0124
 6936W        W23120  15.982  10.080  11.554  0.0790  0.2601 -0.0431
 6937W        W23121  11.959   0.921   3.461 -0.0375 -0.1068 -0.1782
 6938W        W23122   0.771   2.405  15.983 -0.0133  0.0264 -0.0590
 6939W        W23123  12.054   1.270   4.250  0.4292  0.5015 -0.1016
 6940W        W23124  11.167   7.052  15.635 -0.4489  0.1926  0.1348
 6941W        W23125   7.163  16.924   1.605  0.2424 -0.1477 -0.2524
 6942W        W23126   0.980   7.566   5.128 -0.0948 -0.0128  0.0848
 6943W        W23127   5.022   7.539   1.799 -0.1148 -0.0036 -0.1388
 6944W        W23128   9.752   7.232  11.396  0.3135  0.2176  0.0033
 6945W        W23129  16.984  11.316   3.664 -0.2595 -0.0997  0.1004
 6946W        W23130  14.277   8.014   0.150 -0.1242 -0.1995 -0.1343
 6947W        W23131  11.364  12.747   2.624  0.3086 -0.5907  0.3243
 6948W        W23132   1.625   9.959  13.718  0.2762  0.2071 -0.1277
 6949W        W23133  13.565  13.520  14.994  0.1224  0.0789  0.3091
 6950W        W23134  13.894   0.425   0.099  0.1172  0.0407 -0.0722
 6951W        W23135   7.358   3.174   2.608  0.1036  0.2766  0.3538
 6952W        W23136  16.379   8.370   4.184 -0.0964 -0.0563  0.1823
 6953W        W23137   4.863   8.231   0.853  0.2821  0.3616 -0.0966
 6954W        W23138   8.677   6.631  11.938  0.1218 -0.1291  0.0724
 6955W        W23139  17.033   4.025   1.195  0.0314 -0.5769  0.1479
 6956W        W23140  15.776   2.379  16.045 -0.0833 -0.5378 -0.0854
 6957W        W23141   8.138  16.752   1.160 -0.0639 -0.0507 -0.1753
 6958W        W23142  14.351   9.880   4.543  0.1711 -0.2052 -0.0037
 6959W        W23143   8.463  11.001  15.015  0.0516  0.1338 -0.1184
 6960W        W23144   0.159   0.665  16.575  0.0901 -0.1033  0.5126
 6961W        W23145   5.758  11.915  14.886  0.2531 -0.2346  0.2578
 6962W        W23146  16.324   6.050   4.919 -0.1705  0.3977 -0.1923
 6963W        W23147   5.571  14.996   2.276 -0.4606  0.1194  0.3078
 6964W        W23148  10.269  15.761   0.266 -0.1347  0.0971 -0.2203
 6965W        W23149   1.603  17.981  14.686  0.0262  0.1292 -0.0756
 6966W        W23150  13.944  13.150  15.469 -0.2128 -0.0439 -0.0021
 6967W        W23151  13.088  15.112  13.303 -0.3891 -0.2086  0.2368
 6968W        W23152  11.456   7.137   5.555 -0.0121  0.0136  0.0749
 6969W        W23153   8.430  11.735  14.766 -0.0392  0.3057 -0.3408
 6970W        W23154   1.825  14.793  15.661  0.0723 -0.1770 -0.0396
 6971W        W23155   5.166  16.693   2.681 -0.2026 -0.1673 -0.0921
 6972W        W23156   3.891  17.706   3.977 -0.2031 -0.3169 -0.1096
 6973W        W23157  13.237  14.666   2.972 -0.1371 -0.0151 -0.2516
 6974W        W23158  11.085  15.171  14.199 -0.1257 -0.0136 -0.2798
 6975W        W23159   3.184   3.814   4.453  0.1723 -0.2000 -0.2894
 6976W        W23160   6.855  15.090   5.565  0.3009  0.1392  0.1031
 6977W        W23161  17.124  14.599   4.869  0.3058 -0.0306  0.0789
 6978W        W23162  14.603   6.935  13.106 -0.0544  0.0100 -0.1022
 6979W        W23163   5.722   1.542   4.151  0.3313  0.2547 -0.0222
 6980W        W23164  14.032  10.254  14.232 -0.1558 -0.2294 -0.2405
 6981W        W23165   2.320   8.119  13.718  0.2485  0.2294 -0.0650
 6982W        W23166  10.063  12.599   3.301 -0.2702  0.1075 -0.0006
 6983W        W23167  12.816  10.234   2.319  0.4376 -0.3275 -0.0999
 6984W        W23168  14.248   5.305   0.975  0.2076  0.1596 -0.0768
 6985W        W23169  14.657   6.696   3.186 -0.2253 -0.2637 -0.1457
 6986W        W23170   3.080  15.666  14.364  0.0302  0.3360  0.3545
 6987W        W23171   6.124   9.551  12.480  0.3355 -0.0771  0.4308
 6988W        W23172   3.447  14.629  14.636 -0.0294  0.1778  0.1170
 6989W        W23173  18.020   8.663  12.663 -0.1126  0.3371  0.1779
 6990W        W23174  12.520  11.522  13.441 -0.1178 -0.1098  0.0425
 6991W        W23175   0.768   0.362  14.096  0.3385 -0.2421  0.1796
 6992W        W23176  12.957  16.740  12.236  0.1120 -0.3829  0.0134
 6993W        W23177   6.987  12.041  12.305 -0.0865 -0.0022  0.0628
 6994W        W23178  16.555   4.175  12.520  0.3260  0.1665 -0.1165
 6995W        W23179  12.031  10.881  12.823 -0.2009 -0.2001 -0.1552
 6996W        W23180   8.547  10.560   0.085 -0.3990 -0.0801  0.1300
 6997W        W23181   0.201   1.633   1.963  0.1278 -0.1045  0.2810
 6998W        W23182   4.854   0.836  14.665  0.0185  0.1981  0.0390
 6999W        W23183   3.494   1.185   3.566  0.0537 -0.0480 -0.1166
 7000W        W23184  14.326  12.977   4.854  0.0923  0.0221 -0.2696
 7001W        W23185  15.980  16.291  16.079 -0.0739 -0.1374 -0.3494
 7002W        W23186   4.246   9.953   5.090 -0.0623  0.2581 -0.3529
 7003W        W23187   2.712  15.750   4.962 -0.0026  0.0620  0.1530
 7004W        W23188  11.695   8.488  11.432  0.1031  0.1326 -0.0598
 7005W        W23189  16.166  12.758  12.371  0.0144  0.2114  0.0780
 7006W        W23190   5.063  18.004   3.293  0.0669 -0.0752  0.3085
 7007W        W23191  12.054   6.751   5.684 -0.4038  0.0687  0.2348
 7008W        W23192   8.457  11.978   1.949 -0.0624  0.3460  0.2567
 7009W        W23193   6.888   9.688   2.324 -0.2356  0.1988 -0.1132
 7010W        W23194   1.284   5.399  13.235  0.1874  0.2164  0.0377
 7011W        W23195  11.340  11.991  15.740  0.3481 -0.4013  0.1666
 7012W        W23196   6.134   0.815   5.258  0.0727  0.0823 -0.0334
 7013W        W23197   0.673  14.759  12.225 -0.2229  0.3097  0.0111
 7014W        W23198  13.662  17.340  14.408  0.2377 -0.2050  0.0278
 7015W        W23199  16.273  12.993   0.372  0.3132 -0.1701  0.1672
 7016W        W23200   0.734   7.536   3.744 -0.0865 -0.2398 -0.1595
 7017W        W23201   0.391   0.910   0.787 -0.0725  0.0534 -0.0433
 7018W        W23202   4.337   2.601   1.439  0.2485 -0.2150 -0.1811
 7019W        W23203  17.950  10.512  12.739  0.2114 -0.0185 -0.1716
 7020W        W23204   3.461   2.894   1.761 -0.1742 -0.1635 -0.0284
 7021W        W23205   8.228   8.317   2.933 -0.1790  0.2578  0.0133
 7022W        W23206   8.347  14.075  13.463  0.2294 -0.3830  0.0231
 7023W        W23207   6.999  12.250   4.446  0.0505 -0.3142 -0.2703
 7024W        W23208  15.486   7.719  14.255 -0.0969  0.1059  0.3015
 7025W        W23209  16.478  15.532  11.667  0.1405 -0.1690 -0.1045
 7026W        W23210   8.275   7.910  11.768  0.0168  0.0542  0.0896
 7027W        W23211   7.228   5.139  13.963 -0.1388 -0.3001  0.2766
 7028W        W23212   0.911   6.206  12.631 -0.1865  0.1934 -0.0932
 7029W        W23213  11.718  14.112  14.671  0.1179 -0.2101 -0.1492
 7030W        W23214  12.212   1.239   3.802  0.0233 -0.1147  0.0153
 7031W        W23215   0.798  13.478   0.958 -0.0994 -0.2210  0.0533
 7032W        W23216  15.104   2.689  15.385  0.1093  0.0192  0.0262
 7033W        W23217   6.182  14.431   6.607 -0.0622  0.0505 -0.1442
 7034W        W23218   0.786  12.732  13.788 -0.1269 -0.0558 -0.0544
 7035W        W23219   0.389   4.699  12.361  0.2718 -0.3555  0.1079
 7036W        W23220   4.239   7.768   5.073 -0.0646  0.0628 -0.0505
 7037W        W23221   2.557   8.138   5.194 -0.0043 -0.2144 -0.1112
 7038W        W23222   0.659  10.538   5.720 -0.2649  0.1313  0.1598
 7039W        W23223  16.533  16.476   3.099  0.4509  0.4579 -0.1259
 7040W        W23224   0.416   2.425  11.128 -0.1247 -0.2237  0.0051
 7041W        W23225   2.148   7.787  14.517 -0.1099  0.2676  0.0660
 7042W        W23226  13.945  13.825   2.766 -0.0973 -0.1327 -0.1441
 7043W        W23227  11.542  15.411   4.244 -0.2379 -0.3587 -0.2504
 7044W        W23228   6.862  13.374   1.807 -0.2697 -0.0522  0.0840
 7045W        W23229   7.418  12.977  12.624  0.1294 -0.0435  0.2173
 7046W        W23230   0.423  13.388  11.225 -0.2807  0.2342  0.1108
 7047W        W23231   7.806  13.858  10.818 -0.3002 -0.0645  0.1134
 7048W        W23232  13.069   4.140  16.485 -0.2764 -0.2149  0.1072
 7049W        W23233   6.626  15.072   4.813 -0.1014  0.0224  0.1284
 7050W        W23234   6.363   4.416   3.017  0.1068 -0.3367 -0.2549
 7051W        W23235  11.743   4.460  15.615 -0.0964  0.1081  0.2610
 7052W        W23236   7.732   9.628  11.796 -0.3999 -0.0384 -0.1419
 7053W        W23237   2.460  11.060   4.581  0.1005 -0.2642 -0.2879
 7054W        W23238   9.745   1.110   0.396  0.0667 -0.0034 -0.0193
 7055W        W23239   8.701  16.874   3.056 -0.2268  0.0198  0.3769
 7056W        W23240  15.125  10.625   0.958  0.0921  0.0869 -0.3513
 7057W        W23241  17.330  12.854  15.759  0.0168  0.1527  0.2263
 7058W        W23242   3.250   5.293   0.259  0.1188 -0.1965  0.0930
 7059W        W23243   4.728   2.527   0.040 -0.1678 -0.0314 -0.0799
 7060W        W23244   2.040   3.109  16.117  0.0602  0.1914 -0.0251
 7061W        W23245   5.761  10.068   1.769 -0.1885 -0.0283 -0.1190
 7062W        W23246   4.405  10.593   4.205 -0.1326  0.0232 -0.1986
 7063W        W23247  15.741   2.395  12.349  0.3621 -0.0463 -0.0090
 7064W        W23248  12.601  15.964  14.414  0.1395  0.0867  0.1724
 7065W        W23249  11.079   3.441  16.118 -0.0989 -0.1253  0.2422
 7066W        W23250   3.613   4.386  11.829  0.1437 -0.1906 -0.3106
 7067W        W23251   4.193   2.615   3.072 -0.1738  0.1123 -0.1361
 7068W        W23252  15.624   9.115  15.897  0.3374 -0.2313 -0.0022
 7069W        W23253   6.504  13.734  16.428 -0.0045 -0.2256 -0.0289
 7070W        W23254  11.040  10.319   5.062  0.2229 -0.0053  0.1875
 7071W        W23255   4.860  11.440   0.922  0.3703  0.1260  0.0222
 7072W        W23256  10.723  11.231  12.839 -0.0316  0.1240  0.1221
 7073W        W23257  12.906  14.035  16.557  0.0477 -0.0162 -0.0980
 7074W        W23258   0.602  12.622   1.736  0.2513  0.3202 -0.2737
 7075W        W23259   9.427  12.406  15.098  0.1400  0.1461  0.3418
 7076W        W23260   0.467   3.555   4.680  0.2008 -0.3257  0.3079
 7077W        W23261  14.470   6.801  14.736  0.3592 -0.0881 -0.2060
 7078W        W23262   7.114   6.244  14.756 -0.1475 -0.4475  0.2336
 7079W        W23263  16.025   9.052  15.179  0.0859 -0.2177 -0.2781
 7080W        W23264  12.077  17.567   1.960 -0.0835  0.3089 -0.1087
 7081W        W23265   8.411  16.493   4.403 -0.1751  0.1290 -0.3220
 7082W        W23266   4.457   0.174   2.481 -0.1637 -0.0523  0.1059
 7083W        W23267   9.750   6.302   3.660 -0.3180  0.2180 -0.1931
 7084W        W23268   7.503  16.373   5.076  0.0360 -0.3394 -0.1021
 7085W        W23269   8.122  15.953   2.353  0.0907 -0.2753  0.2634
 7086W        W23270  16.525   7.731   4.393 -0.1642 -0.0402 -0.1550
 7087W        W23271   3.959  16.192  16.322 -0.1634  0.2515 -0.0377
 7088W        W23272   3.499  16.061   2.182  0.1578  0.1795 -0.2540
 7089W        W23273  16.491  12.152   3.703  0.0407 -0.1857  0.1616
 7090W        W23274  12.637  10.911  12.746 -0.2506 -0.0355 -0.0424
 7091W        W23275  10.165   5.078  15.457  0.0303  0.0973  0.1194
 7092W        W23276  15.809  11.069  14.787 -0.0285 -0.1020 -0.0280
 7093W        W23277   0.585   6.217   4.110  0.0852  0.2612  0.2418
 7094W        W23278  12.805  15.942  13.478 -0.0266  0.0502 -0.1274
 7095W        W23279   3.214   6.981   3.055 -0.1984 -0.0845 -0.2610
 7096W        W23280  10.694   6.944   5.274 -0.1399 -0.2878 -0.0173
 7097W        W23281  11.680  11.684  15.842 -0.0133  0.3289 -0.0059
 7098W        W23282   2.471   1.981   0.261  0.1228 -0.1347 -0.1383
 7099W        W23283  13.141  17.017   1.567 -0.2956  0.0738  0.3305
 7100W        W23284   7.961   5.671  13.628 -0.2616  0.1683  0.1243
 7101W        W23285  14.189   6.845   2.570 -0.0344 -0.0483  0.2944
 7102W        W23286  15.124   7.678  14.662  0.1812  0.0280 -0.1273
 7103W        W23287  13.634  15.345  12.672 -0.0203 -0.1943 -0.1656
 7104W        W23288   7.056   2.573   5.447  0.1166  0.0343  0.2204
 7105W        W23289  10.574   7.616  16.529  0.0932 -0.2311 -0.1406
 7106W        W23290  14.179  15.643   0.095 -0.1919  0.0500  0.1484
 7107W        W23291   5.266  17.315   0.134 -0.0122  0.0215 -0.1606
 7108W        W23292   6.198  12.386   1.613  0.0472  0.1080 -0.3290
 7109W        W23293  16.312  12.679   3.828  0.0001  0.1134  0.2563
 7110W        W23294   7.744   7.557   3.006 -0.3257 -0.0048 -0.1107
 7111W        W23295  17.593   2.702   1.665  0.1697  0.2744  0.0541
 7112W        W23296  13.985   0.921   1.050  0.3080 -0.1525  0.1028
 7113W        W23297  16.317   7.846   5.466  0.1241  0.0983 -0.1543
 7114W        W23298   8.985   2.198  11.702 -0.2345  0.1395 -0.3807
 7115W        W23299  17.057   2.262  15.171 -0.0808 -0.0375  0.0549
 7116W        W23300  11.560  10.427   3.792  0.1089 -0.1732  0.0768
 7117W        W23301  17.839  15.234  13.839  0.0294  0.0754 -0.1395
 7118W        W23302   9.375   5.901  12.902  0.1367 -0.0339 -0.0599
 7119W        W23303  15.399   6.040   1.875 -0.1416 -0.1184  0.4701
 7120W        W23304  13.561  16.857  14.189  0.0852 -0.0015  0.1460
 7121W        W23305  10.678   9.147   0.394  0.2279 -0.2370 -0.2894
 7122W        W23306  10.185  17.322   4.733  0.0158  0.1121  0.3578
 7123W        W23307   7.853  14.517  16.658 -0.0225  0.1320  0.0936
 7124W        W23308   5.327   5.088   5.668 -0.2487 -0.3441 -0.1860
 7125W        W23309   7.334  12.487  15.468 -0.0428  0.0682 -0.3840
 7126W        W23310   8.947   1.821  12.080 -0.2946  0.1389  0.0106
 7127W        W23311  13.739   7.291  14.713  0.2494  0.1269  0.2875
 7128W        W23312   6.618   9.719   1.233  0.2185  0.3067  0.0825
 7129W        W23313   7.801  11.906   4.080 -0.3674  0.0746 -0.0009
 7130W        W23314   1.183   9.582  16.046 -0.0974 -0.1129 -0.0549
 7131W        W23315   7.913   2.215  15.079  0.0875  0.2050  0.0529
 7132W        W23316   5.743  16.637   3.103  0.2333  0.0156  0.2616
 7133W        W23317   2.280   6.425  12.218 -0.0390  0.1959 -0.4521
 7134W        W23318  14.290   9.703  11.282  0.1415 -0.1701 -0.0434
 7135W        W23319  10.714   4.803   4.731  0.3856  0.3680  0.2948
 7136W        W23320   1.534   8.590  12.639 -0.1377  0.0149  0.6297
 7137W        W23321  11.737   4.640  12.706  0.0896  0.0590  0.0631
 7138W        W23322  12.842   8.842   3.835  0.2392  0.0098 -0.1995
 7139W        W23323  14.653  13.659  13.652 -0.1206  0.0613  0.1767
 7140W        W23324   7.736   8.405  15.095  0.3025  0.2338  0.2644
 7141W        W23325   1.995   1.508  14.785 -0.2127 -0.2208 -0.2290
 7142W        W23326   4.285   6.950  15.444  0.1001 -0.0403 -0.2170
 7143W        W23327  13.375   5.963   1.942 -0.1107 -0.0373  0.0522
 7144W        W23328   5.839   7.253  16.126 -0.1945 -0.0188 -0.1649
 7145W        W23329  12.039   8.835   4.458  0.1036 -0.2414  0.0527
 7146W        W23330   4.565  17.092  16.499  0.1797  0.3517  0.0011
 7147W        W23331  10.899   8.438   0.183  0.0584 -0.0183  0.2335
 7148W        W23332   5.120   5.662  12.534 -0.3171 -0.1776  0.0411
 7149W        W23333   0.482  13.195  16.308 -0.1187  0.3757 -0.1211
 7150W        W23334  13.009  12.224   1.406  0.1540 -0.0246 -0.2070
 7151W        W23335   6.215  16.988   0.127  0.0606 -0.0538 -0.2146
 7152W        W23336   2.876  15.126  15.810  0.3721  0.0467 -0.0556
 7153W        W23337   0.730  14.481   0.093  0.2799 -0.0034  0.2180
 7154W        W23338   2.432  17.986   5.592  0.1521 -0.2177 -0.0818
 7155W        W23339   1.223  16.825   0.046  0.0892 -0.0039 -0.1947
 7156W        W23340   6.849  17.141   1.993 -0.1746  0.0305 -0.2267
 7157W        W23341   2.022  16.730   5.275 -0.2926  0.4889 -0.0288
 7158W        W23342  16.948   1.870   0.794 -0.2836  0.4248  0.0884
 7159W        W23343  14.483   3.526   3.931 -0.0825  0.1405 -0.0400
 7160W        W23344  17.209   4.688   9.341 -0.2228 -0.1203  0.1154
 7161W        W23345   2.881  15.790  13.898 -0.1414 -0.2037  0.0237
 7162W        W23346   3.186  10.863  12.155  0.3513 -0.1126  0.2728
 7163W        W23347   9.651   2.163   4.050 -0.0731  0.1737 -0.4156
 7164W        W23348  11.342  12.048  12.412 -0.2908  0.2435  0.0558
 7165W        W23349   7.071   9.929   4.129 -0.0798 -0.0483  0.1529
 7166W        W23350  12.086  14.144   1.556 -0.1028 -0.1356  0.0313
 7167W        W23351  17.292  14.032   5.034 -0.5323  0.0158  0.1388
 7168W        W23352  13.618  17.347   4.511 -0.2290 -0.0020 -0.0238
 7169W        W23353  10.348   7.068   3.151  0.1781 -0.2752 -0.2206
 7170W        W23354  16.904  11.306   4.146  0.1976 -0.1987 -0.0880
 7171W        W23355  15.452   6.846   4.969 -0.3300 -0.3368  0.1634
 7172W        W23356   1.303  13.197   2.847  0.3529  0.0241  0.1525
 7173W        W23357  12.949   7.416  11.802 -0.1170 -0.3497  0.0518
 7174W        W23358  11.533  16.408  13.892  0.3014  0.1137  0.0390
 7175W        W23359  10.565  12.660  15.578 -0.2192  0.3739  0.0817
 7176W        W23360   2.383  10.806  12.793  0.4807  0.0303 -0.4793
 7177W        W23361   3.727   3.875   0.747  0.6803  0.0339  0.0574
 7178W        W23362  11.136   3.086  13.562 -0.5598  0.0666  0.0848
 7179W        W23363  11.108  15.306   6.335 -0.2044  0.2117  0.3521
 7180W        W23364   2.816   1.410  12.118  0.1598  0.0089  0.0046
 7181W        W23365   3.706  17.397  14.550 -0.0087 -0.2647 -0.1308
 7182W        W23366  10.087   8.975   4.789  0.2971  0.0258 -0.1646
 7183W        W23367   4.870  13.032   4.040 -0.1952  0.2180  0.2214
 7184W        W23368  15.126   5.491  15.001 -0.0070  0.5854 -0.0701
 7185W        W23369  15.031  10.145   5.120  0.0578 -0.0765 -0.1910
 7186W        W23370  11.497   9.971   5.931  0.0335 -0.1306 -0.1238
 7187W        W23371   9.868   5.794   1.382 -0.0012  0.0801 -0.1270
 7188W        W23372  13.303   7.557  14.465 -0.0681  0.4509  0.0564
 7189W        W23373  15.925  11.647   1.692 -0.1717 -0.0712 -0.0275
 7190W        W23374  15.610  16.524   2.772  0.0334 -0.2886  0.0413
 7191W        W23375  14.869  17.976  14.921  0.0877  0.4336 -0.1054
 7192W        W23376   6.254  10.165   6.540  0.0061  0.1129 -0.1166
 7193W        W23377  12.536  10.487   5.388 -0.3424  0.1095 -0.2113
 7194W        W23378  15.896   5.202   5.147  0.0436 -0.1199  0.1235
 7195W        W23379   0.518   7.436  15.632  0.1230  0.0563 -0.0566
 7196W        W23380  13.944  16.102   1.757  0.0429 -0.2076 -0.0776
 7197W        W23381  17.540   8.771   0.297 -0.0943 -0.0481  0.2448
 7198W        W23382  17.476  17.897  13.225 -0.0509  0.0351 -0.0605
 7199W        W23383   2.571   6.021  11.457  0.1823 -0.4317  0.2105
 7200W        W23384   4.275   4.996  12.240  0.0622 -0.1263  0.1104
 7201W        W23385  11.874  13.642   0.686 -0.4174 -0.0928  0.2487
 7202W        W23386  13.513   0.412   1.871  0.0926 -0.0821 -0.1167
 7203W        W23387   9.280   2.656  12.472  0.1424  0.0135  0.2022
 7204W        W23388   8.994   8.553  15.371 -0.1479 -0.1144  0.2721
 7205W        W23389   5.924   5.513  15.885  0.1298 -0.0257  0.3762
 7206W        W23390  10.954  11.263  15.102  0.0584 -0.0491  0.0546
 7207W        W23391   0.719   8.508  12.085  0.0810  0.1140 -0.3555
 7208W        W23392   0.672   6.837  16.142 -0.1908 -0.1421 -0.2249
 7209W        W23393  13.896   4.771  13.535  0.2687 -0.1829  0.0499
 7210W        W23394   8.652  14.938   2.234 -0.0442  0.1622 -0.3119
 7211W        W23395   1.148   7.805   4.600  0.1130 -0.0205  0.1733
 7212W        W23396  17.727  13.215   2.982  0.1756 -0.1579 -0.4538
 7213W        W23397  17.943   3.072   1.822 -0.1962 -0.1681  0.1383
 7214W        W23398  12.250   9.628  12.492  0.2236  0.1259 -0.0502
 7215W        W23399   0.476  17.196  12.754 -0.2102  0.0692  0.0146
 7216W        W23400   6.729   7.079   1.455 -0.2397 -0.2749  0.0168
 7217W        W23401   6.256  14.727  12.981 -0.2459 -0.1363 -0.0165
 7218W        W23402   6.507   1.243  15.701 -0.0734  0.1319 -0.0529
 7219W        W23403   3.665   6.139  13.630  0.1375  0.0391 -0.1264
 7220W        W23404   9.314   7.864   2.276 -0.2065  0.1501  0.0136
 7221W        W23405   9.262   2.354   0.385  0.3848 -0.1454  0.2535
 7222W        W23406   3.093   5.091   3.620 -0.2436  0.2270 -0.2166
 7223W        W23407  10.272  17.802   5.010  0.0004  0.0694 -0.0346
 7224W        W23408  16.553   2.640  15.280  0.2306  0.2072  0.0189
 7225W        W23409   0.253  12.092  13.332 -0.2842  0.1140 -0.1982
 7226W        W23410   8.257   3.898   5.554 -0.1009  0.0378 -0.0381
 7227W        W23411  16.055   8.972   1.871  0.4002 -0.3033 -0.1407
 7228W        W23412  14.564   7.946   1.752  0.0058 -0.0847  0.1423
 7229W        W23413   3.533  12.177  12.516  0.6295  0.1289 -0.1078
 7230W        W23414  18.037  11.140  16.083  0.0372  0.3123  0.3652
 7231W        W23415   8.677   5.217   3.520  0.1827  0.0965 -0.2130
 7232W        W23416   6.596  17.819   0.667 -0.3204 -0.1784  0.1156
 7233W        W23417   6.274   7.323   3.767 -0.0746 -0.1563 -0.1675
 7234W        W23418  17.209   8.042  13.207 -0.0214 -0.2598  0.1562
 7235W        W23419   2.554   5.512  16.180  0.0885 -0.2400  0.0689
 7236W        W23420   2.321   0.211   5.337  0.0415 -0.2053  0.2073
 7237W        W23421  12.597   3.344   0.513 -0.1016  0.1322  0.2018
 7238W        W23422  16.538   4.392  11.721  0.1552  0.3181  0.2298
 7239W        W23423   8.261   2.899   1.965 -0.0733  0.1153 -0.0502
 7240W        W23424  15.695   3.416  14.242 -0.1327 -0.2689  0.0895
 7241W        W23425   0.160   9.168  12.777 -0.1818  0.0092  0.1480
 7242W        W23426  12.568  13.693   3.974 -0.1595 -0.1730 -0.1167
 7243W        W23427  12.203  17.019   3.374 -0.1342  0.1694  0.3925
 7244W        W23428  10.893   8.117   4.624  0.1903  0.1096  0.1081
 7245W        W23429   9.932   5.735  13.852 -0.3137  0.4594 -0.0936
 7246W        W23430   3.664  15.335  11.906  0.1870 -0.3889 -0.0806
 7247W        W23431   9.779  15.928   4.908  0.1507  0.6761 -0.0120
 7248W        W23432  13.825  13.920   3.736 -0.3568 -0.1826 -0.0463
 7249W        W23433  13.952  17.752  15.558  0.3607  0.0414  0.2785
 7250W        W23434   9.911  14.413   4.115  0.0093  0.0773 -0.0021
 7251W        W23435  16.000  15.199   4.185 -0.0355  0.3074  0.1317
 7252W        W23436   4.727   9.164   1.531  0.2065 -0.0031  0.0367
 7253W        W23437   8.538   6.811   0.257 -0.2137  0.0496  0.1109
 7254W        W23438   1.352  15.949  14.574  0.2549  0.1179 -0.0702
 7255W        W23439   6.113   6.011   4.856  0.2894  0.2322  0.0060
 7256W        W23440  11.304  16.222   0.468  0.2039  0.0939  0.2401
 7257W        W23441   2.095   5.721  13.637  0.4760 -0.2415 -0.1499
 7258W        W23442  15.154  14.865   4.066 -0.1603  0.2083  0.0054
 7259W        W23443  16.605   2.625   2.513 -0.0054  0.3830 -0.2265
 7260W        W23444  15.521  12.867  11.707  0.1168  0.1346  0.2850
 7261W        W23445   6.483   3.946   0.125 -0.1559 -0.2076  0.1499
 7262W        W23446   7.054  12.775  14.048  0.0547 -0.0516 -0.0032
 7263W        W23447  14.484   8.306  10.342  0.1748 -0.2754  0.1727
 7264W        W23448   6.968  17.688   0.277 -0.3137 -0.3737 -0.0250
 7265W        W23449   6.688  14.141   0.881  0.1803  0.0214 -0.0580
 7266W        W23450  17.571   5.721   2.188 -0.1896 -0.1229 -0.0108
 7267W        W23451   6.471   5.401  15.625  0.3642  0.0800  0.5902
 7268W        W23452   5.926   7.122  14.008 -0.1199 -0.1353 -0.1802
 7269W        W23453   4.953   3.781   1.457  0.0663  0.0354 -0.0842
 7270W        W23454   4.259  12.275   3.434  0.2913  0.0425 -0.0476
 7271W        W23455  11.126  11.576  15.955  0.1641  0.3563 -0.0444
 7272W        W23456   8.779   3.606  15.943 -0.1107 -0.2513  0.1812
 7273W        W23457   3.251  15.521  11.706 -0.0961  0.1107 -0.1799
 7274W        W23458  12.602  11.351   5.059 -0.0834 -0.1213  0.0989
 7275W        W23459   2.206  12.442   4.517 -0.0723 -0.0584  0.0561
 7276W        W23460  13.811  12.186   3.311 -0.1525 -0.0200  0.0230
 7277W        W23461  12.064   1.279   4.707  0.3343 -0.0767  0.1061
 7278W        W23462  16.439  14.668  16.552 -0.3692  0.2806 -0.0510
 7279W        W23463  11.339   0.138  16.574 -0.0386  0.2340  0.0097
 7280W        W23464   8.912  10.589   3.033 -0.0178 -0.0058  0.2253
 7281W        W23465  13.229   4.286   5.429 -0.3393 -0.2664  0.0731
 7282W        W23466  13.265   2.462  15.593  0.1248 -0.1671 -0.1542
 7283W        W23467   2.854  13.040   5.196  0.1199  0.0957 -0.0665
 7284W        W23468   5.920   2.699  12.873  0.0076 -0.0398  0.0490
 7285W        W23469   8.572  13.096   2.450  0.0491 -0.3780 -0.4337
 7286W        W23470   0.459  10.202  15.066  0.2057  0.1824 -0.0017
 7287W        W23471   6.739  12.700   0.512 -0.1870  0.0954 -0.1882
 7288W        W23472   5.112  14.985   5.387  0.2237 -0.1554 -0.0698
 7289W        W23473   2.666   9.739   1.856 -0.5339 -0.1401 -0.0697
 7290W        W23474  12.435  15.445   4.991  0.1049 -0.2310  0.0661
 7291W        W23475  16.198  11.878  14.310  0.3744 -0.0946 -0.0619
 7292W        W23476   4.534   2.968  16.484  0.4956 -0.2687  0.1360
 7293W        W23477  10.368  16.846  12.151  0.1342 -0.0298 -0.0424
 7294W        W23478  17.736  13.969   0.613 -0.1623 -0.0897  0.0608
 7295W        W23479  17.192  17.752  14.923 -0.2467  0.0391  0.0427
 7296W        W23480  10.539  14.859   5.011 -0.1675 -0.1820  0.1581
 7297W        W23481   8.219   3.720  13.846  0.1968  0.0633  0.1338
 7298W        W23482  10.472  16.060  12.718 -0.0088 -0.0751  0.1909
 7299W        W23483   0.774   5.909   3.286 -0.0777 -0.0449  0.0470
 7300W        W23484   9.359  11.738  13.709  0.0754  0.0762 -0.2717
 7301W        W23485   0.778  12.930   4.177 -0.1974 -0.0535  0.2202
 7302W        W23486   4.959  11.256  14.831 -0.2061 -0.1093  0.0462
 7303W        W23487  11.035  16.098  15.680 -0.1088 -0.0491  0.2538
 7304W        W23488  10.151  17.798  12.807 -0.1820  0.0238  0.0563
 7305W        W23489   2.315   9.330   1.655 -0.2308 -0.0629 -0.2274
 7306W        W23490  15.055   8.318   1.099  0.2036 -0.3622  0.0082
 7307W        W23491  16.711   0.978  13.178  0.1001  0.2132  0.1279
 7308W        W23492   2.194   6.325  16.066 -0.0378  0.2280  0.0330
 7309W        W23493  17.551   1.864   3.422 -0.1780  0.5476  0.0095
 7310W        W23494   7.909   5.191   0.962  0.1833  0.1320  0.2711
 7311W        W23495  13.737   5.354  13.041 -0.2089  0.2769 -0.2845
 7312W        W23496  13.421   7.749  16.406 -0.2378  0.3807 -0.0178
 7313W        W23497  13.103  13.013   0.204  0.0163 -0.0100 -0.2200
 7314W        W23498   7.700  11.749   2.433 -0.0303  0.1665  0.0399
 7315W        W23499  12.854   8.187   2.129 -0.1619  0.0450  0.1142
 7316W        W23500   9.036   6.256  11.871 -0.1262  0.0138  0.0939
 7317W        W23501   8.325   7.570   5.078 -0.0284  0.2351 -0.0911
 7318W        W23502   2.139  17.013   2.719 -0.0944  0.0749  0.1599
 7319W        W23503  15.019  11.219   0.758  0.4082  0.3224 -0.2344
 7320W        W23504   2.229   8.583   4.669  0.0094  0.1045 -0.0015
 7321W        W23505  15.223  14.294   0.015  0.0596 -0.0440 -0.0127
 7322W        W23506   1.942  16.923  15.431 -0.0620 -0.2169  0.2080
 7323W        W23507   3.700   4.088   5.301 -0.0808  0.0041  0.0196
 7324W        W23508   6.826  14.604   0.867 -0.0042 -0.1238 -0.2159
 7325W        W23509   7.620  17.581   2.450  0.3258 -0.0046 -0.0428
 7326W        W23510  16.036   0.370   2.116  0.0725 -0.0402  0.0841
 7327W        W23511   8.533   1.265  14.687 -0.2527  0.5452  0.0448
 7328W        W23512   9.799   6.385  12.402 -0.0478 -0.5793 -0.5771
 7329W        W23513  15.712   1.000   4.675  0.2531 -0.1036 -0.0537
 7330W        W23514   1.701  12.621   5.012  0.0154 -0.3977 -0.1788
 7331W        W23515  17.323  14.164  13.007  0.1900 -0.3569 -0.1008
 7332W        W23516   0.859   9.657   4.071 -0.1101  0.2403 -0.0318
 7333W        W23517  12.285  17.538   1.520  0.2361 -0.3227 -0.0751
 7334W        W23518  14.987   1.588  13.091  0.0309  0.1878  0.0812
 7335W        W23519  10.954   5.202  16.196  0.0760 -0.1849 -0.0907
 7336W        W23520   8.953  15.540   2.956  0.1970 -0.1578 -0.2981
 7337W        W23521   2.677  10.323  14.301  0.0069  0.1014  0.0321
 7338W        W23522   9.637   7.589  13.287 -0.0409 -0.1145  0.2635
 7339W        W23523   0.300   4.234  12.461 -0.2255  0.3556 -0.2260
 7340W        W23524   2.694   5.668  11.145  0.1946 -0.1368 -0.0653
 7341W        W23525  12.144   4.080  16.509 -0.0434 -0.0356  0.1334
 7342W        W23526  16.627   1.754  16.525 -0.1274 -0.2896 -0.3367
 7343W        W23527   7.219   7.002  16.325 -0.2462 -0.1092  0.0828
 7344W        W23528  14.597   2.068   4.907  0.2872  0.3515 -0.0001
 7345W        W23529  12.682  11.588   2.808 -0.1547  0.0084  0.0998
 7346W        W23530  16.948   3.649   2.299 -0.1027  0.0207 -0.0889
 7347W        W23531  11.110  14.555  16.485  0.1524  0.0434  0.2614
 7348W        W23532   0.183   0.508   5.685 -0.0440  0.2851  0.1533
 7349W        W23533  13.462   0.965   1.051 -0.1487 -0.0023  0.0332
 7350W        W23534  16.078   3.137   3.957 -0.0595 -0.1851  0.4375
 7351W        W23535  10.517   7.662  15.438 -0.0738 -0.1639 -0.0416
 7352W        W23536   0.156  16.564   2.516  0.2476 -0.1943 -0.0897
 7353W        W23537   9.222   5.216   2.728  0.0829 -0.0214  0.3583
 7354W        W23538   5.937   1.662   0.327 -0.0694 -0.2770 -0.2756
 7355W        W23539  16.990  10.143   1.351 -0.0779 -0.1390 -0.0442
 7356W        W23540   3.867   0.548  12.196  0.2062 -0.1241 -0.1490
 7357W        W23541  12.557  11.046   0.455  0.1310  0.0762 -0.2674
 7358W        W23542  16.574  17.152  14.997  0.1743  0.0575  0.1617
 7359W        W23543  15.794   9.828  14.366 -0.0140 -0.0930  0.1064
 7360W        W23544   9.535  13.502   1.312  0.2474  0.0891 -0.1074
 7361W        W23545   8.952  17.505  13.395 -0.0325  0.0998 -0.1774
 7362W        W23546   0.465   6.528  15.309  0.2311  0.3159 -0.0816
 7363W        W23547   2.789  11.525   1.178  0.3049 -0.1088  0.4651
 7364W        W23548  10.770  16.554   5.312  0.0661 -0.1763 -0.1629
 7365W        W23549   0.097   3.629   4.973 -0.2017 -0.1750  0.3569
 7366W        W23550   6.071   4.269   3.407  0.0180  0.1279  0.1417
 7367W        W23551  12.237   9.856   1.856  0.2757 -0.0695 -0.0696
 7368W        W23552   0.972  13.495   0.147  0.3276 -0.3181  0.3421
 7369W        W23553   1.030  15.297   1.569 -0.1556  0.1181 -0.0628
 7370W        W23554  10.112   9.400  11.439 -0.0992 -0.0879 -0.0572
 7371W        W23555   6.638   5.527  14.158 -0.0900 -0.3118 -0.0964
 7372W        W23556   4.348   4.950   4.631  0.1051  0.1021 -0.1314
 7373W        W23557  15.426   0.687   1.520 -0.0417 -0.0048  0.1003
 7374W        W23558  12.371   1.976   3.260 -0.0813  0.0351 -0.0623
 7375W        W23559   5.078   1.215  16.676  0.0848  0.0566  0.0007
 7376W        W23560  13.154   4.253  13.470 -0.4255 -0.0974 -0.0226
 7377W        W23561   7.199   0.507   4.963 -0.3396  0.1048  0.4301
 7378W        W23562   4.750   4.074   0.219  0.0576 -0.0955  0.0645
 7379W        W23563  14.509   1.004  12.593  0.2636  0.1974 -0.1088
 7380W        W23564  11.681  12.424   4.017  0.1706  0.1935  0.1265
 7381W        W23565   8.504   5.867  16.113 -0.0716 -0.0476 -0.1037
 7382W        W23566  13.206   6.759  13.871  0.2845  0.0193 -0.2169
 7383W        W23567   7.494   6.304   4.438  0.1435  0.1005  0.1190
 7384W        W23568  13.844   4.207   4.068  0.0081  0.2729 -0.1994
 7385W        W23569   7.767   0.987  12.909  0.3163  0.1052  0.1894
 7386W        W23570  14.795  13.758   1.772 -0.1773 -0.2443  0.1205
 7387W        W23571  11.213   3.920   3.275 -0.1121  0.3023 -0.1831
 7388W        W23572   8.447   0.165  10.605  0.0590  0.1097 -0.0391
 7389W        W23573   7.231  17.890  15.666  0.2266 -0.0454 -0.2448
 7390W        W23574  17.687   7.064   4.582  0.0350  0.0477  0.2380
 7391W        W23575   4.298   7.126  14.943  0.1248  0.0843 -0.1457
 7392W        W23576   1.409   4.162   2.159  0.0154  0.0533  0.0336
 7393W        W23577   4.414  14.634   0.891  0.0324 -0.1576  0.0213
 7394W        W23578   4.148  13.478   4.060 -0.1178 -0.1322 -0.1119
 7395W        W23579  15.659  10.168   3.799  0.1462  0.0987  0.0002
 7396W        W23580  13.439   2.400   4.349  0.2319 -0.2688 -0.0312
 7397W        W23581   9.171  13.641  11.897  0.5241  0.0696  0.0422
 7398W        W23582  16.259  15.396  12.508 -0.3120  0.0853  0.0769
 7399W        W23583   5.093   6.449   0.465 -0.1869  0.5112  0.2000
 7400W        W23584   3.469  17.514   4.186  0.1662  0.0611  0.0925
 7401W        W23585  15.568  14.981  16.350 -0.1572 -0.0659  0.1670
 7402W        W23586   0.770   1.007  14.214 -0.2925 -0.0189 -0.0041
 7403W        W23587  13.038   0.706  15.719  0.0457 -0.0291 -0.3661
 7404W        W23588  14.642   4.539   0.328 -0.0690 -0.1374 -0.2029
 7405W        W23589  15.948   3.579   1.326  0.2639 -0.0657  0.0831
 7406W        W23590  17.152   5.425  12.409  0.0304  0.3403  0.1186
 7407W        W23591  16.689   6.411   4.850 -0.6641  0.3374 -0.0915
 7408W        W23592  15.311  11.453  15.796 -0.1985 -0.1469 -0.1835
 7409W        W23593  15.601   1.707   1.312  0.0404 -0.2175  0.0097
 7410W        W23594  14.505  14.518  12.416 -0.0866  0.0850  0.1746
 7411W        W23595   8.088  13.520   4.533  0.2410 -0.0687 -0.0374
 7412W        W23596  11.235  17.243   5.351  0.1723  0.1639  0.0386
 7413W        W23597   1.734  10.852   4.055  0.1507  0.0902 -0.0475
 7414W        W23598  10.181   5.958  14.862  0.2407 -0.1580 -0.3618
 7415W        W23599   8.280   8.796   2.025  0.1023 -0.1082 -0.1269
 7416W        W23600  15.134  15.540  13.865  0.0644 -0.0566  0.3471
 7417W        W23601  18.008   1.283   0.528 -0.3101 -0.0425 -0.2321
 7418W        W23602  17.533   0.573  11.726 -0.2176 -0.3658  0.0780
 7419W        W23603   6.330   0.715  11.772 -0.0439 -0.1370  0.3130
 7420W        W23604  17.791   4.127  11.214 -0.0561  0.0487 -0.1504
 7421W        W23605   5.757  13.078  14.649 -0.1527  0.0614 -0.0237
 7422W        W23606  11.448   6.168  13.122  0.1376 -0.1358 -0.1827
 7423W        W23607  17.910  12.506  13.444 -0.0321  0.2399  0.0565
 7424W        W23608   6.227   1.435   5.551  0.3992  0.2220  0.1938
 7425W        W23609  10.882  10.188  15.903 -0.0304  0.0870 -0.0223
 7426W        W23610  10.848   0.111  11.152 -0.3734  0.2871  0.0710
 7427W        W23611   7.635   3.912  12.321 -0.1039 -0.1311 -0.1215
 7428W        W23612  15.339  11.307   5.101 -0.5521  0.1384  0.0917
 7429W        W23613   0.358   5.477  14.659 -0.3263 -0.2964  0.0400
 7430W        W23614   1.706  13.153   5.125 -0.1230  0.0771 -0.2688
 7431W        W23615   1.199   2.491  16.332  0.0178  0.0590 -0.0797
 7432W        W23616   1.486  10.085  11.252 -0.1849 -0.0024  0.1832
 7433W        W23617   7.104  17.955  14.110 -0.2891 -0.3019 -0.0461
 7434W        W23618   0.692  12.778   5.956  0.0725  0.1082 -0.0702
 7435W        W23619   6.450  11.891  12.139 -0.3551  0.1967  0.4753
 7436W        W23620  10.544  15.835  14.447 -0.0460 -0.3035  0.3403
 7437W        W23621   0.709  17.477   4.197  0.1248  0.0215 -0.1044
 7438W        W23622   3.293  14.925   3.908  0.0523  0.1372 -0.0668
 7439W        W23623  17.105  18.018   0.836  0.1855 -0.0682 -0.0338
 7440W        W23624   3.479   6.275  15.578  0.0633 -0.1592 -0.0500
 7441W        W23625  14.006  17.976   2.940 -0.1761  0.5051 -0.0095
 7442W        W23626   5.276  10.454   2.618  0.0233  0.2241  0.0364
 7443W        W23627  14.448   2.512   0.829 -0.0101  0.2950  0.1574
 7444W        W23628   2.344  15.933  15.441  0.1149 -0.0657 -0.0156
 7445W        W23629  16.964  10.256   3.810  0.2920  0.5318 -0.1011
 7446W        W23630   7.572  12.723  13.997 -0.2287 -0.0383 -0.1778
 7447W        W23631  18.137   7.682  14.159  0.2026  0.4651  0.2179
 7448W        W23632  15.501   2.553   0.262 -0.4206  0.1453 -0.2031
 7449W        W23633   7.311   7.832  16.151 -0.0123 -0.0150 -0.1285
 7450W        W23634   0.952  16.855   3.774  0.1226  0.0838  0.1167
 7451W        W23635  12.388  10.663   2.056 -0.1415  0.0907 -0.2968
 7452W        W23636   6.625  11.068  15.511 -0.1119 -0.2482 -0.2922
 7453W        W23637   1.965   7.347  14.865  0.4563 -0.1216  0.0931
 7454W        W23638   7.413  17.103   5.720 -0.0228 -0.2293 -0.1853
 7455W        W23639  13.999  15.122  15.388 -0.1683  0.1729  0.3815
 7456W        W23640   9.631   0.859   0.894 -0.1309  0.1129 -0.0851
 7457W        W23641  13.390   1.807   0.637  0.2310  0.1417 -0.0598
 7458W        W23642  11.276   2.730   2.067 -0.3454 -0.1309  0.2110
 7459W        W23643  13.487   6.660   1.360 -0.0092 -0.1028  0.4985
 7460W        W23644   1.473  16.244  12.435  0.0178 -0.1600 -0.2244
 7461W        W23645  13.418   8.054   0.524 -0.1152  0.1786 -0.1066
 7462W        W23646   9.979  12.951   2.748  0.1379 -0.1612  0.0317
 7463W        W23647  16.214  11.540  11.304 -0.0015 -0.1926  0.0109
 7464W        W23648  10.921  11.771   0.953 -0.1717 -0.1369  0.0116
 7465W        W23649  13.818   6.776  13.582  0.1282  0.1707  0.2873
 7466W        W23650   9.788   8.481  14.952  0.0923  0.2913  0.2177
 7467W        W23651   5.891   1.272   0.735 -0.4261 -0.2681  0.0498
 7468W        W23652  11.465   4.794  13.784  0.2121 -0.1133 -0.2809
 7469W        W23653  17.257   4.442  16.557  0.0046  0.0245  0.3557
 7470W        W23654   4.544   9.268   2.982 -0.0514  0.0175  0.2082
 7471W        W23655  17.254  15.095  12.925 -0.2203 -0.1047  0.0419
 7472W        W23656  11.397   0.960   4.765 -0.2261  0.0208 -0.1378
 7473W        W23657  11.422   5.159   3.117 -0.1568  0.0868 -0.2770
 7474W        W23658  10.034  10.202  12.791  0.4015 -0.0235 -0.0892
 7475W        W23659   3.706   0.027   1.568  0.2222  0.1446  0.3856
 7476W        W23660   0.102   6.212  12.386  0.3670  0.1276  0.1403
 7477W        W23661   1.475  13.480  16.075  0.1366 -0.2220  0.3011
 7478W        W23662  14.002  10.624   6.376  0.1073 -0.1032 -0.0858
 7479W        W23663   8.781  14.157   4.632  0.0419 -0.0793  0.0482
 7480W        W23664   8.386  13.264   0.020  0.2117  0.1494  0.2510
 7481W        W23665   0.985   4.660  12.081  0.1840 -0.2559  0.1186
 7482W        W23666   5.479  16.898   4.084 -0.0937  0.1611  0.0807
 7483W        W23667   2.287  15.056   6.047  0.1023  0.1963  0.1713
 7484W        W23668  16.138   8.853  14.756  0.2320  0.0449 -0.0981
 7485W        W23669   0.108   4.755  15.735  0.0130 -0.0328 -0.2990
 7486W        W23670   9.118   2.075   1.055  0.0148  0.0301 -0.0611
 7487W        W23671  10.171   5.039   0.460 -0.0905  0.0465  0.0723
 7488W        W23672  14.437  10.222  13.397 -0.3148  0.1381 -0.0819
 7489W        W23673  17.365   8.875   1.088 -0.4703  0.0030 -0.1531
 7490W        W23674  17.940   4.247   3.856 -0.1884  0.2723 -0.0691
 7491W        W23675  17.781   6.149   2.491 -0.0276 -0.1697 -0.0092
 7492W        W23676  11.859   3.521   2.220 -0.0558 -0.1525  0.1878
 7493W        W23677  12.093  16.094   1.654  0.0964 -0.0760 -0.1416
 7494W        W23678  11.377   8.965  12.099 -0.3326  0.1396 -0.1047
 7495W        W23679  17.153  12.396  16.219  0.2005 -0.2832  0.0971
 7496W        W23680  17.464   2.553  12.559 -0.1316 -0.1009 -0.0684
 7497W        W23681  11.327   5.951   1.251 -0.0258 -0.0645 -0.0365
 7498W        W23682   0.067  13.789   0.331 -0.5072 -0.2379  0.1743
 7499W        W23683  14.770   4.704   4.380 -0.1308  0.2435 -0.1357
 7500W        W23684  18.047   5.396  15.118 -0.1853  0.3132 -0.1219
 7501W        W23685  15.423   1.840  13.083  0.0728  0.2036  0.1229
 7502W        W23686   1.959   5.149   4.288 -0.2608 -0.0508 -0.0528
 7503W        W23687   8.174   4.953   3.472 -0.2038  0.3807 -0.1645
 7504W        W23688  11.278  16.338  10.724  0.0831 -0.0915 -0.0748
 7505W        W23689   0.076   9.005  16.658  0.2218  0.2488  0.1142
 7506W        W23690  13.261  10.681  12.282 -0.1276 -0.1256  0.0436
 7507W        W23691   0.090  10.604   3.537 -0.1995 -0.2913  0.3178
 7508W        W23692  14.769  12.466   0.672  0.0774  0.1186  0.0376
 7509W        W23693   7.970   2.655   1.032  0.1762 -0.1429  0.3451
 7510W        W23694   6.254  13.029   2.482 -0.1307 -0.0794  0.1583
 7511W        W23695   1.361   2.359   2.311 -0.2520  0.0821 -0.0069
 7512W        W23696  17.996  18.101  12.114 -0.1914  0.2287  0.1761
 7513W        W23697   3.266  10.859  11.561 -0.1515  0.0943 -0.0514
 7514W        W23698   6.247  12.886  15.901 -0.3027 -0.2485 -0.0046
 7515W        W23699  18.024   8.182   4.642 -0.0449 -0.1956  0.5303
 7516W        W23700  17.833   2.576   3.360  0.1473  0.2702  0.1081
 7517W        W23701   7.214  12.050   2.598  0.0979 -0.3070  0.1735
 7518W        W23702  10.641  17.142   4.740 -0.0131 -0.1669  0.1606
 7519W        W23703   6.503   5.095   5.534  0.3171 -0.2214  0.0648
 7520W        W23704   2.034   6.668  10.909  0.2784  0.1033 -0.1520
 7521W        W23705  10.961  13.466  14.758  0.0333  0.0039 -0.1783
 7522W        W23706   9.496   4.263   3.106  0.0030  0.1883 -0.2176
 7523W        W23707   0.303   8.360  12.350  0.2022 -0.2204  0.3524
 7524W        W23708   7.732  17.829  14.860  0.4914 -0.1206  0.0761
 7525W        W23709   4.484  10.323   2.878  0.2074  0.0997 -0.0772
 7526W        W23710   6.722   0.729  12.171  0.0300 -0.1568 -0.0279
 7527W        W23711   6.530  16.826   2.214 -0.1084  0.1698  0.2369
 7528W        W23712  15.350   9.192   1.809  0.1137 -0.0736 -0.0389
 7529W        W23713   8.809   4.623   5.193 -0.0233 -0.0569 -0.0365
 7530W        W23714   8.873  17.246  15.378 -0.2309 -0.0833  0.1382
 7531W        W23715  16.155  14.345  16.313 -0.2759  0.1284  0.1827
 7532W        W23716  13.124   6.228  14.080  0.2020  0.1148 -0.1314
 7533W        W23717   5.035  11.359   3.814 -0.0452 -0.1340  0.2210
 7534W        W23718   9.391   7.489   0.073 -0.0963 -0.1284 -0.0143
 7535W        W23719   0.225  13.089   0.677 -0.2096  0.4518 -0.2590
 7536W        W23720  14.806   8.144   5.243  0.0288  0.4312  0.0545
 7537W        W23721   6.681  15.671  15.231  0.2247  0.0214 -0.0918
 7538W        W23722  13.816  11.757   1.162  0.2098  0.3882  0.3423
 7539W        W23723   1.960   7.532  12.699  0.1857 -0.0418 -0.0238
 7540W        W23724  16.975  16.258   3.697 -0.1910 -0.0505 -0.2131
 7541W        W23725   0.996   7.445   4.172  0.1134 -0.1842 -0.1705
 7542W        W23726  14.092   5.020   4.782 -0.0448  0.1258 -0.2889
 7543W        W23727   3.424  17.797   1.489 -0.1852 -0.0619 -0.1064
 7544W        W23728  17.068  10.688  15.917  0.1695  0.2064 -0.3005
 7545W        W23729   4.061  12.697   3.579  0.2040  0.0429  0.3338
 7546W        W23730   3.413  10.690   0.924  0.1454 -0.1623  0.0414
 7547W        W23731   3.822   1.703  15.507 -0.2198  0.3791 -0.1172
 7548W        W23732  15.188   8.974   3.381 -0.0456  0.1305 -0.0610
 7549W        W23733  13.321   1.419   3.339 -0.0771  0.0966  0.1622
 7550W        W23734   8.213  15.887  12.993 -0.0907 -0.1604  0.1009
 7551W        W23735  12.789  10.843  12.278  0.1355  0.0195 -0.1485
 7552W        W23736   8.522  16.038   0.539 -0.1158 -0.1425 -0.0318
 7553W        W23737   1.560   8.131   1.256  0.0452 -0.0559 -0.5057
 7554W        W23738  10.183  17.484   2.050 -0.2551 -0.0189 -0.0550
 7555W        W23739  10.576   2.575   2.841  0.2234 -0.1157 -0.0428
 7556W        W23740   2.284  17.083   4.956  0.0234  0.0541  0.1270
 7557W        W23741  12.928   9.993  11.942 -0.0337  0.0421  0.5116
 7558W        W23742  14.768  10.557  13.647  0.1755  0.2572  0.0076
 7559W        W23743   3.966   6.135  15.926 -0.0185  0.0621  0.0082
 7560W        W23744   9.827  17.119   0.458  0.0943  0.1995  0.1269
 7561W        W23745  10.832  16.407  16.010 -0.2839 -0.2454  0.0614
 7562W        W23746   7.561  11.569  12.203  0.2264 -0.2339 -0.2833
 7563W        W23747  17.854   5.928  12.129 -0.1256  0.0782  0.1717
 7564W        W23748  10.102  17.005   3.402 -0.2347 -0.2189 -0.1777
 7565W        W23749   2.874   5.467   5.583  0.0867  0.0739  0.0700
 7566W        W23750  13.552   5.914  14.199 -0.0065  0.0818  0.1395
 7567W        W23751  13.288   3.739  12.150  0.0926 -0.1944  0.0166
 7568W        W23752   0.722   5.959  15.386  0.1182 -0.2726  0.3252
 7569W        W23753   3.200  17.744   3.782 -0.4302  0.0928 -0.0989
 7570W        W23754  12.802   8.351   3.049  0.2133 -0.1009 -0.3887
 7571W        W23755  17.264   2.107  14.581  0.0008 -0.1472 -0.0619
 7572W        W23756   1.219   8.220   0.346  0.2412  0.0116  0.1676
 7573W        W23757  17.184   4.088  14.462  0.3907 -0.1297  0.3580
 7574W        W23758   4.073  17.636   2.544  0.0677 -0.2008 -0.0061
 7575W        W23759  12.090   5.224   4.825 -0.3659 -0.1136  0.0467
 7576W        W23760   6.802  17.380   6.336  0.0657 -0.1129 -0.1203
 7577W        W23761   3.817  11.624   1.140  0.3591 -0.0660 -0.1150
 7578W        W23762  15.913   3.194   2.864 -0.1562  0.3610 -0.1260
 7579W        W23763  11.996  16.346   6.521 -0.1181  0.2692  0.1082
 7580W        W23764  11.964   9.719  15.478 -0.0536  0.0401  0.0004
 7581W        W23765   0.140   4.753  11.968  0.3270 -0.1569  0.3415
 7582W        W23766  16.334  13.360  16.606 -0.1703 -0.3792  0.1966
 7583W        W23767   5.182   2.615   2.905 -0.0074  0.4339 -0.1844
 7584W        W23768  17.394   1.250  16.049  0.2138 -0.0928  0.0781
 7585W        W23769  12.362  11.304  12.973  0.2075 -0.2698  0.0660
 7586W        W23770  10.766  17.862   5.830 -0.2761 -0.0330  0.0387
 7587W        W23771   6.169  14.796   1.417 -0.0388 -0.1158 -0.0622
 7588W        W23772   3.215  10.762  15.526 -0.2172 -0.0903 -0.0581
 7589W        W23773   6.984   1.617   1.773  0.4269  0.2990  0.4227
 7590W        W23774   4.143  12.352   4.596 -0.2432  0.1542 -0.3235
 7591W        W23775   2.116   5.772   2.383  0.0065 -0.0260  0.1884
 7592W        W23776   4.596   0.949  16.655 -0.0206 -0.0083 -0.2107
 7593W        W23777  12.869   7.352   2.033 -0.3046 -0.0716  0.1576
 7594W        W23778   5.331  17.342   4.463  0.1925 -0.0229  0.1413
 7595W        W23779  16.721   2.216  11.902 -0.0603  0.3303  0.1636
 7596W        W23780   8.537   9.650   4.062 -0.0386  0.0827  0.0611
 7597W        W23781  17.449  16.637   0.808  0.2987  0.1932 -0.1374
 7598W        W23782   6.715  16.967  15.605  0.0322 -0.0034  0.0236
 7599W        W23783  14.546   9.406   2.633 -0.1929 -0.1115  0.0640
 7600W        W23784  12.096  17.845   4.235  0.0430  0.2646 -0.2366
 7601W        W23785   1.147   5.736  10.861 -0.0168  0.3097 -0.0283
 7602W        W23786   5.118   9.147  12.438  0.3147 -0.0795  0.2795
 7603W        W23787   0.681   4.288   2.770 -0.1252 -0.2862 -0.3127
 7604W        W23788   4.038   0.373  14.939 -0.0327  0.1595 -0.2869
 7605W        W23789  16.622  16.985   1.086 -0.1295 -0.0417  0.0641
 7606W        W23790   8.354   6.559   5.481 -0.2208 -0.0053 -0.0226
 7607W        W23791   5.009   0.932   5.628 -0.2823  0.2488 -0.1296
 7608W        W23792   4.726   6.835  11.320  0.2478 -0.0122  0.2678
 7609W        W23793  14.175  17.140   3.284  0.2224  0.1834 -0.2803
 7610W        W23794   1.848   7.331  14.336 -0.1971  0.0441  0.5246
 7611W        W23795   0.763   9.014  13.626  0.0807  0.1046 -0.0479
 7612W        W23796  16.472  14.093  11.772  0.4800 -0.1979  0.2232
 7613W        W23797  15.940   8.426  12.404 -0.0342  0.0623 -0.1159
 7614W        W23798   2.636   9.794  14.670  0.0115  0.3669 -0.0631
 7615W        W23799   8.169   3.719  16.243  0.1634 -0.3075 -0.1062
 7616W        W23800  11.454   9.513   3.871  0.0214 -0.2985 -0.0382
 7617W        W23801  13.856  13.709  12.347  0.1079 -0.5612 -0.1461
 7618W        W23802   5.143   4.533  13.922 -0.1468  0.0771 -0.0919
 7619W        W23803   6.242   3.411   0.138  0.1983 -0.2032  0.2333
 7620W        W23804  10.212   4.435   4.047 -0.3074 -0.0774  0.1441
 7621W        W23805   8.945   3.801   6.266 -0.2274 -0.0602 -0.3109
 7622W        W23806   4.410  14.471  12.750 -0.0764  0.0806  0.1347
 7623W        W23807  17.015  16.442  13.051  0.0015 -0.1630  0.0361
 7624W        W23808   8.003  15.728   3.227 -0.0178 -0.3330 -0.0527
 7625W        W23809  11.485   1.873  15.978 -0.1653  0.0661 -0.3243
 7626W        W23810   6.771   2.164   2.338 -0.0279  0.0226  0.0736
 7627W        W23811   1.094  16.312   0.159 -0.2209  0.2889 -0.0802
 7628W        W23812   1.297   6.045   4.853 -0.1409 -0.1511 -0.0437
 7629W        W23813  11.238  13.515  11.726 -0.2381 -0.0443  0.0466
 7630W        W23814   5.429   3.895   4.453 -0.4294 -0.3323 -0.0722
 7631W        W23815   6.664   8.866   0.194 -0.0076  0.0932 -0.0354
 7632W        W23816  18.098  10.987  14.650  0.1168  0.2596  0.0135
 7633W        W23817  11.975  11.427   2.635  0.3594 -0.4927 -0.2216
 7634W        W23818   0.840  14.076   5.767 -0.0600  0.0559  0.0668
 7635W        W23819   7.461  16.997  16.435 -0.0067 -0.3570  0.1022
 7636W        W23820   4.323  15.442  13.145 -0.1518  0.1105 -0.2715
 7637W        W23821  12.745   3.501   3.669 -0.3827  0.1519 -0.1299
 7638W        W23822   6.012  10.977   2.137 -0.0580  0.0919 -0.1225
 7639W        W23823   0.287  14.277   1.137 -0.0130 -0.0723 -0.0245
 7640W        W23824   8.227   2.868   4.436 -0.1405 -0.4187 -0.3261
 7641W        W23825  13.718   4.500   1.936  0.1142  0.0150 -0.1437
 7642W        W23826   9.604  10.184  11.908 -0.2091  0.1284 -0.2371
 7643W        W23827  15.126  17.269   4.390 -0.4290 -0.0156  0.0295
 7644W        W23828   5.382  10.477  12.023  0.1184  0.0630 -0.0214
 7645W        W23829  10.834   2.010  13.569 -0.1136 -0.3066 -0.0690
 7646W        W23830  13.612   8.419  13.966  0.2918 -0.0396  0.2262
 7647W        W23831  15.183   0.739   2.534 -0.2109  0.0661  0.1166
 7648W        W23832  13.405   0.928   4.756 -0.0108  0.3130 -0.1070
 7649W        W23833   9.601   8.305  14.010 -0.0388  0.2650 -0.1545
 7650W        W23834   7.014   9.479  16.050 -0.1175 -0.1636  0.0725
 7651W        W23835  10.598   5.465  13.006 -0.1477 -0.1979  0.3231
 7652W        W23836   0.994  11.621  12.861 -0.0565 -0.1059  0.1227
 7653W        W23837  15.195  11.045   3.821  0.1119 -0.1624 -0.0323
 7654W        W23838  17.363  18.097  14.600 -0.2638 -0.1324  0.0997
 7655W        W23839   8.026  17.604   3.747  0.0911  0.0904  0.1666
 7656W        W23840  16.716  17.599   3.655 -0.1151 -0.4101 -0.0638
 7657W        W23841   1.083   3.197   1.997  0.1992 -0.0715  0.0895
 7658W        W23842  16.792  13.217  13.130 -0.3383 -0.2488  0.2998
 7659W        W23843   7.609   4.196  11.885 -0.3362 -0.0461 -0.1247
 7660W        W23844   3.215  13.372   3.396 -0.0205 -0.2564  0.0236
 7661W        W23845   0.541   9.283  10.605  0.2109 -0.0134  0.2899
 7662W        W23846  12.805   6.505  11.827 -0.0158  0.0703 -0.0945
 7663W        W23847   8.549   4.246   3.228  0.0503 -0.0451 -0.1841
 7664W        W23848  11.318   1.689  13.006 -0.3731  0.0335  0.1089
 7665W        W23849   5.219   3.312   2.184 -0.1854  0.0620  0.0182
 7666W        W23850  10.912   9.299   5.230  0.2257 -0.1791 -0.2051
 7667W        W23851   9.006   9.991  15.609 -0.0173 -0.0554  0.1926
 7668W        W23852   2.982  15.083  12.711  0.0183  0.0271 -0.0179
 7669W        W23853   9.932  11.859  16.430  0.3662  0.2744  0.1386
 7670W        W23854  14.389  13.049  13.442 -0.0261 -0.0065  0.1003
 7671W        W23855   1.721  14.001   4.096  0.1356 -0.3278 -0.0946
 7672W        W23856  16.093   9.627   2.086  0.1350  0.0313 -0.2569
 7673W        W23857  13.325   6.202   3.261  0.2539 -0.1789 -0.0184
 7674W        W23858   0.172  11.634  15.913  0.3958  0.0888 -0.0205
 7675W        W23859  17.083  16.209   0.092 -0.1700 -0.2156  0.2225
 7676W        W23860   9.087   7.190  14.637 -0.1063  0.0794 -0.3993
 7677W        W23861   6.560  11.789   0.754  0.0092 -0.0550 -0.2151
 7678W        W23862   0.686  17.867   3.204  0.0273 -0.1276  0.2614
 7679W        W23863   2.237   7.591   3.020  0.2520 -0.0710 -0.0013
 7680W        W23864   7.335  10.695  13.394  0.4346 -0.1273  0.0929
 7681W        W23865   9.487  10.145  13.469 -0.1012  0.4357  0.3035
 7682W        W23866   7.503   9.875  13.103  0.0149 -0.1404  0.3881
 7683W        W23867  10.346  14.814  12.741 -0.3039  0.2095  0.1906
 7684W        W23868   9.107   3.920  16.189  0.2725 -0.2955 -0.0625
 7685W        W23869  16.084   4.303  12.790 -0.2852 -0.2133 -0.0703
 7686W        W23870  11.343   2.248   2.879 -0.1830 -0.4038 -0.5617
 7687W        W23871   9.016   6.430   2.715  0.0163 -0.2283  0.0201
 7688W        W23872   3.311   5.125  12.105  0.0640  0.0898 -0.0763
 7689W        W23873   5.567  17.567  13.881 -0.2852  0.0016 -0.3720
 7690W        W23874  14.457   6.858  16.669  0.0496 -0.1317  0.2574
 7691W        W23875   8.685   4.039   0.882  0.2967  0.0103 -0.2249
 7692W        W23876   2.476  12.069  15.105 -0.1629 -0.0731 -0.1676
 7693W        W23877   1.298   9.112   2.315 -0.0867  0.1522 -0.2267
 7694W        W23878   2.336   5.503  11.474  0.2084 -0.1061 -0.0168
 7695W        W23879  17.509   8.474  10.831 -0.1960 -0.2978  0.0720
 7696W        W23880   5.101   6.618  11.593 -0.2438 -0.1544 -0.2721
 7697W        W23881  13.892  10.743  12.522  0.1735  0.0300  0.0380
 7698W        W23882  16.863   8.948   4.784  0.3678  0.2316 -0.1277
 7699W        W23883  12.410   0.389   5.504 -0.1119 -0.0494 -0.2672
 7700W        W23884  11.499   5.416  15.188 -0.1109  0.4723  0.0393
 7701W        W23885   7.391   0.472  12.037  0.0477  0.3437 -0.0061
 7702W        W23886  17.219  16.518  12.007 -0.2165  0.1286 -0.0126
 7703W        W23887   1.408  12.398  13.115 -0.0291  0.0907 -0.0227
 7704W        W23888  10.598   9.398   4.404 -0.1573 -0.0903  0.0467
 7705W        W23889   5.373   2.250  12.041  0.0923 -0.2940 -0.1574
 7706W        W23890  10.264   4.221  13.637  0.0081  0.0422 -0.2541
 7707W        W23891  12.537   7.101   2.393  0.2036  0.4295 -0.0781
 7708W        W23892   9.195  15.274   2.141 -0.2376  0.2930 -0.1093
 7709W        W23893   9.424  14.048  15.231  0.1324 -0.0654  0.1500
 7710W        W23894  11.870  10.758   2.184  0.0953 -0.0549 -0.1710
 7711W        W23895  16.459  17.706  11.348 -0.0430 -0.3334  0.2547
 7712W        W23896  16.036  10.034   2.758 -0.0004  0.2185  0.1223
 7713W        W23897   8.646   9.704  11.925 -0.1543 -0.0332  0.1054
 7714W        W23898   3.415  11.486  14.055 -0.1500 -0.0931  0.4425
 7715W        W23899   8.592   0.218   4.948 -0.1073  0.1202 -0.3162
 7716W        W23900  12.616  10.213   2.806 -0.0571  0.1646  0.0664
 7717W        W23901  15.407  15.306   2.004  0.0821 -0.0129 -0.1215
 7718W        W23902  16.999   8.384   2.968  0.0900  0.2169 -0.3382
 7719W        W23903  10.475  16.690   3.176 -0.3982  0.1013  0.0345
 7720W        W23904   0.124   7.488  16.436  0.3070  0.0556  0.0987
 7721W        W23905  13.701   1.922   2.760 -0.6345  0.2203 -0.0493
 7722W        W23906  13.377   7.638   4.837  0.2664 -0.2456  0.4039
 7723W        W23907   7.916  13.250   1.017 -0.0779 -0.0656 -0.0687
 7724W        W23908  12.499   2.785   2.683 -0.0951 -0.0771  0.0962
 7725W        W23909   7.136  11.114   5.752  0.1635 -0.1082  0.1394
 7726W        W23910   6.328  12.611  15.151 -0.1253  0.2236  0.0202
 7727W        W23911  15.990   1.475  15.180  0.3679 -0.0041 -0.1575
 7728W        W23912  16.322  10.508  14.259 -0.0008  0.0957  0.1526
 7729W        W23913   5.085  14.667   2.413  0.0598 -0.1864 -0.0952
 7730W        W23914   9.123   9.734   4.888  0.0064 -0.2431 -0.0299
 7731W        W23915   0.983  15.712   0.715 -0.0522  0.0499 -0.1484
 7732W        W23916   5.483   7.333   0.199 -0.0142  0.0124  0.1686
 7733W        W23917   3.337  10.894   1.708  0.0164 -0.1556  0.0377
 7734W        W23918  17.411  15.810   0.214 -0.0769  0.0015 -0.1947
 7735W        W23919   4.989   1.446   3.433 -0.1079 -0.0719 -0.1267
 7736W        W23920   1.784  17.868   3.987 -0.1104  0.5797 -0.2025
 7737W        W23921  16.982  15.874   1.063  0.1575  0.1222  0.1188
 7738W        W23922   2.579   1.805  12.414  0.1677  0.2447  0.1001
 7739W        W23923  17.055  12.260  12.153  0.0129 -0.2296  0.1107
 7740W        W23924   1.682  14.347   1.505  0.1585  0.0150  0.1599
 7741W        W23925   5.142  14.225  15.971 -0.1349 -0.1934 -0.0123
 7742W        W23926  10.025   2.595  16.265  0.2082  0.1123 -0.1196
 7743W        W23927  12.323   8.610   4.851 -0.1554 -0.1203 -0.0059
 7744W        W23928   8.865  10.047  12.359  0.0724 -0.0044  0.0043
 7745W        W23929  10.227  15.136   5.266 -0.1805 -0.2988  0.0528
 7746W        W23930  10.187   8.610   5.799 -0.1799  0.0059  0.1136
 7747W        W23931  11.554   9.317  13.976  0.0578 -0.1642 -0.4065
 7748W        W23932  16.255   4.843  13.858 -0.0284  0.1290  0.0324
 7749W        W23933   8.231   7.463  13.080 -0.3515  0.0440 -0.0430
 7750W        W23934   5.098   7.559   3.667  0.2740  0.0278  0.2170
 7751W        W23935   8.617  16.547   1.736 -0.3836 -0.0652  0.1924
 7752W        W23936   7.691   7.085   1.963 -0.3048 -0.3836 -0.4166
 7753W        W23937   2.828   4.671   4.461  0.3868 -0.0711 -0.0589
 7754W        W23938   7.374   5.965   6.150  0.2957  0.2229 -0.1913
 7755W        W23939   2.908   8.127   1.447  0.2487  0.1565 -0.0594
 7756W        W23940   4.342  16.614  15.593  0.1802  0.2104 -0.0734
 7757W        W23941  16.714  11.735   6.497 -0.0615 -0.2039  0.0746
 7758W        W23942  10.247   7.574  13.492 -0.0158  0.1068  0.0296
 7759W        W23943  12.914  12.140   0.558  0.1351  0.0437 -0.0232
 7760W        W23944  11.435  13.817   5.054  0.2164  0.0858 -0.1887
 7761W        W23945   4.399  13.912   0.046  0.2912 -0.0104  0.0887
 7762W        W23946   4.028   2.488   2.212 -0.1007 -0.1398  0.1950
 7763W        W23947   7.480  10.828   4.724 -0.1722  0.0021 -0.1882
 7764W        W23948  11.397   9.827  11.975 -0.3963 -0.3223  0.2764
 7765W        W23949   1.280  12.351   5.013  0.0783  0.1525 -0.3044
 7766W        W23950   5.244   6.878  14.591  0.1288  0.0654 -0.3852
 7767W        W23951  15.707   1.034   3.391 -0.3345  0.1865 -0.1000
 7768W        W23952  11.520  16.665  11.994 -0.2575  0.1160  0.2669
 7769W        W23953   9.473   3.959  13.167  0.1677  0.0472  0.1416
 7770W        W23954   0.628  15.355  13.448  0.1124  0.1181 -0.0484
 7771W        W23955  14.867   1.335  14.547 -0.1176 -0.0796 -0.2153
 7772W        W23956   3.787  11.347   5.121  0.2971  0.0935  0.1249
 7773W        W23957  15.750  13.402   5.029 -0.0053 -0.0319 -0.4509
 7774W        W23958  12.406   3.592  13.789 -0.2899 -0.2471 -0.2201
 7775W        W23959  15.193   1.559  16.149  0.0563 -0.1005 -0.0854
 7776W        W23960   7.243  12.605   1.471 -0.2008 -0.0568 -0.1298
 7777W        W23961  14.091  16.939   3.755 -0.2212 -0.0977  0.1181
 7778W        W23962  14.963  14.219  13.084 -0.2232  0.0870  0.0426
 7779W        W23963   5.478  12.600   4.315  0.0305  0.1170  0.1518
 7780W        W23964  10.034   1.325  15.810 -0.1875  0.0866 -0.2720
 7781W        W23965  18.045  17.201   0.278  0.2643 -0.1499 -0.1492
 7782W        W23966  15.634   1.329  12.925 -0.0801 -0.0264  0.1008
 7783W        W23967  14.453   4.206   2.619 -0.2245  0.0149  0.0599
 7784W        W23968   6.772  18.122  11.617 -0.1686 -0.2299 -0.0642
 7785W        W23969   6.018   3.763   1.713 -0.0629 -0.2840 -0.0122
 7786W        W23970   0.883   2.479   2.098 -0.0929  0.0722 -0.0151
 7787W        W23971  16.806   8.750  16.185 -0.2318  0.0229 -0.0227
 7788W        W23972  16.140   3.560  16.489 -0.0213 -0.1756 -0.0404
 7789W        W23973   8.342   1.599  14.425  0.1762 -0.3252  0.2124
 7790W        W23974   5.380  17.350  10.572 -0.1735 -0.0803  0.0136
 7791W        W23975   2.706  10.192   4.713 -0.0097 -0.1869  0.1624
 7792W        W23976   9.897  15.433  15.595  0.2053  0.0195 -0.1684
 7793W        W23977   9.189   9.990  16.483 -0.1169 -0.1830  0.3075
 7794W        W23978   8.872  15.190  13.220 -0.4255 -0.0408 -0.0950
 7795W        W23979  14.885   4.379  14.283 -0.0815 -0.1164  0.0187
 7796W        W23980  11.739   7.682   4.146 -0.1360  0.3716 -0.2715
 7797W        W23981  17.201  14.172  16.258  0.0013 -0.1305 -0.0682
 7798W        W23982   4.086   7.828   2.824 -0.1445  0.1810 -0.0011
 7799W        W23983   8.926   6.542   0.054 -0.3783  0.4346  0.0651
 7800W        W23984   8.354   4.242  12.954 -0.3299 -0.2285  0.4523
 7801W        W23985   3.657   4.899  14.146 -0.2572 -0.1093  0.2245
 7802W        W23986  14.693   1.510  12.527  0.0488 -0.0088 -0.0298
 7803W        W23987   6.468  15.633  16.141 -0.1634  0.1783 -0.3247
 7804W        W23988   0.821   3.245   3.156 -0.1077 -0.0326  0.3157
 7805W        W23989   1.745   1.683  13.135  0.1732  0.2101  0.1809
 7806W        W23990  16.906  16.029   4.441 -0.2002  0.1418  0.0501
 7807W        W23991   5.370   3.809  16.227 -0.2818 -0.1073 -0.1074
 7808W        W23992  13.271   6.117  14.740 -0.0319  0.0637  0.1742
 7809W        W23993   4.364   8.660   2.862 -0.0253 -0.1291  0.1523
 7810W        W23994  10.447  13.580   2.266 -0.0516 -0.0048  0.0393
 7811W        W23995   4.069   9.474  15.119 -0.0678 -0.1318 -0.0180
 7812W        W23996   2.407   9.910  16.580 -0.0084  0.0225  0.2545
 7813W        W23997  11.757   5.513  12.071 -0.0994 -0.0234  0.4691
 7814W        W23998  14.994   9.124   1.410  0.3297  0.0294  0.0256
 7815W        W23999  12.239  12.863   4.421  0.0594  0.0143 -0.0837
 7816W        W24000  10.026   3.114   4.109 -0.2411 -0.3145 -0.1143
 7817W        W24001  11.677  11.010   3.154 -0.1318  0.0388  0.0222
 7818W        W24002  17.432  14.064  11.949 -0.0660 -0.3946  0.0553
 7819W        W24003  13.556   4.383   2.370  0.0001 -0.1273 -0.2724
 7820W        W24004  15.780   2.474  13.491 -0.0525  0.1737 -0.0346
 7821W        W24005  17.380   6.647   4.346  0.0525  0.3518 -0.1036
 7822W        W24006   2.948   6.901  11.015 -0.1863  0.0991 -0.0459
 7823W        W24007   9.450   2.453   1.372  0.0550 -0.2389  0.0184
 7824W        W24008   1.726   9.523  11.879 -0.2293 -0.1551  0.3629
 7825W        W24009   2.458  10.663   1.496 -0.0630  0.1958 -0.2126
 7826W        W24010   7.398   4.655   4.461  0.0630 -0.1055  0.1384
 7827W        W24011  11.578   7.568   5.245  0.1204  0.4195 -0.1454
 7828W        W24012   1.658   5.102   0.523  0.1309  0.1599 -0.2127
 7829W        W24013   4.670   0.996  11.898  0.0124 -0.0242  0.1523
 7830W        W24014   6.961   0.482   1.071  0.0266  0.5083 -0.1052
 7831W        W24015  11.622  15.111  12.416 -0.0780 -0.0665  0.5062
 7832W        W24016  13.528  14.687   1.187 -0.0476 -0.0729  0.1225
 7833W        W24017   6.788  14.588  14.216 -0.1765 -0.1454 -0.2246
 7834W        W24018  17.320   0.550  12.296 -0.0350  0.0531 -0.3220
 7835W        W24019   3.078   6.504  15.431 -0.1537 -0.0863 -0.1288
 7836W        W24020  14.190  15.952  12.560  0.2106 -0.2631 -0.2163
 7837W        W24021  17.493   3.668   0.117  0.0495  0.0994 -0.1141
 7838W        W24022  15.044   9.905  13.020  0.2732 -0.0944 -0.1992
 7839W        W24023  14.877  11.201   5.190  0.1520  0.0434 -0.3738
 7840W        W24024   8.036  13.838  14.632  0.2393  0.1959  0.1893
 7841W        W24025   2.478   2.938  16.212  0.0589  0.0635  0.0211
 7842W        W24026   4.388  14.925  11.902 -0.3559 -0.1002 -0.0985
 7843W        W24027   5.509  10.630  16.023  0.2757  0.0249 -0.2451
 7844W        W24028   0.779   9.425   5.109 -0.0057  0.1958 -0.2177
 7845W        W24029   0.067   2.766   1.626  0.1263  0.0027 -0.2617
 7846W        W24030  10.061   7.504   3.501  0.0635  0.0464 -0.1957
 7847W        W24031   9.474  13.091  12.895  0.1691 -0.2650  0.1950
 7848W        W24032   4.229   4.581  13.993  0.1203 -0.0301 -0.1884
 7849W        W24033   2.228   9.510  14.598  0.0559 -0.3443  0.2252
 7850W        W24034  14.625   4.458   0.840  0.3347  0.0716 -0.1442
 7851W        W24035  14.286   2.741  13.268 -0.0652  0.0819 -0.0352
 7852W        W24036   7.567   2.213  14.633 -0.3311  0.0711  0.2439
 7853W        W24037  10.474   9.663  16.222 -0.1157  0.0155 -0.0101
 7854W        W24038   8.828  10.478  14.017  0.0834 -0.0194  0.1468
 7855W        W24039   3.800  10.146  12.180 -0.0271 -0.0255  0.0967
 7856W        W24040  17.038  16.244  13.633 -0.0669  0.1485  0.2753
 7857W        W24041   8.443   8.168   5.671 -0.1879  0.3055 -0.0841
 7858W        W24042  10.222  15.731   3.080  0.5961  0.3153  0.0180
 7859W        W24043   8.716   7.596  12.192  0.1505 -0.1745 -0.1856
 7860W        W24044  10.969   0.092  10.689  0.0021 -0.0649  0.4218
 7861W        W24045  14.631   0.979  11.630 -0.0218  0.2132 -0.0400
 7862W        W24046  16.213  11.715  15.627  0.1164  0.1206 -0.2228
 7863W        W24047   9.493  15.057   1.697 -0.1438 -0.0034 -0.0926
 7864W        W24048  14.142   8.148   5.355  0.5010 -0.0821 -0.1346
 7865W        W24049   3.191  11.915   3.770 -0.2767 -0.3764  0.1215
 7866W        W24050   4.144  14.957   3.712 -0.1369 -0.0613  0.1719
 7867W        W24051   0.911   6.343  16.137 -0.3339  0.0692 -0.2040
 7868W        W24052   3.361   5.447   2.154  0.0248 -0.3863 -0.0438
 7869W        W24053  15.744  14.865  12.859  0.2261 -0.2096 -0.2603
 7870W        W24054  12.975  16.374   2.180  0.0228 -0.2216 -0.3949
 7871W        W24055  16.914  16.799   2.327  0.0209  0.1319 -0.3050
 7872W        W24056  10.803   6.062  14.673 -0.2320 -0.1755 -0.4411
 7873W        W24057  17.156  12.549  12.613  0.2110 -0.0479  0.2603
 7874W        W24058  10.807   7.261  12.085 -0.0941 -0.0421 -0.1609
 7875W        W24059   9.825  17.948   3.640 -0.2424 -0.0997 -0.0850
 7876W        W24060  15.341   5.918  12.446  0.1780 -0.0430 -0.1039
 7877W        W24061  16.862  13.927  15.940 -0.0180 -0.0380 -0.1077
 7878W        W24062  11.319   2.716   5.919  0.2761  0.1433 -0.0290
 7879W        W24063   9.616  13.098   0.991 -0.3467  0.1297 -0.1785
 7880W        W24064   3.920  10.454  12.896  0.2657 -0.2412 -0.0265
 7881W        W24065   7.712   3.570  12.665  0.2406  0.1199  0.0970
 7882W        W24066   1.898   8.542   5.041 -0.1957 -0.1298 -0.4731
 7883W        W24067  11.749   2.595  13.721  0.2129  0.0448  0.0692
 7884W        W24068  12.459   9.434  16.076  0.0908 -0.1328  0.1192
 7885W        W24069   4.065   1.894  12.775 -0.1790  0.1107 -0.3129
 7886W        W24070   4.926   0.732  12.341 -0.0384  0.1492 -0.1379
 7887W        W24071   3.426   8.175   1.439 -0.4611  0.0865  0.4886
 7888W        W24072  14.342  17.642   3.199  0.0877 -0.0835 -0.0902
 7889W        W24073  14.718   1.859  15.156 -0.1582  0.0934  0.1501
 7890W        W24074   8.781  13.219   1.442  0.3830 -0.2553 -0.2088
 7891W        W24075   6.003  10.495   6.234  0.0307  0.0588 -0.1431
 7892W        W24076  13.000  14.950  13.835 -0.1640 -0.0417  0.0714
 7893W        W24077   3.607   7.778  15.181  0.1418 -0.1251 -0.2355
 7894W        W24078  14.653   2.299  10.483 -0.0160  0.0806 -0.0226
 7895W        W24079   8.823   7.462   1.047 -0.0851  0.1144 -0.1916
 7896W        W24080  12.883   3.681   4.106 -0.2474 -0.0254 -0.0631
 7897W        W24081   0.091  16.465   4.319 -0.2090 -0.3180 -0.1754
 7898W        W24082   5.055  18.039  13.449 -0.0010 -0.1294 -0.0415
 7899W        W24083  10.727   4.538   1.617 -0.0334 -0.2269 -0.2019
 7900W        W24084  16.120   6.516  13.065 -0.1640 -0.1752  0.1876
 7901W        W24085   5.701   9.797  15.391  0.0495  0.0814  0.1010
 7902W        W24086   1.396  16.931  16.277  0.0835  0.2261  0.0016
 7903W        W24087   8.861  16.784  12.589 -0.3868 -0.1203  0.2849
 7904W        W24088  14.321   4.075  12.952 -0.1886 -0.0395 -0.0127
 7905W        W24089  11.163   3.898   6.033  0.1629 -0.0022  0.2318
 7906W        W24090  13.802   5.359   0.805 -0.0695  0.0941 -0.0374
 7907W        W24091  10.684   4.677  16.275 -0.0084 -0.0940 -0.0083
 7908W        W24092   7.930  13.732   4.983 -0.0263 -0.2334 -0.0339
 7909W        W24093   1.850  13.744  12.448 -0.1252 -0.0460 -0.0307
 7910W        W24094  18.093   9.224  15.807  0.1560  0.0154 -0.1257
 7911W        W24095   1.392  10.205   5.322  0.0028 -0.1819 -0.1499
 7912W        W24096   4.381  11.195   6.298 -0.1215  0.1649  0.1681
 7913W        W24097   0.272   1.206  16.477 -0.1811 -0.0233  0.0420
 7914W        W24098  15.189   0.856  15.205 -0.2858 -0.0839  0.0508
 7915W        W24099   6.839   0.625  11.648  0.3715  0.0080 -0.0097
 7916W        W24100  10.206   0.407   0.265 -0.0359  0.1497 -0.1344
 7917W        W24101   8.981   5.664  13.108  0.2034 -0.1644 -0.0946
 7918W        W24102   0.705  15.242  12.043 -0.2862  0.1850  0.0144
 7919W        W24103   2.790   6.716   2.932  0.3865 -0.1828  0.3937
 7920W        W24104   0.266   2.772  16.382  0.2429  0.0934 -0.2073
 7921W        W24105  16.606   5.613   3.195  0.4203 -0.2688 -0.1128
 7922W        W24106  11.956   8.569  13.155  0.0149 -0.0636 -0.0543
 7923W        W24107  17.540  11.268   5.100 -0.3471  0.0746  0.1132
 7924W        W24108  10.118   8.849   4.007 -0.0388 -0.0599  0.2200
 7925W        W24109   8.937  17.240   5.727 -0.2275  0.2635  0.1074
 7926W        W24110   5.049   2.166  16.072 -0.3756 -0.4321  0.1207
 7927W        W24111   5.729  11.131   4.481 -0.0175  0.2008  0.3707
 7928W        W24112   9.093   4.952   4.978 -0.0095  0.2869  0.1112
 7929W        W24113   3.880  17.507   0.260 -0.1116  0.2327 -0.0625
 7930W        W24114   8.403  10.977  11.908  0.4003 -0.0997  0.0241
 7931W        W24115   1.768   0.440   2.731 -0.0196 -0.0265 -0.0820
 7932W        W24116   1.189   3.459   0.178 -0.0064 -0.1174 -0.0586
 7933W        W24117  12.626   8.404   4.026  0.0488  0.3575  0.1849
 7934W        W24118   2.198   4.936   5.631 -0.1923 -0.1944  0.0009
 7935W        W24119   5.308  10.659  15.097 -0.1054  0.2557  0.0899
 7936W        W24120   7.088  10.543   1.064  0.3331  0.3553 -0.0742
 7937W        W24121   3.441   7.487   4.101 -0.2060  0.0686  0.0900
 7938W        W24122   8.849   8.216  15.761 -0.1338 -0.0542 -0.0708
 7939W        W24123  11.382   6.129  15.824 -0.1809  0.1935 -0.0956
 7940W        W24124   7.576  12.423   5.135  0.2118 -0.1614 -0.0718
 7941W        W24125   3.586   5.941  14.628  0.1701 -0.1835  0.2289
 7942W        W24126  14.875  16.447  13.496 -0.2540 -0.0302 -0.0010
 7943W        W24127   5.425  14.151   1.710  0.1032 -0.1993 -0.0573
 7944W        W24128   4.746   0.201   5.046 -0.2696  0.3228  0.0261
 7945W        W24129  13.971  11.772  11.821 -0.3371  0.2279 -0.1108
 7946W        W24130  13.441  15.931  14.180 -0.0569 -0.2282  0.1496
 7947W        W24131   8.860   8.590   3.260 -0.1342  0.1012  0.0811
 7948W        W24132  16.435  15.033   4.024  0.2285 -0.0473 -0.2482
 7949W        W24133  16.802   9.404   4.525  0.2542 -0.1177 -0.1097
 7950W        W24134  17.657   8.847   4.141 -0.1167 -0.2139 -0.0452
 7951W        W24135   7.367  15.306   3.360  0.0343  0.2321  0.0961
 7952W        W24136  14.632   3.341  14.477  0.1121 -0.0535 -0.1223
 7953W        W24137   6.321  14.124   1.636 -0.1099  0.3016 -0.3932
 7954W        W24138  17.527  12.348  12.322 -0.2080 -0.5940 -0.1244
 7955W        W24139   9.440  13.560  12.500 -0.0645  0.0860  0.0933
 7956W        W24140   4.704   7.252   4.484  0.1000  0.3045 -0.0350
 7957W        W24141   0.640  15.480  16.629 -0.1797  0.2582  0.1128
 7958W        W24142  10.381  10.062  13.772  0.1380 -0.4060  0.3796
 7959W        W24143   3.367   6.922   4.472  0.0251  0.2262  0.2814
 7960W        W24144   3.178  16.024  15.446  0.2207  0.0899  0.0247
 7961W        W24145   8.648   3.997   1.376 -0.1981 -0.2648  0.0039
 7962W        W24146   2.294  14.220   5.723  0.0072  0.2635 -0.1459
 7963W        W24147  13.637  11.908  12.839  0.1357  0.3600  0.1239
 7964W        W24148  14.207   6.024  16.033  0.1364  0.1613  0.1846
 7965W        W24149   1.987  17.568  12.612 -0.1999  0.1267  0.1255
 7966W        W24150   3.158  10.667   4.089 -0.2037  0.0628 -0.4733
 7967W        W24151  16.986  16.762   3.290 -0.1319  0.0796  0.0694
 7968W        W24152  15.222   5.431  12.625 -0.1745  0.2577  0.0045
 7969W        W24153   9.604   3.200   0.102  0.1547  0.1946 -0.1519
 7970W        W24154   1.323  17.165   0.951  0.0394 -0.0724 -0.1213
 7971W        W24155   0.358  16.948   5.030  0.3607 -0.2021 -0.0172
 7972W        W24156  11.476   4.833   3.461 -0.1257  0.0801  0.2308
 7973W        W24157   4.212   4.065   5.362  0.0158  0.1372 -0.1595
 7974W        W24158  14.067   3.555  14.475 -0.1282  0.0273 -0.2817
 7975W        W24159   4.668  10.133  13.243  0.2479 -0.0484 -0.0076
 7976W        W24160   1.499  11.908  15.363  0.1814  0.2856 -0.3627
 7977W        W24161  13.663  16.834  14.659  0.1719  0.2407 -0.0508
 7978W        W24162  10.379  16.323  16.143  0.2036  0.0068 -0.0120
 7979W        W24163   2.039  10.222   2.014  0.1335 -0.1265 -0.1971
 7980W        W24164  14.851  13.889  16.337 -0.2744  0.2408  0.2554
 7981W        W24165   2.957   3.653  12.538 -0.0909  0.0174  0.1810
 7982W        W24166   6.583  12.926   0.961 -0.1251 -0.1668  0.1122
 7983W        W24167   6.377   2.604   4.803 -0.3937  0.1767  0.1942
 7984W        W24168   4.915  16.193   0.971 -0.2860  0.0691  0.0017
 7985W        W24169  16.980   5.096   1.322  0.0055 -0.0815  0.3814
 7986W        W24170   4.021   7.284  11.531  0.0930  0.1977  0.0783
 7987W        W24171   3.989   2.766  11.415  0.2422  0.4355 -0.2660
 7988W        W24172  11.026  11.827  13.285  0.0154  0.0775  0.0164
 7989W        W24173  11.612  11.287  13.884  0.0320 -0.2475  0.1085
 7990W        W24174  14.288  14.115   5.629 -0.0532 -0.1108 -0.0877
 7991W        W24175  13.389   1.147   3.807  0.1586 -0.1419 -0.0310
 7992W        W24176   1.668  16.235  14.321  0.1784  0.0596 -0.1691
 7993W        W24177   4.194   8.580  16.476 -0.0412  0.1072 -0.4480
 7994W        W24178  10.023   4.919   3.981 -0.0591 -0.1946 -0.1044
 7995W        W24179  13.020   9.973   2.014  0.0728 -0.1850 -0.0238
 7996W        W24180   6.798  10.621   1.492 -0.1531 -0.0869  0.2045
 7997W        W24181   0.768  14.058  13.348 -0.1951 -0.2199  0.1686
 7998W        W24182   0.169   2.456  15.278  0.0765 -0.0890 -0.0484
 7999W        W24183   9.934   8.810   0.206 -0.2163  0.0401  0.0097
 8000W        W24184  12.154   4.801  16.042  0.1248 -0.0296 -0.1627
 8001W        W24185   5.254   0.487   4.589 -0.0339  0.1589 -0.3665
 8002W        W24186   8.551   1.992   0.051 -0.0528 -0.2503 -0.0574
 8003W        W24187   5.488   6.093   2.288 -0.1105 -0.0415 -0.1731
 8004W        W24188   9.757   4.459   4.326 -0.0485 -0.4670 -0.1078
 8005W        W24189  15.481  14.155  11.272 -0.2287  0.3396 -0.3718
 8006W        W24190   3.642  11.751  13.423 -0.4039  0.0072  0.1595
 8007W        W24191   0.482   5.469   0.781  0.0731  0.2951 -0.4446
 8008W        W24192   1.747  15.181   1.228 -0.1123  0.1774 -0.1045
 8009W        W24193  11.529  15.316  14.023 -0.2130 -0.2653  0.0092
 8010W        W24194   3.030  13.777  11.782 -0.2214 -0.1342  0.2403
 8011W        W24195  14.311  13.930   4.126 -0.2510  0.0971 -0.3640
 8012W        W24196  14.526  13.452  14.695 -0.1485  0.5074  0.2642
 8013W        W24197  17.443   0.557   0.467  0.2931  0.0589 -0.1582
 8014W        W24198   5.399  13.395   1.077 -0.1432  0.2996 -0.0852
 8015W        W24199   2.489   2.155   3.888 -0.0890  0.1615  0.1835
 8016W        W24200   4.154  16.408  12.177 -0.0760  0.0693  0.4267
 8017W        W24201   9.738   0.377   2.257 -0.1428 -0.0441 -0.1479
 8018W        W24202   3.357   4.151   0.502  0.0282 -0.4438 -0.3698
 8019W        W24203   5.789  12.994   2.572 -0.2348  0.2220  0.2112
 8020W        W24204  16.398   7.431   4.002  0.0312  0.0388 -0.1445
 8021W        W24205  14.633   0.446  14.648  0.2724 -0.0239 -0.0387
 8022W        W24206   1.741  13.036   0.747  0.0256  0.0500 -0.3080
 8023W        W24207  17.546  12.009  15.151  0.3331  0.0206 -0.0792
 8024W        W24208   1.222   3.672   2.149 -0.3741  0.1693 -0.0284
 8025W        W24209  14.819   0.435  14.098  0.0110  0.1813  0.0137
 8026W        W24210   2.669  16.561  16.381  0.0237 -0.3779  0.1523
 8027W        W24211   5.305   6.575   3.652 -0.0724  0.0030  0.2978
 8028W        W24212   6.837   1.336   0.892  0.1018 -0.2630 -0.0899
 8029W        W24213  12.630   6.500   1.529 -0.0623  0.2513  0.0968
 8030W        W24214   0.743   5.964  15.885 -0.1998 -0.1140  0.0660
 8031W        W24215   7.201  14.196  14.879  0.1935  0.0670 -0.0599
 8032W        W24216  11.489  15.180  11.743 -0.0029 -0.2276  0.0763
 8033W        W24217   6.264  10.647  12.652 -0.0213  0.0340 -0.0462
 8034W        W24218   0.202   0.114  16.256  0.1295  0.2512  0.0522
 8035W        W24219   9.656  13.972   0.513 -0.5776  0.2628  0.2427
 8036W        W24220  16.939  12.383   5.032  0.2239  0.0339  0.1485
 8037W        W24221   2.166   4.287   0.649  0.2470 -0.0192 -0.1260
 8038W        W24222  12.924   8.283  12.592 -0.2661  0.1922 -0.1230
 8039W        W24223  15.850  12.381  16.664 -0.0661 -0.1501 -0.2110
 8040W        W24224   6.013   6.362  16.077 -0.0251  0.1638  0.0030
 8041W        W24225  12.167  18.030   0.175 -0.1263  0.1903 -0.1694
 8042W        W24226   0.225  12.708   3.636 -0.2081 -0.0775  0.1429
 8043W        W24227  16.990   9.761  14.290  0.1365 -0.4305 -0.1241
 8044W        W24228   4.028   3.868   3.477  0.2309 -0.4384 -0.0319
 8045W        W24229  11.375   3.107   2.839 -0.0970  0.2568 -0.1750
 8046W        W24230   2.122   2.746  15.242  0.3329 -0.3242  0.1548
 8047W        W24231   5.587   2.376   0.181  0.0358 -0.0317  0.2480
 8048W        W24232  13.786   3.230  15.414 -0.1507 -0.1578 -0.0351
 8049W        W24233   8.202  15.320   1.365 -0.1079 -0.2024  0.1367
 8050W        W24234  14.347  13.586  12.086 -0.0173 -0.1429 -0.0106
 8051W        W24235  13.671  12.299  12.401  0.0081  0.0500 -0.2035
 8052W        W24236  12.715  15.609   2.084 -0.2863  0.0406 -0.1474
 8053W        W24237  18.037  13.870   5.584 -0.0920  0.0060 -0.2508
 8054W        W24238   9.236  16.402   3.238 -0.2203  0.1480 -0.0972
 8055W        W24239  12.284   5.808   2.192  0.2502  0.0074 -0.1583
 8056W        W24240   5.233  14.293   2.733  0.0282  0.0685  0.3309
 8057W        W24241  14.296  13.547   2.544 -0.1844  0.0594 -0.1111
 8058W        W24242   6.706  17.156  14.243 -0.2704 -0.2605  0.0096
 8059W        W24243   0.717  15.027  15.339  0.0639 -0.0041 -0.0801
 8060W        W24244  13.853  15.902   3.539 -0.1505  0.1086  0.0731
 8061W        W24245   0.733  17.791   2.089 -0.1356  0.2349  0.3723
 8062W        W24246   0.009  16.909  11.920  0.1485 -0.0462  0.2339
 8063W        W24247   3.511   9.547  13.603  0.2206  0.3574  0.0607
 8064W        W24248   8.767  11.700  15.565 -0.0200  0.0268  0.5063
 8065W        W24249   3.995  12.890   0.682  0.0795  0.0978 -0.1570
 8066W        W24250  15.443  11.227  11.468 -0.0767 -0.0721 -0.1327
 8067W        W24251   1.646   5.528  14.496  0.1922  0.2406 -0.0078
 8068W        W24252   7.006  11.313  13.863  0.0221 -0.1061 -0.2753
 8069W        W24253  17.533   6.549  11.040 -0.2958 -0.2994 -0.0984
 8070W        W24254   6.216  16.193   2.795 -0.5093 -0.2032 -0.1295
 8071W        W24255  17.431   8.721   5.751  0.2157 -0.1382 -0.2148
 8072W        W24256   4.714   1.546   3.814  0.2084  0.2184  0.1957
 8073W        W24257  11.856  13.012   5.335  0.0510 -0.2832  0.2018
 8074W        W24258   7.838  17.436   4.186  0.1821  0.1697  0.2163
 8075W        W24259   2.092  10.622   2.408  0.2370  0.1006  0.1424
 8076W        W24260   5.593   2.641   0.699  0.1488 -0.2674 -0.1485
 8077W        W24261   0.974  15.479   2.071  0.0380 -0.1673 -0.0829
 8078W        W24262   8.223   3.842  15.243  0.3058  0.4003 -0.1794
 8079W        W24263   9.242  12.768   0.236 -0.2292 -0.1216  0.1394
 8080W        W24264  14.061   6.078   1.150 -0.0708  0.1816 -0.2355
 8081W        W24265  16.728  13.303   1.986 -0.0202  0.4238 -0.0446
 8082W        W24266  13.456   1.374  11.918  0.0870 -0.4250  0.3854
 8083W        W24267  13.127   0.364  13.337 -0.1276 -0.2520  0.0102
 8084W        W24268  11.275  15.159   3.802  0.3642 -0.1671 -0.1490
 8085W        W24269  15.571   7.987   3.753  0.2428  0.3115  0.0735
 8086W        W24270  15.299   4.607   4.509  0.1498  0.1431 -0.0821
 8087W        W24271  15.889   8.826   4.185 -0.0657  0.2423  0.0050
 8088W        W24272   6.065   6.510   2.749 -0.0303 -0.1662  0.2332
 8089W        W24273  11.843   4.518   5.705 -0.1341  0.0723  0.2072
 8090W        W24274   8.665   5.587  12.316  0.2810 -0.0593  0.0757
 8091W        W24275   4.561  10.703  13.822 -0.1623  0.1133  0.1253
 8092W        W24276   2.327   5.590  10.006 -0.1432 -0.1313  0.0667
 8093W        W24277   0.132  16.259   3.793 -0.0236 -0.1022  0.0041
 8094W        W24278   2.178   9.964  12.845 -0.0962  0.1930 -0.0215
 8095W        W24279   8.106  14.297   2.767  0.0635 -0.0074  0.0636
 8096W        W24280   9.322   3.570  13.723 -0.2169  0.1576  0.0634
 8097W        W24281   7.852  12.409  13.606  0.0009  0.0981  0.1147
 8098W        W24282   0.435   0.117  11.010 -0.3298 -0.0302 -0.0132
 8099W        W24283  17.549   8.869   1.561 -0.1902  0.0608 -0.1004
 8100W        W24284   9.246   2.979   2.180  0.0714 -0.0258  0.2034
 8101W        W24285  11.592   7.439  13.918  0.2895 -0.0485 -0.1610
 8102W        W24286   8.834   0.392  14.551  0.1024  0.2711 -0.1721
 8103W        W24287  11.640   8.574   4.194 -0.1807 -0.1670 -0.1808
 8104W        W24288   2.393  11.199   5.288  0.0445  0.0028 -0.0811
 8105W        W24289   2.891  12.193  11.987 -0.0573  0.0651  0.2715
 8106W        W24290   8.387   0.078   4.118  0.0268  0.2819 -0.1723
 8107W        W24291   8.220   1.099  16.317 -0.0089 -0.0363 -0.2003
 8108W        W24292   1.148   9.850   2.673  0.4133 -0.1447 -0.2212
 8109W        W24293  11.854   5.523   2.377 -0.2363 -0.2283 -0.0108
 8110W        W24294   1.797  14.136  13.365 -0.1456 -0.0967 -0.1671
 8111W        W24295  17.477  14.011   4.449 -0.0131  0.1845  0.0648
 8112W        W24296   3.370  10.846   0.432 -0.1547  0.0723  0.2259
 8113W        W24297  12.121  13.113   0.428  0.0611  0.0369  0.1155
 8114W        W24298   0.525   9.363   1.666  0.2878  0.1716  0.0316
 8115W        W24299   5.566   7.823  15.615 -0.1106 -0.0096 -0.2320
 8116W        W24300  11.049   6.065   2.887 -0.2928 -0.2366 -0.0850
 8117W        W24301  15.826   4.115   1.307 -0.0369 -0.1802 -0.0691
 8118W        W24302  12.047  11.978   4.145  0.3488  0.1852  0.0303
 8119W        W24303  10.943  10.836   2.381  0.0523  0.0110  0.3779
 8120W        W24304  11.603   4.270  13.012 -0.1171  0.0986 -0.1812
 8121W        W24305  11.881  12.170  12.089  0.0240  0.2441  0.1328
 8122W        W24306   1.197  11.910  13.308  0.1838 -0.3011 -0.1954
 8123W        W24307  13.054   5.438   3.253 -0.0003  0.1758  0.1526
 8124W        W24308   0.150   3.517   5.466 -0.3908  0.0897 -0.0799
 8125W        W24309   5.832  17.995  15.602  0.1016  0.0391  0.2331
 8126W        W24310  12.285  13.512   0.240 -0.2203  0.1051 -0.3492
 8127W        W24311   7.942   3.919   4.585  0.2446  0.0778 -0.0811
 8128W        W24312   8.996  12.321  15.308 -0.0345  0.0926 -0.0610
 8129W        W24313  16.231  11.012   4.690 -0.0255  0.2509 -0.0141
 8130W        W24314  16.494   1.825   0.959  0.1152 -0.1768 -0.1523
 8131W        W24315  10.215   1.428   3.919  0.0591  0.0758  0.1224
 8132W        W24316   9.738  14.267   1.927 -0.0229  0.4841 -0.2751
 8133W        W24317  12.473   7.675   0.781  0.4221 -0.1782 -0.1221
 8134W        W24318   8.426  11.010  16.448 -0.0414 -0.1732 -0.1575
 8135W        W24319  12.288  10.132   5.081  0.0984 -0.0209  0.1931
 8136W        W24320  16.653  16.501  13.824  0.1052 -0.0635 -0.1659
 8137W        W24321  17.084   5.848  12.158  0.1547 -0.0225 -0.1694
 8138W        W24322  10.408   7.232   2.041  0.1498 -0.1524 -0.2283
 8139W        W24323  16.890   0.707   3.904 -0.2601 -0.0100  0.1522
 8140W        W24324  16.711   3.692  10.978  0.0036 -0.2837  0.2354
 8141W        W24325  10.315   0.297  13.382 -0.1402 -0.0932 -0.2383
 8142W        W24326   9.185   7.607   1.788 -0.0037 -0.1562  0.0318
 8143W        W24327  15.819   5.186   3.763  0.0342 -0.1716 -0.3215
 8144W        W24328   1.624  10.760  15.715 -0.5288 -0.1735  0.0587
 8145W        W24329   3.507  13.511  15.463 -0.3038  0.1392 -0.2846
 8146W        W24330  11.349   4.175  15.704 -0.3822 -0.1246  0.1694
 8147W        W24331  18.005   6.876  14.629 -0.0677 -0.0980  0.5982
 8148W        W24332   7.849   5.056   2.271  0.1391  0.0535 -0.2813
 8149W        W24333   4.694  10.416   2.468 -0.0524  0.0987  0.1959
 8150W        W24334  16.418   4.646  10.909  0.1279  0.0754  0.1311
 8151W        W24335   1.683   0.173   1.504 -0.0141  0.2024  0.3200
 8152W        W24336   4.478   3.061   1.549 -0.1228  0.3964  0.1149
 8153W        W24337   6.985  13.766  15.611 -0.0708 -0.0749  0.3517
 8154W        W24338   8.031   7.458  13.586 -0.2068  0.0788 -0.1245
 8155W        W24339  13.579   2.240  11.920  0.2677 -0.5013  0.1248
 8156W        W24340   5.702   8.204   6.067 -0.0395  0.0804 -0.0914
 8157W        W24341   0.675   2.923   2.210  0.0233 -0.0690 -0.0340
 8158W        W24342   5.856   4.284   1.549  0.4476  0.1307  0.1216
 8159W        W24343  14.464  11.545   4.897 -0.0703  0.0731  0.0177
 8160W        W24344  15.975   7.189   0.284 -0.1370 -0.0987 -0.0380
 8161W        W24345   4.100   4.274  12.934 -0.1702  0.1251  0.0764
 8162W        W24346   3.042   0.409   4.176  0.2869 -0.1671 -0.1768
 8163W        W24347  14.885  17.395  14.754  0.1809  0.1776  0.2550
 8164W        W24348   8.665  16.289  12.678 -0.2763  0.2457  0.0655
 8165W        W24349   1.601   2.148  15.081 -0.0287  0.2086  0.3167
 8166W        W24350  13.305  13.768  13.378 -0.1958  0.1907  0.5710
 8167W        W24351  12.559  14.401  16.558  0.2299  0.0376 -0.0280
 8168W        W24352  12.609   8.001  15.230 -0.1414 -0.0689  0.0975
 8169W        W24353   0.354  18.005   5.076 -0.2132 -0.0798  0.1281
 8170W        W24354   4.042   9.391   3.816 -0.0186  0.1965  0.1766
 8171W        W24355   2.362  17.884   2.494  0.0962  0.1608  0.1754
 8172W        W24356   6.596   6.593   5.588  0.2702 -0.0383  0.0728
 8173W        W24357   1.780  17.213  16.225 -0.1748 -0.0537  0.1122
 8174W        W24358   4.368  17.530  13.761  0.2705 -0.0756  0.1132
 8175W        W24359   3.909   7.532  14.366  0.1246  0.2837  0.3819
 8176W        W24360   0.302   7.073  12.387  0.3147 -0.3624  0.1837
 8177W        W24361   6.170  12.789   0.707 -0.2483  0.1735 -0.1171
 8178W        W24362   9.817   8.034  16.375 -0.2057 -0.0234  0.0748
 8179W        W24363   5.442   7.730  12.004 -0.1652  0.1709 -0.2558
 8180W        W24364   3.800   4.027  15.077  0.1061  0.0835 -0.2260
 8181W        W24365   2.379  17.205  12.737  0.0031 -0.1835  0.1487
 8182W        W24366   1.288   4.438  11.574 -0.1059  0.2330  0.0695
 8183W        W24367   3.923  10.991   2.419  0.4805  0.0269 -0.0148
 8184W        W24368  17.524   9.837  14.377 -0.1018  0.2849  0.1059
 8185W        W24369   6.348  14.281   5.421  0.0642 -0.2245 -0.1270
 8186W        W24370   9.233   6.428   1.309 -0.0999 -0.1717 -0.1430
 8187W        W24371   5.963   1.110  13.779  0.0261 -0.0323 -0.0850
 8188W        W24372   5.915  11.527  12.507  0.0520  0.1423  0.1047
 8189W        W24373   8.207   9.036  14.001  0.0387 -0.2320  0.0689
 8190W        W24374  17.595  10.707   1.036 -0.0191  0.1313 -0.2765
 8191W        W24375   9.840   3.364   3.360  0.0382 -0.2188 -0.3836
 8192W        W24376  14.656  16.094  15.445 -0.3227  0.1697 -0.3023
 8193W        W24377  11.045   8.363  15.514 -0.1088 -0.1140  0.0961
 8194W        W24378  17.896  10.313  11.848 -0.0931  0.0656 -0.1821
 8195W        W24379  16.859  14.296   5.187  0.1759  0.2921  0.0128
 8196W        W24380   2.338  12.448   0.300 -0.4301  0.0476  0.0556
 8197W        W24381   8.679   7.305  16.425  0.0427 -0.1582  0.0800
 8198W        W24382  11.205  11.952   4.134  0.0466 -0.2429 -0.0764
 8199W        W24383   0.698   8.479  12.590 -0.0278  0.0885 -0.0865
 8200W        W24384  17.972   7.364   1.252  0.1071 -0.0142  0.1283
 8201W        W24385  10.830   3.064   2.816 -0.3356 -0.1224  0.2535
 8202W        W24386  14.701  13.714   1.238  0.1345 -0.2095 -0.1111
 8203W        W24387  17.707   3.527  12.139  0.0618 -0.0524 -0.1928
 8204W        W24388  16.181   0.273   0.814  0.2603 -0.0521 -0.0287
 8205W        W24389   7.280  15.124   1.600  0.2299  0.1236  0.2263
 8206W        W24390   8.090  14.560   2.025  0.3255 -0.1562  0.0605
 8207W        W24391  12.175  16.317   0.168 -0.0693 -0.1836  0.0698
 8208W        W24392  13.261   1.822   3.040  0.4039 -0.1034  0.1826
 8209W        W24393  16.042   9.211  11.358 -0.0613 -0.1723  0.1127
 8210W        W24394   0.575   9.474   4.685  0.0581 -0.0437  0.0612
 8211W        W24395  14.327   0.209   0.310 -0.1109 -0.0903 -0.1270
 8212W        W24396  11.324   7.493   1.845  0.1170  0.3874 -0.1172
 8213W        W24397   9.405   6.120   0.934 -0.3501  0.0644  0.1086
 8214W        W24398  12.534  14.917  14.644  0.1672  0.4055  0.2048
 8215W        W24399  16.397  13.946  15.204 -0.1277 -0.0653  0.1624
 8216W        W24400   4.141   3.536   1.219 -0.0174  0.2353 -0.4237
 8217W        W24401   8.959  15.358   5.299  0.2770 -0.1072 -0.0143
 8218W        W24402   1.091  11.802  11.759 -0.2981 -0.0947  0.2382
 8219W        W24403  14.006   6.363  11.791  0.0350 -0.2171  0.3132
 8220W        W24404  12.464  17.935   1.977 -0.2021  0.0151  0.0296
 8221W        W24405   9.307  11.136  13.326 -0.0212  0.1822 -0.0349
 8222W        W24406   3.278   3.056   0.519 -0.1770  0.1484  0.2150
 8223W        W24407   2.308  15.750  15.931  0.3780 -0.0931 -0.4669
 8224W        W24408  16.884   2.189  13.286 -0.1688 -0.4634  0.1418
 8225W        W24409   6.298  10.823  12.087 -0.1829 -0.0800  0.0623
 8226W        W24410  14.734   3.007   1.914 -0.1196  0.1503  0.0745
 8227W        W24411   1.953   4.393   3.517  0.0544 -0.1611 -0.2013
 8228W        W24412   0.346  14.677   2.041 -0.2353 -0.0422  0.2586
 8229W        W24413   5.317   4.581   4.074  0.1886  0.2724 -0.2546
 8230W        W24414  11.866   0.073   5.438 -0.1492 -0.3498  0.2183
 8231W        W24415   2.439  11.569  14.163  0.0520  0.0014  0.0549
 8232W        W24416   0.781  11.496  13.970 -0.0308 -0.1441 -0.1826
 8233W        W24417   5.467   9.231   3.415  0.1006 -0.1706  0.0771
 8234W        W24418   8.541   0.910   1.415 -0.1187 -0.1351 -0.0227
 8235W        W24419  17.788   8.649   4.618 -0.3543 -0.1784 -0.1357
 8236W        W24420   7.804   1.565  12.700 -0.3690 -0.1413  0.0831
 8237W        W24421   0.330   4.568  14.658  0.0343 -0.0396  0.0809
 8238W        W24422   8.566   1.720  11.698 -0.0055  0.2597 -0.1919
 8239W        W24423  11.454  14.536   5.057  0.0157  0.0674 -0.1274
 8240W        W24424   2.812  16.164   5.216  0.0572 -0.2332 -0.0351
 8241W        W24425   4.722  12.734   1.631  0.2753  0.1409  0.0196
 8242W        W24426   9.250  11.593   1.376 -0.3999  0.0688  0.1070
 8243W        W24427   5.644   5.805  12.482  0.0457  0.0985  0.0738
 8244W        W24428   8.236   5.789   1.823  0.1142 -0.0991  0.6906
 8245W        W24429  14.169  16.590   0.502 -0.0613 -0.0891  0.0713
 8246W        W24430  13.099  12.598   3.539  0.1119  0.0568  0.1098
 8247W        W24431  17.044  11.689  11.872 -0.1770 -0.0672 -0.2113
 8248W        W24432  14.575  12.054   1.734 -0.0041  0.3066  0.0079
 8249W        W24433   3.610  15.686   0.463 -0.0774 -0.1973  0.1954
 8250W        W24434  12.022  14.935  14.524  0.2215 -0.0094 -0.0606
 8251W        W24435   9.887  13.433   5.715 -0.1469 -0.0130 -0.1163
 8252W        W24436   9.068  13.119   2.412  0.3947 -0.0669  0.0684
 8253W        W24437   2.945  12.817  14.049 -0.0460 -0.1096  0.0593
 8254W        W24438  16.475  17.465   4.820 -0.0779  0.1042 -0.0863
 8255W        W24439  15.934  16.218   3.085  0.0762 -0.3113 -0.0467
 8256W        W24440   7.671   0.958  13.977  0.1724  0.0115  0.1838
 8257W        W24441  15.482   9.574  16.150  0.0304 -0.0748 -0.1493
 8258W        W24442   1.283   5.826   0.154  0.2202  0.2685 -0.0719
 8259W        W24443   5.897   0.885  15.268 -0.1204 -0.1879  0.0005
 8260W        W24444  10.695   6.871  12.481  0.0236  0.0386 -0.1867
 8261W        W24445   1.004   7.147  14.111 -0.1788  0.1408  0.2940
 8262W        W24446   6.378  17.389   6.090  0.1842  0.0413 -0.2201
 8263W        W24447   7.351  15.562  12.781  0.0282  0.0587 -0.0347
 8264W        W24448   7.742  13.260   4.255 -0.1870  0.0387  0.2129
 8265W        W24449   0.570  11.808  12.600  0.0880 -0.1429 -0.0294
 8266W        W24450   7.747   4.888   5.920  0.0419 -0.0576 -0.1876
 8267W        W24451   3.120  15.925  15.964  0.0845  0.1467  0.0639
 8268W        W24452   8.038   5.124  16.096  0.3502  0.3285  0.0283
 8269W        W24453   2.451  12.413  14.683  0.0359 -0.1479  0.1410
 8270W        W24454   4.054  13.779  16.244  0.4820 -0.1779  0.3434
 8271W        W24455   3.073   0.477   1.616  0.1732  0.2616  0.0323
 8272W        W24456  12.389  11.005  11.402  0.2187  0.1223 -0.0077
 8273W        W24457  12.186   9.115  15.741  0.0977 -0.0135  0.0117
 8274W        W24458  15.703   6.784  12.246  0.1834 -0.1714 -0.0787
 8275W        W24459   8.912  12.668   2.273 -0.1883 -0.1326  0.0369
 8276W        W24460  14.222   5.237   3.212 -0.2189 -0.4329  0.0921
 8277W        W24461  14.060  10.250   0.044 -0.0300  0.0963  0.0860
 8278W        W24462  15.958  14.003  11.655  0.0984 -0.2476 -0.0153
 8279W        W24463   2.260   2.330  15.806  0.1714  0.0541 -0.0198
 8280W        W24464  18.110   2.368  16.294  0.2375  0.0144 -0.0459
 8281W        W24465  13.926  15.029  12.439 -0.1266  0.1128  0.1579
 8282W        W24466   4.987   6.883  12.707 -0.1890  0.0138 -0.1039
 8283W        W24467   8.769   9.243  16.655 -0.2376  0.2277 -0.1833
 8284W        W24468   2.516  11.918   0.933  0.0331  0.3564 -0.1931
 8285W        W24469   4.617   5.264   5.066  0.0026  0.1071 -0.1278
 8286W        W24470  15.820  10.484  15.553  0.0273 -0.1302  0.2674
 8287W        W24471   3.909   1.966  16.163 -0.1758  0.1806  0.0102
 8288W        W24472   5.103  13.529  13.129 -0.2311 -0.1968  0.3888
 8289W        W24473   3.381   6.923  11.348 -0.3061  0.1670 -0.0407
 8290W        W24474  17.982  14.721  12.288 -0.0383  0.1899 -0.0076
 8291W        W24475   6.289  15.220   2.656  0.1777  0.1062 -0.2025
 8292W        W24476   6.764   0.003   1.025  0.0551  0.5345  0.0427
 8293W        W24477  12.896  16.131  15.798  0.0005 -0.1547 -0.2235
 8294W        W24478   1.358  14.718   3.592  0.4792 -0.0669 -0.2586
 8295W        W24479   2.322  15.146   0.484  0.0081 -0.0706  0.1230
 8296W        W24480   7.270   1.270   5.834  0.0739  0.1946  0.0215
 8297W        W24481  16.190   9.194   0.529  0.0712  0.4330  0.0693
 8298W        W24482   0.055   7.151   4.350  0.0316 -0.0802 -0.1120
 8299W        W24483   4.053  17.458  11.293  0.1549 -0.2485 -0.2101
 8300W        W24484  17.052  16.492   0.542  0.1543 -0.0655  0.0757
 8301W        W24485  17.158  17.875   3.846  0.1477  0.0771 -0.3413
 8302W        W24486   7.080  12.911   3.595  0.0512 -0.2631  0.1669
 8303W        W24487  11.841   5.661   5.021 -0.1962  0.2674 -0.3708
 8304W        W24488   0.666   4.773   4.037 -0.0519  0.0036  0.2567
 8305W        W24489  14.119   5.834   4.789 -0.2002 -0.1028 -0.0261
 8306W        W24490   9.915  10.140  16.600 -0.2862 -0.3746 -0.1323
 8307W        W24491  16.820  16.395   4.135  0.5060  0.1467  0.2738
 8308W        W24492  15.718   8.342  13.213 -0.3051 -0.1463  0.2032
 8309W        W24493  14.458  14.878   0.272 -0.1949 -0.1750  0.2692
 8310W        W24494   0.078  12.246  13.742  0.1899  0.2295  0.2247
 8311W        W24495   8.546  13.446  13.205 -0.2215 -0.0281  0.1595
 8312W        W24496  16.156   6.069   0.515  0.1914  0.1339  0.0254
 8313W        W24497   2.895   0.111   0.361 -0.1348 -0.1548 -0.0793
 8314W        W24498   2.317   7.341   0.719  0.0913 -0.3779 -0.3813
 8315W        W24499  11.092   7.294  13.987 -0.1407  0.0900 -0.1205
 8316W        W24500  11.096   0.690  16.650 -0.2246 -0.2167  0.0781
 8317W        W24501   5.785  16.293  16.328  0.1873  0.0053 -0.2706
 8318W        W24502  16.786  14.807   1.786 -0.0593 -0.4162  0.1595
 8319W        W24503   6.612   3.616   0.966  0.0520  0.0993 -0.0821
 8320W        W24504   6.390   3.530  13.598 -0.2100 -0.0781 -0.0739
 8321W        W24505  10.312   2.209   3.756 -0.2032  0.2777 -0.3952
 8322W        W24506  11.834   9.369   5.478  0.1097  0.2113  0.2247
 8323W        W24507   4.571   3.526  16.570  0.1156  0.0334  0.3218
 8324W        W24508  12.079   3.067   6.529 -0.0627 -0.0891  0.1922
 8325W        W24509   7.300   3.643  13.374  0.0105  0.1444 -0.0753
 8326W        W24510   5.186   4.562   3.578  0.0304 -0.3538  0.2606
 8327W        W24511  13.565  11.950  13.805 -0.2023 -0.0660  0.2763
 8328W        W24512   3.726  11.237  13.383  0.0595 -0.2476 -0.1619
 8329W        W24513   3.710  11.865   3.203  0.1498 -0.3435  0.2032
 8330W        W24514  14.842  12.930   2.259  0.0349 -0.0203 -0.0254
 8331W        W24515  14.133  17.016   2.345 -0.1740 -0.0902  0.1722
 8332W        W24516  15.747   1.068  14.061  0.1595  0.2500 -0.2025
 8333W        W24517   2.655   7.228   2.835 -0.2785  0.1808 -0.1287
 8334W        W24518  11.807   2.185   0.843 -0.0100 -0.0520  0.2122
 8335W        W24519  12.066   9.049   6.019 -0.1784  0.2411 -0.2036
 8336W        W24520   8.123   9.453  14.929 -0.2316 -0.1176  0.1323
 8337W        W24521  12.273   1.905  15.160  0.0505  0.1492  0.1624
 8338W        W24522   3.242  14.225  13.453 -0.1613  0.1854  0.1239
 8339W        W24523  13.828   7.682  12.934 -0.1001 -0.0229  0.3100
 8340W        W24524  17.808  10.141   4.122 -0.1311 -0.2490  0.2395
 8341W        W24525  15.958   9.246   4.458 -0.1727 -0.3691  0.3666
 8342W        W24526  14.668  15.368  12.263  0.1589  0.2108  0.1471
 8343W        W24527   2.062   7.607  11.766 -0.1233 -0.0125  0.1177
 8344W        W24528   1.958   7.649   4.562  0.1800  0.0630  0.1452
 8345W        W24529   5.861   7.966  13.187  0.0219  0.0161  0.1611
 8346W        W24530   8.380  14.249   3.657  0.3092  0.0219 -0.0692
 8347W        W24531  10.180   9.072  15.488 -0.1069 -0.1158 -0.1228
 8348W        W24532  12.072   8.255   2.649  0.2755  0.0108 -0.0234
 8349W        W24533   4.095   3.652   2.327 -0.1823  0.0234 -0.0822
 8350W        W24534   5.115  12.295   0.728 -0.0630 -0.0236  0.1410
 8351W        W24535   2.996   8.020  12.278 -0.0090  0.2816 -0.2023
 8352W        W24536   7.871   5.571   2.197  0.0907  0.3534 -0.0974
 8353W        W24537   0.636   6.724   2.748 -0.1937 -0.0454 -0.1025
 8354W        W24538  15.616  17.441   2.003  0.1609  0.1791 -0.0399
 8355W        W24539  12.826   5.169  12.080  0.2419  0.1848 -0.0667
 8356W        W24540  16.829   5.295  11.506 -0.0607  0.2058  0.1189
 8357W        W24541   0.824   7.683  11.440  0.2829  0.0032  0.1450
 8358W        W24542  10.113   5.180  14.907  0.1060  0.1902 -0.0247
 8359W        W24543   8.498  10.298  12.057 -0.2738 -0.0465 -0.1184
 8360W        W24544  15.581  15.660  15.225  0.3205 -0.0427 -0.1835
 8361W        W24545   2.508  17.816  11.719  0.2142  0.1244 -0.0982
 8362W        W24546   4.676   0.452  16.499  0.2235 -0.3219 -0.0716
 8363W        W24547   7.024   5.565  15.292  0.2991 -0.0276 -0.0211
 8364W        W24548   9.001   6.456  13.636 -0.0504  0.3887 -0.2885
 8365W        W24549   2.293  17.431  16.125 -0.0987 -0.3222  0.0713
 8366W        W24550  14.894  11.179  14.581  0.2445  0.2031  0.2629
 8367W        W24551   5.765   5.655   3.682  0.0368  0.1121  0.1719
 8368W        W24552   7.795  10.405  13.472 -0.0138  0.1241 -0.2464
 8369W        W24553  16.523   6.942   5.289 -0.1115  0.0705  0.1427
 8370W        W24554  12.373   1.596  11.783  0.0741 -0.0562  0.0364
 8371W        W24555   9.339   0.247   5.606  0.0011 -0.1737 -0.2219
 8372W        W24556   6.346  10.917  14.479 -0.0042 -0.1028 -0.1121
 8373W        W24557   0.284  12.209  16.255 -0.0048  0.0025 -0.2723
 8374W        W24558  11.593  14.696   2.444 -0.0991  0.0207  0.2185
 8375W        W24559   7.192  13.333   4.962  0.1900 -0.5121 -0.0564
 8376W        W24560  12.412  16.417   0.995 -0.3311  0.3146  0.2327
 8377W        W24561  10.881  10.971  14.275  0.0281 -0.1292 -0.1603
 8378W        W24562  12.689   0.680   5.182 -0.1331  0.4576  0.3263
 8379W        W24563   4.515   0.210   3.477 -0.0495 -0.1623  0.2448
 8380W        W24564  15.295   9.468  16.571 -0.0290 -0.1582 -0.4481
 8381W        W24565   8.061   0.103  14.011 -0.1693 -0.1526  0.2072
 8382W        W24566   8.078   1.455   0.633  0.0717  0.0000  0.3838
 8383W        W24567   0.385   2.670   0.793 -0.2331  0.1761  0.2420
 8384W        W24568  12.989  10.763  14.083  0.0325  0.2136  0.0171
 8385W        W24569  10.095  14.878   3.689 -0.2200 -0.0103 -0.1423
 8386W        W24570   7.122   7.451  11.923 -0.0211 -0.1735 -0.0490
 8387W        W24571   5.423   3.767  13.359 -0.0286  0.2046  0.1498
 8388W        W24572  15.784  13.397   4.089  0.1253 -0.1016  0.0740
 8389W        W24573   3.756   6.346  15.103 -0.1805 -0.2902  0.3255
 8390W        W24574   8.923  16.483  16.565 -0.0015  0.0655 -0.3355
 8391W        W24575  16.798   8.856  12.361  0.2185 -0.0721 -0.2395
 8392W        W24576   8.745   1.938   4.271 -0.0286  0.0974  0.2173
 8393W        W24577   5.357   5.868  12.111  0.2059  0.6612  0.2679
 8394W        W24578  10.117  15.261  11.825 -0.1362  0.0134 -0.0075
 8395W        W24579  10.689   6.857   4.364 -0.1626  0.1526 -0.1497
 8396W        W24580  14.724   8.660  14.750 -0.0115  0.2334  0.1411
 8397W        W24581  17.186  15.202   1.664 -0.4214  0.0029  0.3318
 8398W        W24582   7.293  17.665  12.840  0.3273  0.1471  0.0099
 8399W        W24583  14.443  11.129   2.805 -0.0211 -0.0462  0.5084
 8400W        W24584  10.776  16.276   0.358  0.3740 -0.1704 -0.0875
 8401W        W24585   6.717   5.899  16.301  0.2126  0.2018 -0.2005
 8402W        W24586  13.732  16.262   6.234  0.2275 -0.0721 -0.1489
 8403W        W24587  15.205   3.680  12.987  0.2018 -0.0804  0.0944
 8404W        W24588  15.198   5.033  14.827 -0.0681  0.1155  0.0959
 8405W        W24589  10.894   8.006  16.540  0.2128 -0.2192  0.1007
 8406W        W24590  18.017   2.990  14.665 -0.0464  0.2892  0.3034
 8407W        W24591  17.900   3.568  16.519 -0.0011 -0.3369 -0.0290
 8408W        W24592   2.480  13.436   3.430  0.1057 -0.1475 -0.2122
 8409W        W24593  11.915   5.254   6.231 -0.2347  0.0094 -0.2190
 8410W        W24594   3.323   1.788   2.773  0.0038  0.0020 -0.0647
 8411W        W24595  12.185  10.827   0.739 -0.0533  0.1238  0.0665
 8412W        W24596   6.698  13.566   3.846 -0.0342  0.0052 -0.0554
 8413W        W24597  14.537   2.990   0.156 -0.1944  0.1396  0.2571
 8414W        W24598  17.352   6.120  11.843 -0.2677  0.1092  0.2983
 8415W        W24599  12.239  14.403   5.836  0.0717 -0.0015  0.1065
 8416W        W24600   4.177   8.199  16.101 -0.0048  0.0106 -0.1878
 8417W        W24601   9.727  12.108  16.049 -0.1458 -0.0161 -0.0200
 8418W        W24602  16.507   6.938   1.180  0.0096  0.3107  0.0988
 8419W        W24603  12.633   7.917  14.406  0.1260  0.0669  0.0280
 8420W        W24604   6.144   6.629  14.962  0.1785  0.1292 -0.1841
 8421W        W24605  12.058  15.138   3.850 -0.0253 -0.0740  0.0644
 8422W        W24606  16.108   9.818   0.173  0.4194 -0.0023 -0.0087
 8423W        W24607   2.368   9.409  16.481 -0.3047 -0.4778  0.2061
 8424W        W24608  10.215  16.369   1.156 -0.2160  0.2525  0.1888
 8425W        W24609   3.235  11.186   2.502 -0.2242 -0.0394 -0.2376
 8426W        W24610   5.405   4.616  11.500  0.2467  0.1743  0.1705
 8427W        W24611   7.201   0.349   1.870 -0.3779 -0.0514 -0.0323
 8428W        W24612   7.601   3.557   2.092  0.0987 -0.1465  0.1907
 8429W        W24613   6.694  11.423   4.791 -0.2034  0.1909  0.0319
 8430W        W24614  16.199   6.760   5.730  0.1225  0.0673 -0.0162
 8431W        W24615   4.350   8.223  15.170 -0.0411  0.2387  0.1980
 8432W        W24616  10.772   3.643   0.271  0.1734 -0.1920 -0.2589
 8433W        W24617   0.800   9.113   2.549  0.1910 -0.1224  0.0469
 8434W        W24618  15.510   5.054  13.186 -0.0362  0.0741  0.0051
 8435W        W24619  17.723   0.767  14.603  0.0649 -0.1177  0.1834
 8436W        W24620  14.765   4.751   3.197 -0.0385 -0.0910 -0.1025
 8437W        W24621  18.119   0.941   2.645 -0.0248 -0.0487  0.0340
 8438W        W24622  12.877  15.278  14.982  0.2403  0.0035 -0.0935
 8439W        W24623   6.848  15.664  15.713  0.0390 -0.0290 -0.2143
 8440W        W24624   4.051  10.844  13.872 -0.2887  0.1720 -0.0016
 8441W        W24625  14.055  15.558  12.911  0.0544  0.0436 -0.0277
 8442W        W24626   4.643   5.464   1.413 -0.1705 -0.0164 -0.0967
 8443W        W24627   1.981   5.618   0.865 -0.0748  0.1484  0.1570
 8444W        W24628  13.062  16.481   3.398 -0.1826  0.0164 -0.3575
 8445W        W24629  10.324  17.335   3.695 -0.1520  0.0065 -0.2635
 8446W        W24630  17.349   0.647   1.648  0.2527 -0.1202 -0.3539
 8447W        W24631   9.560   5.162   3.817 -0.0425  0.1507 -0.1176
 8448W        W24632  10.939   7.756  14.472  0.1128 -0.0909 -0.0062
 8449W        W24633  10.072  12.218   2.987  0.0230 -0.0855 -0.0280
 8450W        W24634   9.214   0.425  15.441 -0.1475  0.1720 -0.2308
 8451W        W24635   1.461  14.303  16.176  0.0328 -0.1200 -0.1339
 8452W        W24636   4.876   2.716   1.663 -0.1848  0.0837  0.0883
 8453W        W24637   9.270   8.615  13.899  0.2979 -0.2264 -0.2211
 8454W        W24638   0.501   8.137   3.181 -0.0178  0.2929 -0.0294
 8455W        W24639   5.965   4.473  12.159 -0.2342 -0.0673  0.0126
 8456W        W24640   8.492  15.624   4.509  0.6309  0.0769  0.2581
 8457W        W24641   3.241  17.046   5.028 -0.3406 -0.0961 -0.2418
 8458W        W24642  15.834  15.305  15.529  0.1914 -0.1050 -0.0194
 8459W        W24643  13.320   5.604  14.535 -0.2631 -0.0083 -0.1243
 8460W        W24644   2.883  13.269  11.916 -0.1081 -0.0098 -0.0813
 8461W        W24645  14.179  15.700   0.591  0.2512 -0.2981  0.3009
 8462W        W24646   9.389  18.136  12.698  0.2669  0.0233 -0.0170
 8463W        W24647  10.708  18.150  12.441  0.0393  0.1508 -0.2555
 8464W        W24648  17.716   2.787  12.990  0.0991 -0.3002  0.0546
 8465W        W24649   6.724  15.473   4.245  0.3309  0.0906 -0.1835
 8466W        W24650   5.220  17.174   5.541  0.4447  0.0552 -0.1871
 8467W        W24651   7.552  11.155  15.467 -0.2149  0.3020  0.1977
 8468W        W24652   4.609  13.833  13.294  0.0799  0.1628 -0.3414
 8469W        W24653   8.096  17.320   3.299  0.1241 -0.0612 -0.2544
 8470W        W24654   1.423   1.439  15.665  0.2798 -0.1820 -0.5875
 8471W        W24655  14.279   3.697   2.526 -0.0495 -0.1246 -0.1215
 8472W        W24656   7.749   2.910  12.091  0.0163  0.3046  0.1877
 8473W        W24657   6.916   2.620  12.550 -0.0720 -0.3864 -0.0381
 8474W        W24658  15.535  17.698  15.390  0.2071  0.1964  0.0292
 8475W        W24659   2.470   2.115   3.411  0.1864 -0.3068 -0.0910
 8476W        W24660   7.652  11.591   3.701  0.2842  0.2992 -0.2731
 8477W        W24661  13.660   3.239  11.687  0.0292 -0.0271  0.0233
 8478W        W24662   9.079   4.869  13.374  0.1299 -0.1891  0.1266
 8479W        W24663   1.301   2.607  11.641 -0.1045  0.2409 -0.0365
 8480W        W24664   5.226  16.692  12.327 -0.3082  0.1095  0.0511
 8481W        W24665  12.761   4.169   5.104  0.0977  0.0189  0.0183
 8482W        W24666   9.410  12.359  12.185  0.1403  0.0957  0.1159
 8483W        W24667   0.049  12.164  15.007 -0.0332  0.0745 -0.0102
 8484W        W24668  13.419  12.183   4.266  0.0683 -0.3227  0.1182
 8485W        W24669  12.456  12.298  13.148 -0.3504 -0.3572  0.1985
 8486W        W24670   3.524  10.321   3.544  0.2441  0.2182 -0.3301
 8487W        W24671   1.616  10.910  15.233  0.1914 -0.3220  0.2535
 8488W        W24672   1.196  15.971   3.365  0.0688 -0.1618 -0.0375
 8489W        W24673  13.308  16.976   4.342  0.1630 -0.1707 -0.1310
 8490W        W24674   6.782  13.129   4.845  0.2430 -0.1422 -0.1396
 8491W        W24675   7.789   0.600   2.491  0.1809  0.1301  0.0857
 8492W        W24676  13.086   1.036  14.113 -0.1013 -0.1096 -0.0912
 8493W        W24677   3.649  17.386   3.652  0.0042  0.2757  0.0270
 8494W        W24678   6.505   8.997  14.686 -0.0159 -0.2312 -0.1283
 8495W        W24679  12.080  17.956   2.903 -0.2525 -0.0007 -0.1171
 8496W        W24680   1.496   2.381  11.258 -0.1229 -0.0469 -0.0096
 8497W        W24681   8.449  14.472  15.244 -0.1088  0.2296 -0.0711
 8498W        W24682   4.163   0.883  11.415 -0.2319  0.2113 -0.1276
 8499W        W24683   8.297  11.956   4.273  0.0266 -0.1042 -0.0312
 8500W        W24684   3.498   2.034  11.855  0.1087  0.5379 -0.2388
 8501W        W24685   7.259   8.023   0.586  0.3159 -0.1161  0.2037
 8502W        W24686   0.296   8.103   4.090 -0.1118 -0.4118  0.1003
 8503W        W24687   3.310   9.303  12.082 -0.2489 -0.5252 -0.4878
 8504W        W24688   3.692  14.742   4.286 -0.1852 -0.0466  0.0665
 8505W        W24689  15.940   0.437  16.144  0.1982 -0.2145 -0.3460
 8506W        W24690   3.070  13.277   0.942 -0.0362  0.5445 -0.0164
 8507W        W24691  10.450   8.378   4.597  0.0626  0.1738  0.3694
 8508W        W24692  14.549   9.270   1.744 -0.1839 -0.2124  0.0422
 8509W        W24693  15.079   7.729   4.075 -0.0190  0.0660 -0.1165
 8510W        W24694   8.941   6.554   4.090 -0.0856 -0.0726  0.1816
 8511W        W24695   4.015  10.338   3.304 -0.0441 -0.2411 -0.0741
 8512W        W24696   6.721  11.848  12.929 -0.0419 -0.0261  0.1561
 8513W        W24697   7.267   2.065   4.584 -0.0631 -0.0650  0.1952
 8514W        W24698  14.520   4.548  12.061 -0.1100 -0.0841  0.0107
 8515W        W24699  14.036   8.014  12.189 -0.0941  0.1063 -0.2997
 8516W        W24700   5.003   7.795   3.117 -0.2056  0.0480 -0.1518
 8517W        W24701   2.796   7.081   3.882 -0.0804 -0.0554  0.0717
 8518W        W24702   7.960   6.154  15.113 -0.0148 -0.1152  0.0554
 8519W        W24703  11.051  12.187   0.589 -0.1747  0.0902  0.1003
 8520W        W24704   3.974   0.167   6.399  0.1201  0.0424 -0.1604
 8521W        W24705  13.156   4.781   3.077 -0.1220  0.1941  0.0779
 8522W        W24706  10.191   5.005  11.824  0.0211 -0.1578 -0.1415
 8523W        W24707  13.774   0.170   3.689  0.0190  0.0871  0.0904
 8524W        W24708   5.617   3.539   5.278 -0.2948  0.0140 -0.2250
 8525W        W24709  15.669  16.999   2.629 -0.1419 -0.1662  0.0367
 8526W        W24710   3.697  15.687  13.710  0.2484 -0.1402 -0.1051
 8527W        W24711   8.802  10.350   6.023  0.0363 -0.1099 -0.1216
 8528W        W24712  16.892  12.874  12.291 -0.2032 -0.0598  0.2331
 8529W        W24713  14.261   2.300   1.736 -0.0932  0.0186  0.0472
 8530W        W24714  16.833  13.224   0.156  0.1907 -0.1272 -0.1107
 8531W        W24715  14.285   0.835  12.044  0.0928 -0.1269  0.2718
 8532W        W24716   2.180  16.044  14.506 -0.2939  0.1340  0.1839
 8533W        W24717   7.552   2.582  11.629  0.0383 -0.0033 -0.2419
 8534W        W24718   3.167   9.072   0.552 -0.1302  0.2255 -0.0207
 8535W        W24719   8.775  10.240   1.167 -0.0815 -0.1929  0.1100
 8536W        W24720   1.767   8.916  15.786 -0.2048  0.0265  0.0193
 8537W        W24721  13.631   6.760   4.841  0.0567  0.2412  0.3750
 8538W        W24722   5.412   2.726   1.455  0.4133  0.0883 -0.1100
 8539W        W24723  17.491  15.361  16.171  0.4468 -0.3171 -0.0138
 8540W        W24724  10.409  17.940   0.024 -0.2959 -0.1713  0.1786
 8541W        W24725   0.960   6.648  16.552  0.2848  0.0387  0.0684
 8542W        W24726   7.790   7.474  14.523 -0.0773  0.1220 -0.2790
 8543W        W24727   4.775  11.178   4.991  0.0513  0.0008  0.1869
 8544W        W24728   4.848  13.010   2.040 -0.1942  0.2907  0.2441
 8545W        W24729  12.413  17.687  13.688 -0.4084 -0.0996 -0.2497
 8546W        W24730   5.961  10.109   3.412  0.0059  0.2325  0.3091
 8547W        W24731  12.369  13.642  15.064  0.0874 -0.0853  0.2513
 8548W        W24732  13.020   4.984  16.189  0.0184 -0.0345  0.1382
 8549W        W24733  13.095  14.312   4.828 -0.4027 -0.0287 -0.0188
 8550W        W24734  14.486   0.337   0.849  0.1427  0.1582 -0.2225
 8551W        W24735  15.015  14.743   6.373 -0.0680  0.0711  0.0542
 8552W        W24736  16.330  13.347  13.849 -0.0998 -0.2288 -0.0134
 8553W        W24737  17.052  14.287  12.129  0.1721  0.0869  0.0571
 8554W        W24738   6.891   3.188  12.882  0.3128 -0.1241 -0.1777
 8555W        W24739   3.636  13.378   3.123 -0.1245  0.0708  0.1864
 8556W        W24740   0.068   6.745  13.319  0.1944  0.1382  0.1056
 8557W        W24741  10.276   2.955   2.943 -0.3231  0.1536 -0.3030
 8558W        W24742  11.038  10.962   4.234 -0.2311 -0.0705  0.2108
 8559W        W24743   4.160   8.377  12.433  0.2017 -0.0333  0.3237
 8560W        W24744   0.123   6.705  12.068  0.0493 -0.2185  0.1464
 8561W        W24745  10.487   7.116   4.867 -0.1159  0.1974 -0.0988
 8562W        W24746  17.967  12.944   3.959 -0.0477  0.0309  0.0531
 8563W        W24747  14.661   9.699  10.957 -0.0723 -0.0439 -0.0355
 8564W        W24748  13.000  14.631   6.634  0.1582  0.1681  0.0460
 8565W        W24749  18.035  11.047   5.073  0.3956  0.3153 -0.4174
 8566W        W24750   8.874  11.240  12.408 -0.0081 -0.2663 -0.0312
 8567W        W24751   9.251   3.280  16.356 -0.0495  0.0943  0.1826
 8568W        W24752  17.041  12.067  15.142 -0.0316  0.0362  0.2929
 8569W        W24753   9.740   0.130  14.179 -0.0397 -0.2358 -0.0946
 8570W        W24754  14.286   1.593  11.762  0.0706 -0.3126 -0.0264
 8571W        W24755   1.093   0.568  12.691 -0.3046  0.0256  0.0642
 8572W        W24756  15.153   6.760  12.306  0.0799 -0.1114 -0.0626
 8573W        W24757  10.030  14.716   5.114  0.0657 -0.1720  0.2983
 8574W        W24758   2.773   9.650  12.193 -0.0992 -0.1577  0.1781
 8575W        W24759  14.120   1.039  10.623  0.1554  0.0783 -0.2045
 8576W        W24760  17.047   9.658   5.168 -0.0178  0.2067 -0.3542
 8577W        W24761   0.760   5.215  13.865 -0.1452  0.0515  0.0708
 8578W        W24762  10.187   9.462   4.738  0.1840  0.2751 -0.0296
 8579W        W24763  11.310  15.860  12.418  0.0261  0.0168  0.3061
 8580W        W24764   8.156   2.797   0.568 -0.0581 -0.0588 -0.0392
 8581W        W24765   4.512   8.155   4.841  0.0210 -0.1109  0.1437
 8582W        W24766  14.173  17.816  15.057 -0.1607 -0.2406  0.5448
 8583W        W24767   2.676  17.206   1.437  0.2193  0.0182  0.0696
 8584W        W24768   2.518  16.597   5.062 -0.1374  0.0778 -0.0223
 8585W        W24769   6.745   1.657  11.569  0.2518 -0.1736  0.1576
 8586W        W24770  14.676   2.829   3.354  0.0197  0.2467 -0.0519
 8587W        W24771   3.640   9.199   5.305 -0.0944 -0.1503  0.3754
 8588W        W24772  11.740   6.429  13.630  0.3034 -0.0135  0.3274
 8589W        W24773  17.021  14.226  14.409  0.2166 -0.2215  0.2027
 8590W        W24774   7.714   4.370   1.039  0.2998 -0.3629  0.2867
 8591W        W24775   5.875  14.385   1.584 -0.3239 -0.1274  0.1994
 8592W        W24776  14.197   8.158   4.062  0.2065 -0.1166 -0.1972
 8593W        W24777   1.937  17.017   3.908 -0.0685  0.0507 -0.0159
 8594W        W24778  13.103   4.325  14.014  0.0954 -0.0749 -0.1222
 8595W        W24779  16.718   3.818   0.908  0.0193 -0.2290 -0.3154
 8596W        W24780  11.279  14.590   2.063 -0.0322 -0.0299  0.0723
 8597W        W24781   4.944   2.362   3.655 -0.1755 -0.2926  0.0522
 8598W        W24782   5.562  14.820  14.056 -0.1173 -0.0153 -0.2732
 8599W        W24783   3.863  14.448   2.566  0.0661 -0.0880  0.0528
 8600W        W24784  13.051  10.712   2.437 -0.0446 -0.2298 -0.1546
 8601W        W24785   0.189   6.423   2.862 -0.2889  0.2108 -0.2554
 8602W        W24786  13.965  15.445  16.296 -0.1209  0.2329  0.2268
 8603W        W24787  11.444  17.701  11.855 -0.2750 -0.0760  0.0724
 8604W        W24788   3.968  13.889   0.952 -0.0388 -0.3158  0.0204
 8605W        W24789   3.905  14.107  12.170  0.4529  0.1249 -0.2032
 8606W        W24790  18.077  15.298  14.962  0.3272  0.1511  0.2389
 8607W        W24791  13.363  17.118   5.388  0.0400 -0.1212 -0.1697
 8608W        W24792   7.576   0.139   1.489  0.0187  0.0008  0.0819
 8609W        W24793  14.898  16.482  14.106 -0.0966  0.0657  0.1073
 8610W        W24794  10.671   5.560  16.018 -0.2170 -0.0695 -0.2259
 8611W        W24795  15.096   1.192  13.395 -0.1054  0.0277  0.1229
 8612W        W24796   6.436  10.130   4.145  0.1123 -0.1360  0.0741
 8613W        W24797  11.625   0.949   2.145  0.0790 -0.0973 -0.0178
 8614W        W24798   1.345  14.616   1.815 -0.4215  0.0352  0.1827
 8615W        W24799   3.203  11.636  13.155 -0.0314 -0.1790 -0.1531
 8616W        W24800  17.342  17.403   0.113 -0.2154  0.1459  0.1005
 8617W        W24801  15.967   5.000  14.759  0.2824 -0.0491  0.2542
 8618W        W24802  17.545   0.481   1.240  0.2380  0.2956 -0.0826
 8619W        W24803  17.586   5.052  13.704 -0.1622 -0.1219 -0.1309
 8620W        W24804  11.520  14.966  14.414  0.0810 -0.4520  0.2480
 8621W        W24805  15.109  12.900   5.185 -0.3913 -0.2725 -0.0617
 8622W        W24806  14.652   7.737  13.661  0.1718 -0.1615 -0.2509
 8623W        W24807  16.634   8.793   5.291  0.1878 -0.2969 -0.1505
 8624W        W24808   0.418  13.968  14.713 -0.4309 -0.0873  0.3193
 8625W        W24809   5.557   1.776   2.224  0.1762 -0.2337 -0.2315
 8626W        W24810   0.333  13.732   2.829 -0.0638 -0.0338  0.1686
 8627W        W24811   4.989   1.444   4.733  0.0898 -0.5326 -0.1434
 8628W        W24812  10.549  18.140  11.948  0.1542 -0.0366 -0.0622
 8629W        W24813   4.662   0.503  15.955 -0.3397  0.2451  0.0298
 8630W        W24814  12.282   3.080  13.294 -0.4593  0.0200 -0.0942
 8631W        W24815   0.172   5.345  11.279 -0.3775 -0.2372 -0.2004
 8632W        W24816  12.503   9.302  14.013 -0.2195  0.0211 -0.0744
 8633W        W24817   4.059   9.758   3.487 -0.0656 -0.1787 -0.0599
 8634W        W24818   2.309   2.839  15.741 -0.0528  0.0821 -0.0093
 8635W        W24819   5.633  14.105  16.159  0.0058 -0.0427 -0.1209
 8636W        W24820   4.224   9.141   3.359  0.0835  0.0574 -0.1039
 8637W        W24821   6.133  17.264   1.422 -0.2054  0.0101 -0.1339
 8638W        W24822   6.746   9.714   0.134 -0.0020  0.2181 -0.1873
 8639W        W24823  13.016  13.105   4.408 -0.0874  0.0633  0.1404
 8640W        W24824  12.202  17.068   0.288 -0.0259  0.1456  0.0500
 8641W        W24825   1.279   9.935   4.847 -0.0946 -0.2987 -0.2190
 8642W        W24826   5.691  13.742   1.485 -0.1971 -0.1077  0.3374
 8643W        W24827   5.426  10.819  14.392 -0.1623 -0.3791  0.0259
 8644W        W24828  16.355   6.354  11.126 -0.4347  0.1737  0.2907
 8645W        W24829  11.521   8.404  15.473 -0.1727 -0.2183 -0.0875
 8646W        W24830  17.628   7.705   5.792 -0.2572 -0.3528  0.1046
 8647W        W24831   6.782  15.298  13.396 -0.0929 -0.0500 -0.2376
 8648W        W24832  17.091  11.791   4.710 -0.0745 -0.0822 -0.0459
 8649W        W24833  15.612   0.571   2.528  0.1408  0.0240 -0.1795
 8650W        W24834  17.575   9.686  12.056 -0.1249 -0.1342 -0.0772
 8651W        W24835   7.474   9.981  14.273  0.0860 -0.2356 -0.0062
 8652W        W24836  12.850   4.805  14.152  0.1283 -0.0444 -0.0401
 8653W        W24837  11.634   5.263   1.857 -0.2757  0.2949  0.0475
 8654W        W24838  13.611  11.697   4.373 -0.3078 -0.0625 -0.0746
 8655W        W24839  17.962  14.075   4.575  0.0298 -0.3333 -0.0110
 8656W        W24840   5.134  11.868   1.150 -0.1992 -0.2137 -0.0654
 8657W        W24841  17.425   6.159  16.439 -0.2798 -0.0920 -0.0225
 8658W        W24842  10.642   2.410  15.621 -0.2102  0.2026 -0.0162
 8659W        W24843  17.588   4.848   1.175 -0.0118 -0.0078 -0.2724
 8660W        W24844  11.832   3.148   4.884  0.0170 -0.1189  0.0595
 8661W        W24845  15.636   0.405  10.066  0.0975 -0.0298 -0.0835
 8662W        W24846   8.959  17.790   4.167  0.1739  0.1165  0.3095
 8663W        W24847   1.848  14.175   0.199 -0.1249  0.0009 -0.0536
 8664W        W24848  16.807   7.019  13.557 -0.3766 -0.0239  0.0810
 8665W        W24849  17.834   5.894   4.043 -0.0059  0.2203  0.0422
 8666W        W24850  15.915  15.652   4.299 -0.1834  0.0338 -0.3558
 8667W        W24851   8.929   5.768   0.830 -0.1552 -0.2419 -0.1159
 8668W        W24852   4.615   4.101  14.659  0.0356  0.2136 -0.2851
 8669W        W24853  11.524  14.684  15.255  0.0645 -0.2428 -0.1942
 8670W        W24854   4.095  12.960   5.454  0.0867  0.2898  0.0358
 8671W        W24855  10.646  11.607  15.753 -0.2624 -0.0725  0.0876
 8672W        W24856   1.208  11.360  15.174 -0.1837  0.1918 -0.0950
 8673W        W24857  15.131   3.454  15.839 -0.2020  0.0814 -0.1231
 8674W        W24858  15.929  11.346   2.088  0.1826 -0.4384 -0.1726
 8675W        W24859  11.909   2.275  15.181  0.2262 -0.1714 -0.2130
 8676W        W24860  11.948  15.001   0.274  0.0204 -0.1490 -0.0353
 8677W        W24861   1.425  11.732   1.364 -0.0838 -0.0718 -0.3750
 8678W        W24862  17.564  17.420  12.383  0.0875 -0.2110 -0.1387
 8679W        W24863  17.803  16.366   6.249  0.1497  0.1564  0.4925
 8680W        W24864   1.294   5.301   2.763 -0.3894  0.0330  0.1388
 8681W        W24865  11.249   0.652  14.317 -0.4134 -0.1271  0.2540
 8682W        W24866  10.406   2.306   0.597 -0.0541  0.0739  0.3418
 8683W        W24867  14.802   4.445   5.180 -0.3784 -0.2247  0.0804
 8684W        W24868  11.396   5.230  11.814  0.0772  0.1961  0.0545
 8685W        W24869   9.909  11.328  13.034 -0.2352  0.0111 -0.2253
 8686W        W24870   0.618   8.539   4.859 -0.2997 -0.1946 -0.1039
 8687W        W24871   8.560   6.120   0.866  0.0212 -0.1665 -0.1275
 8688W        W24872   8.435  11.421   2.728  0.0586 -0.0757 -0.1112
 8689W        W24873   0.840  13.387   4.483 -0.0432  0.1953 -0.0229
 8690W        W24874   1.165   6.865   1.835  0.0636  0.0395 -0.4127
 8691W        W24875  15.627  13.275   2.450  0.0862  0.2681  0.0830
 8692W        W24876   1.391  12.150   3.954  0.4571 -0.1185  0.1978
 8693W        W24877   7.695  15.074  16.622 -0.0861  0.0100  0.0310
 8694W        W24878  15.172  15.482   5.463  0.2703  0.0222  0.2671
 8695W        W24879   0.034  11.846  15.452  0.2290 -0.0510 -0.0424
 8696W        W24880  16.937  17.535  10.589 -0.0467 -0.0247  0.0607
 8697W        W24881   1.410  14.777  14.202 -0.2069 -0.0354  0.0440
 8698W        W24882   9.591  17.407  16.660 -0.0963 -0.1603 -0.1328
 8699W        W24883   5.458   0.279   2.408  0.2283  0.2155  0.3354
 8700W        W24884  14.778  11.814   3.366  0.0867 -0.0564 -0.2307
 8701W        W24885   6.968  11.622   2.921 -0.1090 -0.1402  0.2236
 8702W        W24886  10.163   6.326  12.009  0.0384  0.0419  0.0831
 8703W        W24887   3.800   8.551  16.059  0.0046 -0.0455  0.2266
 8704W        W24888  16.839   4.110  11.980  0.0069  0.1771 -0.0308
 8705W        W24889   7.271  13.649   0.210  0.0676  0.2965  0.0144
 8706W        W24890   1.012  11.029  13.695 -0.1408 -0.0438 -0.1759
 8707W        W24891   7.782   2.676  14.805 -0.0198 -0.2640 -0.1150
 8708W        W24892  17.649  13.963  16.276 -0.1736 -0.3684  0.0482
 8709W        W24893  14.983  12.685   0.109  0.3993  0.1021 -0.0231
 8710W        W24894  15.153   4.573   0.949  0.3484  0.0071 -0.0970
 8711W        W24895  14.904   4.101   0.019  0.1162  0.1336 -0.0646
 8712W        W24896  13.126  16.465   0.249  0.2350 -0.1099  0.2466
 8713W        W24897   4.770   1.373   5.686 -0.0516 -0.3394 -0.0210
 8714W        W24898  12.341  14.581   1.466 -0.0686  0.1691  0.1293
 8715W        W24899   9.927  12.444  15.220  0.2189 -0.2641  0.3261
 8716W        W24900   7.221   3.314  14.291 -0.0616  0.2102 -0.0712
 8717W        W24901  11.059  18.163  12.023  0.0023  0.3128 -0.0684
 8718W        W24902  15.915  14.524   4.423 -0.2330 -0.2489 -0.0540
 8719W        W24903   6.476   3.879   1.532  0.3742 -0.4332  0.0067
 8720W        W24904   3.639   0.918  12.693  0.0648 -0.2239 -0.1040
 8721W        W24905   9.131   8.611  14.907 -0.0256  0.2026  0.0051
 8722W        W24906   1.584   8.940   2.752  0.2065 -0.0769 -0.2527
 8723W        W24907  13.407   6.848  16.125  0.0928  0.4198 -0.0622
 8724W        W24908  13.051   9.366  14.146 -0.0718  0.0672 -0.2408
 8725W        W24909   3.346   1.193   2.277  0.0008 -0.0867 -0.0678
 8726W        W24910  14.038  13.229   1.065 -0.2883  0.1476  0.0634
 8727W        W24911  10.742   8.862  12.572  0.1814  0.1029 -0.1048
 8728W        W24912   0.590  14.272   3.030 -0.2609 -0.0944 -0.0963
 8729W        W24913   8.435   5.328  15.425  0.2597 -0.0187  0.2885
 8730W        W24914  16.792  11.652  14.918 -0.0118 -0.2358 -0.0210
 8731W        W24915   8.469   8.262  12.523  0.3536 -0.1612 -0.0101
 8732W        W24916  16.136  11.805   2.196  0.3436 -0.0824 -0.2422
 8733W        W24917   9.950   8.325  14.379 -0.1553 -0.3121  0.3375
 8734W        W24918  14.194  17.516  13.059 -0.0601  0.1036 -0.0984
 8735W        W24919   5.835   1.404  11.882 -0.2840  0.0591 -0.0462
 8736W        W24920   4.618   9.590  10.836 -0.0045  0.1032 -0.2741
 8737W        W24921   0.124  16.102   1.702 -0.0789  0.2562  0.0252
 8738W        W24922  13.411   0.159  12.315  0.0856 -0.0445  0.2311
 8739W        W24923   3.183   8.459  13.915  0.1630  0.0749  0.2076
 8740W        W24924  11.246   7.803   0.147 -0.1207  0.0053  0.1881
 8741W        W24925   1.864  12.139   4.743  0.2186  0.0790 -0.1134
 8742W        W24926  17.493   9.612   0.080 -0.0952 -0.1385  0.2249
 8743W        W24927   6.604  14.238   6.207 -0.4269 -0.3510  0.0998
 8744W        W24928   7.044   0.570  16.125  0.0541  0.0404 -0.1472
 8745W        W24929  10.137  11.209   3.579 -0.3235 -0.1760  0.0348
 8746W        W24930   7.318   2.610  14.892 -0.0953 -0.0323  0.0005
 8747W        W24931  11.073   8.464  12.760  0.0344  0.0983  0.2207
 8748W        W24932  13.848   5.339   4.222  0.0035 -0.0645 -0.1020
 8749W        W24933  13.070  15.629   4.314  0.1425  0.2499  0.1300
 8750W        W24934  17.310   1.435  11.987 -0.2225  0.0105 -0.1000
 8751W        W24935   5.086  15.560   3.268  0.1263  0.0870 -0.1378
 8752W        W24936  10.305  16.880   2.666 -0.1615  0.2192  0.0030
 8753W        W24937   9.090  16.466   4.516 -0.0897 -0.0054 -0.3366
 8754W        W24938   3.325   8.507   2.962  0.1823  0.0715 -0.4033
 8755W        W24939  11.418   6.524   4.857 -0.3250  0.1017 -0.1464
 8756W        W24940  17.993   6.807   1.010 -0.0688  0.0500 -0.3379
 8757W        W24941  10.822  10.678   4.703 -0.1897  0.1227  0.2563
 8758W        W24942   6.651   4.540   6.159  0.1715 -0.1151 -0.0726
 8759W        W24943   9.358  17.691   3.300  0.1147 -0.1788  0.1194
 8760W        W24944  12.722  12.640   1.987 -0.0205 -0.1041  0.1554
 8761W        W24945   7.149  13.245   0.886  0.0545  0.1613  0.3254
 8762W        W24946   9.569  17.949   0.942 -0.1765 -0.1601 -0.0749
 8763W        W24947  10.989   7.289  14.660  0.0346  0.1155 -0.0859
 8764W        W24948  15.428  12.942  14.862 -0.0677 -0.1401  0.2841
 8765W        W24949   4.347  16.914   5.108 -0.2886  0.1279  0.2727
 8766W        W24950  17.821  18.037   1.994 -0.0973  0.2325  0.1995
 8767W        W24951   2.680  10.828  12.266 -0.3287 -0.1376  0.1278
 8768W        W24952  17.342   9.254   0.375 -0.0504  0.3121  0.3511
 8769W        W24953   6.589  15.674  13.765  0.2782  0.0250 -0.2506
 8770W        W24954   3.170   0.901   3.343  0.0202 -0.2929  0.3750
 8771W        W24955   4.986   8.494  13.534  0.0305 -0.0419  0.1783
 8772W        W24956   9.108  16.814  16.166 -0.1925 -0.0147  0.1007
 8773W        W24957   9.044   7.844  14.571 -0.1431 -0.2955 -0.0098
 8774W        W24958   2.073  16.634   4.763  0.3161  0.1923  0.0801
 8775W        W24959   4.188   9.581  16.473  0.1199  0.1410 -0.0791
 8776W        W24960   7.338  16.242  13.328 -0.1522  0.1664 -0.2941
 8777W        W24961   1.952  14.029   5.217  0.0214 -0.3817  0.0730
 8778W        W24962   3.634  12.150   4.618  0.4783 -0.1263 -0.0800
 8779W        W24963   6.489  16.176  14.126 -0.1295 -0.2425  0.0493
 8780W        W24964  17.229   8.025  16.531  0.0301 -0.1683 -0.0907
 8781W        W24965  14.615   4.818   3.905 -0.0420 -0.1862  0.1168
 8782W        W24966  16.931  15.325   2.084  0.1636  0.0176  0.0076
 8783W        W24967   8.535  11.186   5.317 -0.0429  0.3583 -0.4104
 8784W        W24968   4.783  14.728   0.173 -0.2909  0.0041 -0.2782
 8785W        W24969  11.822   0.320   0.366 -0.0433  0.2531  0.1700
 8786W        W24970   4.288   3.235  13.200  0.0439  0.0504 -0.1476
 8787W        W24971  14.245  15.859  13.646  0.0995  0.1002 -0.2667
 8788W        W24972  15.145   1.615   2.669  0.2547 -0.0713  0.3497
 8789W        W24973   5.882  13.721  15.418  0.1931  0.0754  0.1283
 8790W        W24974   9.300  11.326  15.009  0.1709  0.2729  0.4970
 8791W        W24975   0.435  16.402   3.019  0.0189  0.0759  0.3001
 8792W        W24976   2.625  10.560   2.619 -0.2105  0.0107  0.1944
 8793W        W24977  14.607  12.032   4.792 -0.4752 -0.1508  0.0641
 8794W        W24978  15.987   0.331  16.634  0.2701 -0.2483 -0.0333
 8795W        W24979   4.232  10.857  12.681 -0.1856 -0.5650  0.1799
 8796W        W24980   2.167  15.800  14.951 -0.1711 -0.0216  0.0559
 8797W        W24981   0.828  12.053   3.116 -0.0923  0.0238  0.1136
 8798W        W24982   5.526   0.543  11.451  0.1927 -0.0120 -0.4358
 8799W        W24983   3.101  10.465   5.513 -0.0250  0.1640  0.1059
 8800W        W24984  15.962  13.492   3.189  0.0533  0.2106  0.2543
 8801W        W24985  14.449   4.240  15.547 -0.0814 -0.1347 -0.1625
 8802W        W24986  13.960  11.270   1.183  0.1074  0.0003 -0.1045
 8803W        W24987  12.878   9.463   0.309  0.1119  0.1928  0.0543
 8804W        W24988   0.676   5.658  10.007 -0.2489 -0.0392  0.1666
 8805W        W24989  16.193   4.472   1.125  0.3198 -0.0684 -0.2701
 8806W        W24990   7.143   1.425  11.825  0.2545 -0.0377 -0.0692
 8807W        W24991   3.374   5.017   5.070  0.1892  0.1490  0.3913
 8808W        W24992   0.771  10.122  13.591  0.3810  0.0971  0.0223
 8809W        W24993  16.588  18.035  15.997  0.2618 -0.0040  0.1135
 8810W        W24994   1.013  15.842  11.649  0.0952 -0.0737 -0.1213
 8811W        W24995  14.604   2.056   5.794  0.2143  0.1295  0.0443
 8812W        W24996   5.815  11.382   1.978  0.0976 -0.0806 -0.0698
 8813W        W24997  17.326   6.587   1.694 -0.0575  0.0527  0.0732
 8814W        W24998   0.086  11.279  12.820  0.3435 -0.0073 -0.0701
 8815W        W24999  15.299  14.035   6.537 -0.0571  0.1395 -0.1863
 8816W        W25000  10.379   1.487   4.421 -0.1491  0.2060 -0.0259
 8817W        W25001   5.581   3.122   4.975 -0.2509 -0.2060 -0.1700
 8818W        W25002   6.726   7.850  15.331  0.0905  0.0251  0.0522
 8819W        W25003   4.677   3.478   2.329 -0.3843  0.0081 -0.0078
 8820W        W25004   7.275   6.770   2.022 -0.3222 -0.2440 -0.1717
 8821W        W25005  10.665   0.013  15.775 -0.1317 -0.0384  0.1077
 8822W        W25006  12.840   2.392   1.945 -0.3379 -0.2729 -0.1363
 8823W        W25007  15.287   3.525   5.775 -0.0249  0.1546 -0.2389
 8824W        W25008  17.160   9.011  15.876 -0.2141  0.0316  0.2774
 8825W        W25009   4.305   9.254  12.159  0.0240  0.0561 -0.1324
 8826W        W25010  17.159  16.934   5.168 -0.3074  0.1710  0.0946
 8827W        W25011  17.883  17.947   5.703 -0.0835 -0.2483 -0.0070
 8828W        W25012   4.897   8.569  15.170 -0.2483 -0.3362 -0.1674
 8829W        W25013   4.500   2.870  15.800  0.1792  0.0341  0.1655
 8830W        W25014   5.321   4.026  14.877  0.1384 -0.3571 -0.0377
 8831W        W25015  13.350  10.846   4.106 -0.0393 -0.1134 -0.3388
 8832W        W25016  10.082   6.419  13.003 -0.0672 -0.0871  0.0516
 8833W        W25017  13.808   5.002   1.942 -0.4881  0.2074  0.0056
 8834W        W25018   4.682  18.143   3.956  0.1693 -0.3610 -0.1702
 8835W        W25019   9.037  14.850  12.484  0.2551  0.5449  0.2426
 8836W        W25020  10.867  12.957   3.543  0.0248  0.0479  0.3045
 8837W        W25021   3.084  10.618  15.063  0.0110  0.1617  0.2220
 8838W        W25022   6.350   9.473   5.284 -0.0845 -0.0414  0.0267
 8839W        W25023   8.171   6.101   5.303  0.0067 -0.1487  0.2917
 8840W        W25024  14.168   8.286   0.623 -0.1346  0.0832  0.1321
 8841W        W25025  17.189   1.639  11.200 -0.1257 -0.0778  0.1639
 8842W        W25026  17.147  10.730  15.268  0.0769 -0.0889  0.0328
 8843W        W25027   8.032  14.838  16.318 -0.3271 -0.0434 -0.0764
 8844W        W25028   2.984   7.156  12.905 -0.0779 -0.0620 -0.1482
 8845W        W25029  14.925  14.160   1.485 -0.1056 -0.1000 -0.0929
 8846W        W25030  16.779   1.048  10.548 -0.2317  0.0666 -0.2471
 8847W        W25031   1.172   2.373  15.326  0.2366  0.3041  0.2927
 8848W        W25032   9.253  16.001   6.249 -0.3417  0.1695 -0.3051
 8849W        W25033  10.129   3.481   3.764 -0.0637 -0.1795 -0.1559
 8850W        W25034   3.414   9.096   4.876 -0.5276  0.0955  0.2410
 8851W        W25035   4.437   3.363   0.699 -0.1818  0.0723 -0.2018
 8852W        W25036  12.121   2.573   2.418  0.3477  0.1859 -0.1217
 8853W        W25037   7.371   5.830   1.462  0.0268  0.2330  0.3884
 8854W        W25038  13.225   8.426  14.781 -0.0640  0.4018  0.1685
 8855W        W25039   6.755  10.220   0.815  0.1767 -0.1132  0.2623
 8856W        W25040   6.233   7.982  15.319  0.0158 -0.0758  0.1816
 8857W        W25041  11.958  11.640  11.302 -0.1055  0.1078 -0.0802
 8858W        W25042  13.102  14.978   4.861 -0.0567  0.2170  0.1803
 8859W        W25043   8.713  18.037   0.733  0.3656 -0.1118 -0.0578
 8860W        W25044   8.315   0.493  12.015 -0.2576  0.0799  0.1451
 8861W        W25045   6.436   2.088   0.175  0.0772 -0.2455  0.0231
 8862W        W25046  18.031   8.411   3.070 -0.1407  0.2787  0.1313
 8863W        W25047   7.554   0.765  12.406  0.0400 -0.0336  0.1979
 8864W        W25048   1.676   2.453   4.728 -0.2467 -0.2420  0.3016
 8865W        W25049   2.395   0.494  15.757 -0.0559 -0.1538  0.0695
 8866W        W25050   6.871   0.323  15.640  0.0641 -0.1313  0.1834
 8867W        W25051  11.316   8.128  14.623  0.1940  0.0586  0.1866
 8868W        W25052   5.650  11.474   0.421  0.2100  0.0417  0.1111
 8869W        W25053  11.805   2.741   4.242  0.1055  0.1048  0.2975
 8870W        W25054   5.682  13.434   3.815  0.2992 -0.0541  0.0764
 8871W        W25055   0.962   3.538  13.555  0.1213 -0.1636 -0.1861
 8872W        W25056   8.945  14.968   3.376  0.0829 -0.0091 -0.0687
 8873W        W25057   7.960   9.888   1.844  0.1419  0.2458  0.1226
 8874W        W25058   1.584   6.024  14.389 -0.1056 -0.1029 -0.0067
 8875W        W25059  13.819  18.072   5.724 -0.2848  0.0798  0.2036
 8876W        W25060   2.301   4.360  12.456  0.2140  0.0018  0.2515
 8877W        W25061  12.238  13.912  16.409  0.0194  0.1667 -0.2140
 8878W        W25062  14.066  17.348  15.237 -0.0570  0.2190 -0.0718
 8879W        W25063   9.042  11.533  14.208  0.3658  0.2173 -0.1345
 8880W        W25064   6.666   2.121   1.489  0.0360 -0.2397  0.1212
 8881W        W25065   9.786   4.532  16.082 -0.1702  0.2877 -0.4837
 8882W        W25066  15.588  14.936   4.352 -0.1109 -0.1180  0.0021
 8883W        W25067   0.278  15.251  15.384  0.0265 -0.2448 -0.0485
 8884W        W25068  13.176  15.019  16.098  0.1474 -0.0036  0.0448
 8885W        W25069   9.529  11.998  12.499 -0.1040 -0.4189  0.3728
 8886W        W25070   6.546   4.103   4.660  0.0181  0.0796  0.0077
 8887W        W25071   9.355   0.969  12.029 -0.1952  0.2088 -0.0182
 8888W        W25072  14.688  16.042   4.620  0.0711 -0.0062  0.2257
 8889W        W25073   4.741  14.463   2.116 -0.0114  0.0949  0.1430
 8890W        W25074  10.544   4.315  16.640 -0.2795  0.4253  0.0315
 8891W        W25075   6.766   1.778   6.242 -0.0672  0.3205 -0.0500
 8892W        W25076  11.543   3.186   5.842  0.1961 -0.1356  0.1041
 8893W        W25077  13.776  14.822   4.101  0.1159 -0.0854 -0.1372
 8894W        W25078   2.597   7.274  11.171  0.0585 -0.0344  0.0292
 8895W        W25079  10.117   7.468   2.352  0.2822 -0.3841 -0.1945
 8896W        W25080  14.059   7.875   1.445 -0.1044  0.0952 -0.2871
 8897W        W25081   5.188   1.429   2.023 -0.0294 -0.0786 -0.0649
 8898W        W25082   7.400   1.377   5.361 -0.1904 -0.2421  0.0101
 8899W        W25083   7.128  17.161   1.117  0.0310  0.0772  0.1090
 8900W        W25084   0.242  11.298  14.141  0.0415  0.0329 -0.0594
 8901W        W25085  17.649   3.880   0.711 -0.0418  0.1044 -0.0585
 8902W        W25086   9.369  12.309  13.911 -0.0613  0.0334  0.0475
 8903W        W25087   4.182  15.880   2.662  0.1123 -0.1251  0.0103
 8904W        W25088  15.227   8.454   2.487 -0.0720  0.1057  0.0661
 8905W        W25089   6.984   1.397  16.127 -0.0182 -0.1602 -0.0255
 8906W        W25090   3.466  14.427   2.850 -0.0574 -0.2286  0.1956
 8907W        W25091   4.204   5.906   6.253 -0.1142 -0.2903  0.2041
 8908W        W25092   2.714   8.110  16.426  0.2440 -0.2403  0.2337
 8909W        W25093  10.719  16.152  13.510  0.0452  0.1024  0.0198
 8910W        W25094   4.118  16.406   4.440  0.1371 -0.2521  0.0748
 8911W        W25095   8.651   8.680   2.328  0.1856  0.1366  0.0405
 8912W        W25096  11.908   8.687   3.773  0.2557  0.2542 -0.2485
 8913W        W25097  14.663   9.497   4.297 -0.2331 -0.0678  0.1332
 8914W        W25098  17.884  12.645  12.204 -0.2734 -0.0418 -0.0518
 8915W        W25099  10.072   2.231  15.788 -0.1361  0.0375 -0.3266
 8916W        W25100   5.208   5.195   4.313 -0.0396  0.2782 -0.1345
 8917W        W25101   4.911  11.775   6.789 -0.0881  0.1586  0.0918
 8918W        W25102   4.798  14.983   3.328 -0.2851  0.2423  0.0319
 8919W        W25103  13.532  14.400  14.851  0.1798  0.1207 -0.0117
 8920W        W25104   9.448   5.541   0.109  0.1030  0.1525 -0.1678
 8921W        W25105   4.024   9.652   4.555  0.2948  0.2990 -0.1517
 8922W        W25106   7.201   2.114  15.828 -0.2227 -0.0084  0.3216
 8923W        W25107  14.137   8.499  13.035  0.3610  0.0818  0.0438
 8924W        W25108   8.389  16.841   2.090  0.1147 -0.2585  0.1058
 8925W        W25109  14.626   4.506  13.075  0.3853 -0.1145  0.2118
 8926W        W25110   6.024   6.051  11.586  0.0869  0.0954  0.0370
 8927W        W25111  12.342   0.351  13.154 -0.0352 -0.3346 -0.0126
 8928W        W25112   5.404   0.309  15.370  0.1591  0.0193 -0.0372
 8929W        W25113   6.848   0.489  12.970  0.1166 -0.2033  0.1691
 8930W        W25114  14.689   0.292   4.806 -0.1562  0.0912 -0.1591
 8931W        W25115   0.560   2.906   4.017 -0.2028 -0.1320  0.1617
 8932W        W25116  10.614  11.312  13.583 -0.1339 -0.5370  0.2124
 8933W        W25117   3.943   5.256   2.052  0.0658  0.1557 -0.1617
 8934W        W25118   7.794   3.642  16.616  0.2379  0.1105 -0.0205
 8935W        W25119   4.219  10.140   4.580  0.0243 -0.0779  0.1650
 8936W        W25120  11.080  15.248   0.090  0.1974 -0.0882 -0.0515
 8937W        W25121  14.356   1.873  10.427 -0.0835 -0.1996  0.0641
 8938W        W25122  15.295  10.637  15.395 -0.5222 -0.2202  0.1336
 8939W        W25123   7.736   0.906   1.108 -0.1908 -0.1395  0.2120
 8940W        W25124  14.325   4.251   3.172  0.0606  0.3531  0.2707
 8941W        W25125  13.898  16.752  12.672  0.2383  0.1152 -0.0641
 8942W        W25126   5.304   7.271  12.871  0.0008  0.2364 -0.1830
 8943W        W25127   8.669   6.202   6.016  0.0978  0.1368 -0.3353
 8944W        W25128   7.697  10.748  12.655 -0.2214  0.0997  0.1264
 8945W        W25129   9.631   5.199   5.972  0.3212 -0.0285  0.3055
 8946W        W25130  12.168   4.886  15.543  0.0492 -0.0982 -0.0296
 8947W        W25131   7.408  11.157  12.491  0.1972 -0.2923 -0.0567
 8948W        W25132  14.205  17.713   5.673 -0.2503 -0.4255  0.2803
 8949W        W25133  13.535   1.379  13.330  0.3942  0.1915  0.1675
 8950W        W25134   9.820   4.089  10.581 -0.2433  0.0992  0.2015
 8951W        W25135  14.412  10.345   6.228 -0.0304  0.1359 -0.2081
 8952W        W25136  17.755  11.564   0.880 -0.2173  0.0236  0.1118
 8953W        W25137  15.179   5.722   0.533  0.1149 -0.2087  0.1095
 8954W        W25138  12.394   6.586  13.175  0.1442 -0.2552  0.0444
 8955W        W25139   6.919  17.039   5.198  0.0264 -0.2332 -0.2243
 8956W        W25140   1.662  16.697  14.406  0.1192 -0.0031  0.0747
 8957W        W25141  15.615   7.040  13.684 -0.2966 -0.0007 -0.0934
 8958W        W25142  15.323   9.945   3.120 -0.2729  0.3719 -0.0785
 8959W        W25143  17.056   1.865   5.090 -0.0321 -0.3004 -0.1130
 8960W        W25144   7.283  14.698   2.606  0.0005 -0.0033 -0.0348
 8961W        W25145   2.105   3.185   1.535  0.0737  0.0719  0.2135
 8962W        W25146  15.971  15.183  16.532  0.3600 -0.1814 -0.0020
 8963W        W25147  15.563   7.465  11.961  0.0436 -0.0281 -0.3437
 8964W        W25148   8.209   5.210  13.519 -0.0791  0.0052  0.3683
 8965W        W25149   5.538   4.698  16.639  0.0261 -0.0250  0.1414
 8966W        W25150   7.318   0.844   5.510 -0.1809 -0.1164 -0.2159
 8967W        W25151  16.608   8.293   2.589 -0.0331 -0.1763  0.1016
 8968W        W25152   6.065   6.967  12.150 -0.1813 -0.1106  0.0804
 8969W        W25153   2.036  15.380   0.824  0.4326  0.1947 -0.0809
 8970W        W25154   7.114  10.666  12.807 -0.1201 -0.1578 -0.0840
 8971W        W25155   9.253   1.069   5.761  0.1505 -0.1914 -0.4073
 8972W        W25156  15.059   5.727  11.595  0.1227 -0.2291 -0.0914
 8973W        W25157   7.522  15.139   5.885 -0.1027  0.2282 -0.0947
 8974W        W25158  16.060  15.072  13.736 -0.2126  0.1195  0.1240
 8975W        W25159   1.436  10.724  13.869  0.0729  0.1983  0.1288
 8976W        W25160  12.449   4.825   0.364  0.1546 -0.0603 -0.1702
 8977W        W25161  12.464  17.810   4.566 -0.0822  0.0762  0.1160
 8978W        W25162  17.187   3.284  16.596  0.0340  0.0172 -0.1426
 8979W        W25163   3.689   8.628   1.599  0.2689  0.1708  0.2035
 8980W        W25164   6.908   9.002   4.803  0.3124 -0.0303  0.4187
 8981W        W25165  10.209   8.853  14.062  0.0744 -0.2350  0.0436
 8982W        W25166   5.653  14.674   4.725 -0.2552 -0.1258  0.0744
 8983W        W25167  11.519  13.810   1.949  0.0648  0.3263 -0.3465
 8984W        W25168  12.267   6.738  11.907 -0.1654 -0.0763 -0.1793
 8985W        W25169  15.311  14.533   3.729  0.5717 -0.2963 -0.2065
 8986W        W25170  14.145   3.761   1.448  0.1273  0.1312  0.0667
 8987W        W25171   1.473   9.693   5.277  0.2653 -0.1976  0.0898
 8988W        W25172  10.681   4.561   0.770 -0.1053  0.0708 -0.0478
 8989W        W25173   7.008   4.494   3.614 -0.0623 -0.0501 -0.0093
 8990W        W25174  13.433   5.159  10.613 -0.1706  0.0990 -0.0726
 8991W        W25175   8.384  16.733  12.688  0.3885  0.2801 -0.4705
 8992W        W25176  11.002  17.773  12.842  0.1788 -0.0762  0.0744
 8993W        W25177   4.959   6.624   4.777  0.0473  0.0805 -0.2197
 8994W        W25178   5.497   0.809  15.594  0.3587  0.1192  0.1666
 8995W        W25179  11.007  16.143  16.635  0.0589  0.0637  0.0445
 8996W        W25180   1.644   4.980  11.142 -0.0371 -0.2390  0.1174
 8997W        W25181   6.340   9.015  12.741  0.1001  0.0270 -0.0230
 8998W        W25182   4.585   3.646  12.222 -0.2892 -0.0118  0.3761
 8999W        W25183  13.354  16.347   4.529 -0.0663 -0.1596  0.0990
 9000W        W25184   8.865  10.877   5.049 -0.0703 -0.3012 -0.0721
 9001W        W25185   2.401  17.744   4.158 -0.3074  0.1824  0.0068
 9002W        W25186   4.591   4.549  14.947  0.2992 -0.2625  0.0395
 9003W        W25187  10.377   7.344  15.820  0.4291 -0.3469  0.0891
 9004W        W25188   7.653   9.461   5.197  0.1840  0.0409 -0.1170
 9005W        W25189   2.703   5.166  11.371 -0.1531  0.0601 -0.1002
 9006W        W25190  11.684   1.168  16.415  0.2744 -0.1939  0.1852
 9007W        W25191   1.728   6.205   4.246  0.1939  0.0932 -0.1651
 9008W        W25192  12.719  17.084   2.824  0.2773  0.0322 -0.0926
 9009W        W25193  10.191  17.875  11.746  0.1769 -0.1370  0.0654
 9010W        W25194  17.791   5.234  15.533  0.1755  0.1174 -0.5189
 9011W        W25195   7.852  13.376   2.379 -0.0682 -0.1457  0.2475
 9012W        W25196  10.303   5.444  12.073 -0.1002  0.0432  0.2400
 9013W        W25197   4.012   2.116   2.977  0.1347  0.0477  0.3850
 9014W        W25198  10.813   4.114   4.583 -0.4719 -0.0440  0.0849
 9015W        W25199   3.717   7.403  16.407  0.1999 -0.0508 -0.1023
 9016W        W25200  14.365   3.020   4.488 -0.2887 -0.3739  0.0158
 9017W        W25201  12.902  13.900   5.693 -0.1703 -0.2042  0.0892
 9018W        W25202   4.223  14.797   0.391 -0.2013 -0.2876  0.0717
 9019W        W25203  15.819  13.272  11.722 -0.1026  0.0555 -0.1629
 9020W        W25204   6.674   2.095  12.530 -0.0947  0.2677 -0.0693
 9021W        W25205   4.821   5.891  13.725 -0.1939  0.2536  0.0117
 9022W        W25206   4.418   6.408  13.406  0.0641 -0.3854  0.1528
 9023W        W25207  14.856  15.052  13.158 -0.1946 -0.1188  0.2254
 9024W        W25208   9.237  11.007   6.013  0.0060  0.1246  0.0922
 9025W        W25209  13.832   6.547  16.262 -0.1051 -0.0188 -0.1524
 9026W        W25210  15.994  11.037   3.957  0.1066 -0.0818  0.3064
 9027W        W25211   6.411   6.898  15.396  0.2087  0.0062 -0.0395
 9028W        W25212   9.017  14.292  12.033 -0.1000  0.1557 -0.0813
 9029W        W25213   8.659   9.895   0.566  0.1052 -0.5792 -0.2245
 9030W        W25214  12.204   3.097  16.064  0.0378  0.0264 -0.1059
 9031W        W25215  17.657  14.387   4.807 -0.0824 -0.1144 -0.2556
 9032W        W25216   5.754   4.943  15.715 -0.1321 -0.0101  0.1588
 9033W        W25217  17.280   9.207   5.009  0.1256  0.2024 -0.3464
 9034W        W25218  12.871  11.374   5.604 -0.0547  0.1410 -0.1463
 9035W        W25219  13.535  18.050  15.739  0.1763  0.0661  0.2752
 9036W        W25220   3.620  12.962  12.924  0.0689  0.1105  0.1470
 9037W        W25221  10.201   4.765  14.088 -0.2333 -0.0270  0.0241
 9038W        W25222   6.226   7.926  13.562  0.1491  0.1699  0.1105
 9039W        W25223  12.762   6.079  15.707  0.2786 -0.0635 -0.3242
 9040W        W25224  11.700   7.196  13.364 -0.0975 -0.1088 -0.0678
 9041W        W25225   3.459  17.284  13.532  0.0839 -0.2758  0.0910
 9042W        W25226   8.323   8.304   4.070 -0.1682  0.3524 -0.1793
 9043W        W25227   7.265   5.291   1.610  0.1590 -0.0170 -0.1201
 9044W        W25228  12.768  17.303   1.823 -0.0737 -0.0281 -0.0127
 9045W        W25229   7.484   6.717  13.266 -0.0796 -0.0801 -0.0610
 9046W        W25230  11.876  16.369   5.378  0.0178  0.2924  0.0320
 9047W        W25231  16.031   3.005   2.460  0.1238  0.0036 -0.1788
 9048W        W25232  17.929  13.972   1.846  0.1309  0.1480  0.0256
 9049W        W25233  11.316  12.604  14.584 -0.0653 -0.0333 -0.1168
 9050W        W25234  12.674  15.517   1.273 -0.2093  0.3051 -0.0386
 9051W        W25235  11.173   5.709  14.708  0.2450 -0.0728 -0.1316
 9052W        W25236  11.899   0.180  12.608  0.4606 -0.0551  0.2853
 9053W        W25237  17.723  18.008  16.319  0.0991  0.1587  0.0183
 9054W        W25238  17.261   9.787  12.767  0.2942 -0.1003 -0.1076
 9055W        W25239  11.734  12.532  15.191  0.2380 -0.0241 -0.2633
 9056W        W25240   4.011   4.478   5.493 -0.1934 -0.2222  0.1260
 9057W        W25241  17.308  15.910   3.589 -0.0470  0.2509  0.0779
 9058W        W25242  12.649   4.976  16.567 -0.3854 -0.1357  0.1233
 9059W        W25243  15.513   7.516   2.764 -0.0330 -0.2941  0.0019
 9060W        W25244   7.969  12.135  16.058  0.0921 -0.2240  0.1400
 9061W        W25245  10.392  13.723   5.048  0.1475 -0.2684 -0.0602
 9062W        W25246   6.209  12.864  14.308  0.1156 -0.5875  0.2256
 9063W        W25247  14.465   3.828   3.541  0.1459 -0.2222  0.1775
 9064W        W25248  15.797  12.690   4.134 -0.0129 -0.0658  0.0641
 9065W        W25249   2.228   6.089   0.909  0.1572 -0.2518 -0.0413
 9066W        W25250   7.377  10.207   0.288 -0.2132  0.1279 -0.1483
 9067W        W25251   6.685   2.108   5.760  0.1798  0.4374  0.1621
 9068W        W25252   5.614  11.583   0.932 -0.0086 -0.1144  0.1528
 9069W        W25253  17.218  11.613  12.362 -0.2580 -0.0191 -0.1118
 9070W        W25254   4.418   6.129   3.693 -0.3321 -0.1878 -0.1420
 9071W        W25255  11.172   8.844  15.250  0.3898 -0.0581 -0.0451
 9072W        W25256   5.876  15.737  12.597  0.3578 -0.0472  0.2463
 9073W        W25257  17.646  15.538  15.154  0.2688 -0.3060 -0.1391
 9074W        W25258   2.229   1.272   6.090  0.1209 -0.3062 -0.2287
 9075W        W25259   6.381  13.242  12.722  0.1223 -0.0298 -0.1155
 9076W        W25260   2.564   0.958  15.143 -0.1834 -0.1427 -0.0278
 9077W        W25261  16.434   6.033   1.862 -0.1074  0.0137  0.0627
 9078W        W25262  14.912   7.163  12.241  0.1079  0.0994  0.0388
 9079W        W25263  13.166   5.945  12.225  0.1634  0.0903  0.0221
 9080W        W25264  12.804   1.975  11.814  0.0750 -0.1885  0.1341
 9081W        W25265   4.023   7.921  16.550  0.1585  0.0280  0.2818
 9082W        W25266  17.062   7.044   0.338 -0.1541  0.2811  0.2064
 9083W        W25267   5.097   0.242  12.211  0.2958 -0.0426 -0.1602
 9084W        W25268  17.838  11.690   1.404 -0.2481  0.0564 -0.0281
 9085W        W25269   9.470  11.003   6.535 -0.0690  0.0205  0.0689
 9086W        W25270  14.453   5.926   4.399  0.0394 -0.1212  0.0953
 9087W        W25271   0.467   2.917  11.296  0.0969  0.4397 -0.6231
 9088W        W25272  14.060   7.118   0.239 -0.0859 -0.2966 -0.4421
 9089W        W25273   5.820  13.045   0.890  0.1816  0.4759 -0.3282
 9090W        W25274   5.017   6.166   3.314 -0.2411  0.1598 -0.3169
 9091W        W25275   1.071   3.780  15.427  0.3576 -0.2422  0.1026
 9092W        W25276   4.343   9.846   5.779 -0.1912 -0.0347 -0.0310
 9093W        W25277  16.126  17.902   1.399  0.0234 -0.0514 -0.1233
 9094W        W25278  17.856  14.013   0.088  0.1382 -0.0855  0.0482
 9095W        W25279  13.753  10.357  12.261  0.3379  0.0340  0.1841
 9096W        W25280  10.184   3.473   2.385 -0.3440  0.0644  0.2868
 9097W        W25281   8.974   2.585  14.934  0.2212  0.2982  0.1154
 9098W        W25282   2.956  17.208   0.246 -0.1240 -0.1538  0.2871
 9099W        W25283  17.361   0.077  15.131 -0.3097 -0.0646  0.1542
 9100W        W25284  10.436   4.524   1.248 -0.0642  0.0901 -0.0102
 9101W        W25285   2.167  13.615   4.271  0.1285  0.0753 -0.2570
 9102W        W25286   4.782  15.668  14.822 -0.1669  0.0293  0.1044
 9103W        W25287  16.181  15.959  11.547  0.2584  0.1507  0.0673
 9104W        W25288  16.221  12.448   0.318  0.1052 -0.0910  0.3477
 9105W        W25289  15.617   8.710  12.125  0.0884 -0.1800  0.2334
 9106W        W25290   8.136   3.941  12.116  0.1212 -0.1262  0.2449
 9107W        W25291  13.468   4.935   3.581  0.1638 -0.1106  0.4820
 9108W        W25292  16.231   6.984  15.176 -0.2749 -0.4372  0.2625
 9109W        W25293   9.227   4.382  16.137 -0.1399 -0.1699  0.1693
 9110W        W25294  11.060  10.703   3.810 -0.1602  0.0809  0.0007
 9111W        W25295  10.025   4.743   1.309  0.2723 -0.1906 -0.1219
 9112W        W25296  12.996   3.499   1.435  0.0065  0.2658  0.4763
 9113W        W25297   4.203   2.803  12.463 -0.0177 -0.0766  0.1616
 9114W        W25298  17.759   2.630   0.889  0.1934  0.1046 -0.0168
 9115W        W25299   8.502   7.103   5.685  0.0898  0.2616  0.1158
 9116W        W25300  17.930   6.556   1.548  0.1791  0.0232  0.2798
 9117W        W25301   6.012   6.340   4.444  0.3775  0.0498 -0.1551
 9118W        W25302  18.071  16.292  15.385  0.3068  0.1198  0.0227
 9119W        W25303   0.349   9.370   5.475 -0.0944 -0.0962 -0.1355
 9120W        W25304   1.243   4.446   2.649  0.1260  0.4116  0.1122
 9121W        W25305   8.196  12.619  14.094 -0.0780 -0.2212 -0.2241
 9122W        W25306   0.941  10.481   3.511  0.2198  0.1625  0.2354
 9123W        W25307   5.357  11.293  13.825  0.0480 -0.1017  0.1799
 9124W        W25308  15.981  18.023  13.587  0.0939 -0.0313 -0.1105
 9125W        W25309  17.518  10.281   5.628 -0.2080  0.0737 -0.3483
 9126W        W25310   3.637   8.528  14.032  0.0836 -0.1738 -0.1039
 9127W        W25311   2.139   5.247   4.782 -0.0369  0.0594 -0.0872
 9128W        W25312  13.686  17.049   2.860  0.2618  0.0013 -0.3187
 9129W        W25313  13.418   5.375   0.311  0.0110  0.2206  0.1208
 9130W        W25314  13.602   6.415   0.104 -0.1839  0.1026  0.0433
 9131W        W25315   5.300   7.935   0.934 -0.1899 -0.2664  0.3330
 9132W        W25316  14.342  16.361  12.908 -0.0654 -0.1190 -0.0620
 9133W        W25317  18.138   9.882   5.626 -0.1652 -0.1507  0.2866
 9134W        W25318   3.466  14.449  15.685 -0.1892  0.0581 -0.1257
 9135W        W25319   1.927  15.984  12.495 -0.1346  0.0728  0.0613
 9136W        W25320   2.029  17.761  11.562  0.1495 -0.1435 -0.3524
 9137W        W25321   0.890   4.189  11.801  0.0561  0.3628  0.2922
 9138W        W25322   7.661  15.898   5.359 -0.0297  0.1612 -0.1947
 9139W        W25323  16.550   3.394   2.241  0.2190 -0.0705  0.1095
 9140W        W25324  17.544  13.073   0.119 -0.0989  0.1155 -0.4504
 9141W        W25325   3.115   6.688  12.613 -0.2778 -0.0011 -0.0364
 9142W        W25326  10.975  14.397  12.191 -0.1429  0.1568 -0.2291
 9143W        W25327  10.061   9.276  16.248 -0.0187  0.0198 -0.1943
 9144W        W25328   5.916  11.604   4.413  0.0016 -0.2612  0.0825
 9145W        W25329  12.823  11.354   3.864  0.1221  0.2212  0.1204
 9146W        W25330   5.539  11.270   5.442  0.0302  0.1149 -0.2759
 9147W        W25331  10.404   9.183   5.294 -0.2073 -0.0687  0.3773
 9148W        W25332  16.586   9.442   3.141 -0.2206 -0.2111  0.1420
 9149W        W25333   2.423  13.181  16.400 -0.2613 -0.0930 -0.0456
 9150W        W25334  13.741  10.977   1.631 -0.1230 -0.0675  0.0579
 9151W        W25335  11.331   1.288   5.509  0.0900  0.0795 -0.0950
 9152W        W25336   8.508   9.929   5.145  0.1536  0.0157  0.0335
 9153W        W25337   2.264   1.707   3.808  0.0362  0.0943  0.1426
 9154W        W25338  16.331  11.079   2.062 -0.1146  0.0295  0.4372
 9155W        W25339   9.968   4.871   0.045 -0.2019 -0.1085 -0.1139
 9156W        W25340  12.489   3.263  12.390  0.1694 -0.0097 -0.1729
 9157W        W25341   9.733   9.464  15.045  0.0563  0.2494 -0.2117
 9158W        W25342   2.654  10.750   3.212 -0.4157 -0.0445  0.0390
 9159W        W25343   9.990  18.170   3.189  0.1769  0.1088 -0.0317
 9160W        W25344  12.526   7.350   3.168  0.1765 -0.1255 -0.2593
 9161W        W25345  13.545   2.041   4.015 -0.0061 -0.1778  0.1207
 9162W        W25346  17.449   2.196   1.439 -0.4557  0.1084 -0.1001
 9163W        W25347   1.158   1.640   0.202  0.0071 -0.2269 -0.0463
 9164W        W25348  16.389  11.748   1.407  0.0638  0.0606 -0.0915
 9165W        W25349  13.900   3.718   3.832 -0.3569 -0.0098 -0.0250
 9166W        W25350   2.101   0.348   4.221 -0.0131 -0.2298  0.1942
 9167W        W25351   5.183   2.464  14.022 -0.5545 -0.1019  0.3524
 9168W        W25352  13.973   1.749   4.470  0.1309  0.1106  0.0523
 9169W        W25353   7.609   8.204   4.772  0.1404  0.1232  0.2546
 9170W        W25354   6.877   9.055   3.801  0.0235  0.2092 -0.0118
 9171W        W25355   1.372  17.020  14.709  0.1259  0.1475  0.1173
 9172W        W25356   2.206   6.924   2.264 -0.2762 -0.3309  0.2103
 9173W        W25357  16.182  12.088   0.754  0.0100  0.0394 -0.1175
 9174W        W25358  16.014   0.742   3.763 -0.1840  0.1124 -0.2012
 9175W        W25359   6.603  17.632   1.204 -0.0442  0.2655 -0.0284
 9176W        W25360   4.766  12.336   3.090  0.0699 -0.0843 -0.1560
 9177W        W25361  10.787  17.274   1.383  0.0224 -0.1704 -0.0319
 9178W        W25362   4.754  13.326  15.673 -0.0482  0.2901 -0.1726
 9179W        W25363  11.670   1.325   1.881  0.0423  0.0171 -0.1756
 9180W        W25364   4.764   1.910   3.483 -0.0358 -0.4637 -0.1215
 9181W        W25365  10.884   9.671  12.195 -0.0437  0.2959  0.0626
 9182W        W25366   9.820  11.209  14.345 -0.1936  0.1329 -0.1003
 9183W        W25367   5.981  15.238   1.348 -0.0331  0.0160  0.1830
 9184W        W25368   1.100  12.228  10.812 -0.1642  0.2795  0.2472
 9185W        W25369  14.714  12.284   2.133  0.0961  0.2490  0.1847
 9186W        W25370   7.605   6.948  12.355  0.0417  0.0233 -0.0048
 9187W        W25371   1.478  11.300   4.310  0.2330 -0.1056 -0.1940
 9188W        W25372   0.041  15.954   4.135  0.3226 -0.1471  0.3101
 9189W        W25373  17.246  14.351  15.338 -0.4022 -0.3060  0.0860
 9190W        W25374  18.142  13.554   4.030 -0.0653 -0.0874 -0.0986
 9191W        W25375  16.073   1.700   3.725  0.2649 -0.1257  0.1040
 9192W        W25376   9.223   7.770   5.138 -0.1730  0.2140 -0.0508
 9193W        W25377   3.213  14.016  15.380 -0.0472 -0.0709  0.0883
 9194W        W25378   4.055   4.123   4.444  0.2297 -0.3807 -0.2509
 9195W        W25379   3.801   7.411   4.976  0.0728 -0.1703  0.1721
 9196W        W25380   8.199   6.302  14.293 -0.1065 -0.1574 -0.3573
 9197W        W25381   1.158   8.428  12.959  0.3312 -0.0523  0.2651
 9198W        W25382  14.737   8.240  12.757  0.0497  0.0334  0.1899
 9199W        W25383   0.779   0.357   0.494  0.0729  0.1329  0.0129
 9200W        W25384  10.834  15.421  12.207 -0.0334 -0.1764  0.3747
 9201W        W25385  14.130   7.493  11.020  0.0120 -0.3018  0.2644
 9202W        W25386   3.460  13.792  14.301 -0.2756 -0.0656 -0.3316
 9203W        W25387  13.806   3.798   1.027  0.2075  0.0162 -0.0440
 9204W        W25388  16.277   0.229  15.599  0.0026 -0.2270 -0.4078
 9205W        W25389   4.686  11.971   0.794  0.2219  0.1668 -0.0435
 9206W        W25390   3.356   3.641   5.137 -0.0465 -0.1424 -0.2389
 9207W        W25391   7.917   6.451   3.374  0.2018  0.0226  0.3062
 9208W        W25392  11.446   8.864  15.812  0.4615  0.0272 -0.2097
 9209W        W25393   4.686   4.802  15.643  0.1946 -0.2320  0.0377
 9210W        W25394  14.524   7.118   2.006 -0.2778  0.0506  0.3472
 9211W        W25395   0.899   8.975  11.830  0.3711  0.2390  0.3753
 9212W        W25396   6.835  13.940  12.630 -0.1327  0.1256  0.1223
 9213W        W25397  12.744   6.652   2.596  0.0309  0.1670 -0.1847
 9214W        W25398  12.732   5.628  12.234 -0.1078 -0.0655 -0.1543
 9215W        W25399  15.260   2.677  16.348 -0.2658  0.3245  0.3525
 9216W        W25400  14.860  11.145   2.565  0.0684  0.0831 -0.3513
 9217W        W25401  16.362  11.228  14.437 -0.0489  0.0494 -0.0960
 9218W        W25402   3.293   8.322  11.551  0.0096  0.0993 -0.1383
 9219W        W25403   3.574   6.985  14.285  0.1106 -0.0032  0.0632
 9220W        W25404  10.060   2.634   0.906  0.0451 -0.1907  0.2022
 9221W        W25405  16.050   6.555  16.083 -0.0829  0.2562  0.1254
 9222W        W25406  11.627   6.765  13.143  0.2920  0.1476 -0.2053
 9223W        W25407   6.314   4.572  11.348 -0.0838  0.3334 -0.0946
 9224W        W25408  13.388  13.566  12.134  0.3403  0.5300 -0.0101
 9225W        W25409   8.634   2.326   3.045  0.1212 -0.0911  0.0235
 9226W        W25410  18.078   0.624  15.481 -0.0608 -0.1748 -0.0420
 9227W        W25411   4.798   3.579   4.831  0.0326 -0.2282 -0.0079
 9228W        W25412   5.281  10.632  13.538 -0.1950 -0.0361  0.2398
 9229W        W25413   9.313   2.138  13.465  0.1365  0.1047 -0.0528
 9230W        W25414  10.978  12.271  14.480 -0.3164  0.2336  0.2631
 9231W        W25415  10.381  18.134   6.283 -0.1473  0.3072 -0.1209
 9232W        W25416   2.717   5.156   2.517 -0.1915 -0.0148 -0.0454
 9233W        W25417  12.170   1.580   6.001  0.4541 -0.1500  0.0808
 9234W        W25418   0.003  13.588  13.558  0.1950 -0.2201  0.2138
 9235W        W25419  15.093   4.344  11.779 -0.0055 -0.0050  0.0201
 9236W        W25420   7.696   2.350   5.500  0.0784 -0.2095 -0.2340
 9237W        W25421  10.791  16.536  16.461  0.0515  0.0661  0.0364
 9238W        W25422  11.087   0.215   2.212 -0.0112 -0.0804 -0.0923
 9239W        W25423   9.072   0.285   5.158 -0.2549 -0.2656  0.1033
 9240W        W25424   8.998   7.311   3.077  0.1304 -0.2202  0.0188
 9241W        W25425   5.429   1.338  14.851 -0.1791  0.0949  0.0732
 9242W        W25426  17.145   0.735  13.141 -0.0338 -0.1136  0.0340
 9243W        W25427  17.995  11.215   3.523 -0.3000 -0.1895 -0.0982
 9244W        W25428  13.043   5.329  14.891 -0.1579  0.0558 -0.1707
 9245W        W25429   0.924   9.204   4.289 -0.0650  0.2896 -0.1468
 9246W        W25430  13.209  10.893   2.912 -0.2478 -0.2539 -0.1066
 9247W        W25431  17.520  13.304   1.391 -0.2703  0.0569  0.2687
 9248W        W25432   4.905  16.884  14.585  0.1017 -0.0235  0.3599
 9249W        W25433  12.584  14.886   4.319  0.1646  0.0682  0.2580
 9250W        W25434  16.967  12.663  11.803 -0.1270 -0.0192 -0.3225
 9251W        W25435  13.668  15.401  15.101  0.0133 -0.0432  0.1230
 9252W        W25436   6.268  14.859   5.628  0.2829 -0.0315  0.1172
 9253W        W25437  14.088   3.010  11.973  0.2979  0.0156 -0.0235
 9254W        W25438   3.480   5.826  14.134  0.0360 -0.0422 -0.1942
 9255W        W25439   4.350  11.283   3.392 -0.1771 -0.3127  0.0370
 9256W        W25440   1.823  13.117   2.873  0.2157  0.0418  0.2523
 9257W        W25441   0.579  10.361  16.278 -0.1349 -0.1212 -0.1035
 9258W        W25442   7.809  11.693  16.086  0.1162 -0.1066  0.0134
 9259W        W25443  11.494  17.045  12.378  0.0160  0.4077 -0.1634
 9260W        W25444   1.568   0.139   4.227 -0.0961 -0.2402 -0.0153
 9261W        W25445   6.814   5.154   1.642 -0.1502  0.1527  0.2526
 9262W        W25446  15.580   2.738  12.708  0.0301 -0.1188 -0.0460
 9263W        W25447   2.928  15.109  13.461 -0.3040 -0.1353  0.0667
 9264W        W25448   2.393  15.369   4.758 -0.1434 -0.1137  0.5081
 9265W        W25449   9.550   7.397  14.730 -0.1436 -0.0764  0.1036
 9266W        W25450   0.649   5.020   4.581  0.1141  0.3164 -0.3979
 9267W        W25451   1.651   7.022  10.946  0.1598  0.3825  0.0492
 9268W        W25452   4.749   3.914   0.778  0.0206 -0.2460  0.2454
 9269W        W25453   9.871   1.522  13.228  0.1122  0.1934  0.1658
 9270W        W25454  12.866   3.774  14.780  0.1899 -0.3052  0.3838
 9271W        W25455   8.709   5.686   2.255 -0.1279  0.0502  0.2072
 9272W        W25456  12.394  12.709   0.834  0.1290  0.0318 -0.1850
 9273W        W25457  15.963  10.119  16.492 -0.2408 -0.0766  0.0972
 9274W        W25458  15.072  12.648   3.526 -0.2812  0.1366  0.1924
 9275W        W25459   4.891   8.972  12.882 -0.1874  0.1009  0.1195
 9276W        W25460  16.626   3.506  16.622 -0.0170 -0.2651 -0.2474
 9277W        W25461   2.390  14.817  14.298 -0.0995  0.0975 -0.0892
 9278W        W25462   1.609   9.422  13.300  0.2388  0.1162  0.0509
 9279W        W25463  12.623  12.444   3.701  0.0025 -0.1138 -0.0317
 9280W        W25464   5.747   9.758   2.991 -0.2083  0.0718  0.0959
 9281W        W25465  11.447   6.597   0.599 -0.1544  0.1439 -0.0951
 9282W        W25466  16.081   7.699  15.919  0.0444 -0.2773  0.3257
 9283W        W25467  12.097   7.873   2.355  0.3149  0.0390 -0.1979
 9284W        W25468   2.161  17.214   1.198 -0.3749 -0.0848 -0.1563
 9285W        W25469  13.580  17.905   2.688 -0.1402 -0.3524  0.2302
 9286W        W25470  15.648   9.793   4.403  0.1870 -0.1581  0.0139
 9287W        W25471   4.227  12.608   0.214 -0.0887 -0.2395  0.1586
 9288W        W25472   5.196  16.124   5.286 -0.0642  0.0205  0.1191
 9289W        W25473   2.719   0.021   1.340 -0.0870 -0.0394 -0.3333
 9290W        W25474   2.420  12.240  16.520 -0.1432  0.1649  0.1161
 9291W        W25475  12.753  14.216   0.732  0.3926  0.1998 -0.2726
 9292W        W25476   9.072   4.373   5.583 -0.0323  0.1381 -0.0179
 9293W        W25477  12.925   8.256  11.552  0.1097  0.0352  0.1691
 9294W        W25478   6.534   2.699   0.938 -0.1366 -0.1649 -0.3182
 9295W        W25479  16.133  16.102   5.564 -0.0561  0.0621 -0.1307
 9296W        W25480   4.599   8.572   4.495 -0.1014 -0.2454  0.2683
 9297W        W25481   8.840  16.051   3.148 -0.0366 -0.2772 -0.1562
 9298W        W25482   7.943   8.460  15.986 -0.1496  0.2693  0.1928
 9299W        W25483  10.089   6.245  15.289  0.3021 -0.2757  0.0757
 9300W        W25484   2.366   8.101  12.901 -0.2841  0.1974  0.4324
 9301W        W25485  14.113   5.715  15.048  0.2647 -0.0462 -0.1469
 9302W        W25486  14.425   7.840   0.579 -0.1943  0.0569  0.1044
 9303W        W25487   5.276  15.643   5.024  0.0288 -0.0577 -0.0683
 9304W        W25488  10.769   7.658  14.032  0.2872  0.1594 -0.1577
 9305W        W25489  12.907  10.569   1.921  0.4273 -0.0640  0.3131
 9306W        W25490   1.289   0.781  15.125 -0.1770  0.3233 -0.0321
 9307W        W25491  13.001   7.411   4.001  0.2585  0.1036 -0.0930
 9308W        W25492   9.274  15.812   3.339 -0.0655 -0.2773  0.2253
 9309W        W25493  10.450   4.108   1.766  0.0503 -0.1300 -0.2242
 9310W        W25494  10.460  17.330   3.159 -0.1924 -0.3573 -0.0796
 9311W        W25495  18.075   6.544   5.442 -0.4684  0.2669  0.0026
 9312W        W25496   6.953  16.305   6.713  0.1782 -0.0596  0.0191
 9313W        W25497   0.293   7.666  15.231  0.0700  0.1049  0.0758
 9314W        W25498   2.146   8.694   3.633  0.3253  0.3066 -0.0761
 9315W        W25499  10.050  12.948   6.073 -0.0973 -0.1851  0.1138
 9316W        W25500   3.847  10.832   5.190  0.0215  0.0257 -0.0925
 9317W        W25501  17.556   7.615   3.500  0.2179 -0.3567  0.1880
 9318W        W25502   7.839  17.604   0.298  0.0410  0.0428 -0.2049
 9319W        W25503   2.119  15.195  14.181  0.1989  0.1552 -0.1891
 9320W        W25504   0.609  12.285  12.427  0.0749  0.2130 -0.2430
 9321W        W25505   1.591   7.689  13.983 -0.0407 -0.1364  0.1367
 9322W        W25506  12.448  11.072   4.045  0.1001 -0.0081  0.2736
 9323W        W25507   8.708   4.349  13.533 -0.0971 -0.0004 -0.0054
 9324W        W25508   7.665  17.691  15.891 -0.1824  0.1119  0.2681
 9325W        W25509   1.735  12.971   4.644 -0.1976 -0.2164 -0.1535
 9326W        W25510   1.921  14.417   4.873 -0.1013  0.0350 -0.3703
 9327W        W25511   8.295  15.611   1.985  0.0614  0.2445 -0.0063
 9328W        W25512   9.367   6.776  13.556  0.2247  0.3803 -0.1831
 9329W        W25513  13.594   5.414  15.776 -0.1665 -0.1516 -0.0418
 9330W        W25514   6.281  10.976   1.196 -0.0634 -0.4673 -0.0690
 9331W        W25515  17.826  16.368  13.898  0.0320  0.1961  0.0435
 9332W        W25516   5.974  11.759   5.843 -0.0007 -0.2649  0.2136
 9333W        W25517   2.509   2.714  12.534  0.2620  0.0222 -0.3195
 9334W        W25518   2.823  16.346  13.770 -0.2202  0.1267 -0.1280
 9335W        W25519   4.993  10.755  11.879 -0.2592  0.3414  0.0452
 9336W        W25520  15.607   6.363   1.356  0.0677  0.3430 -0.0782
 9337W        W25521  13.177  10.227   0.670 -0.4276  0.1524 -0.2452
 9338W        W25522   2.993   3.817   0.252 -0.2121  0.1213  0.1871
 9339W        W25523  13.230   6.715   2.493 -0.3274 -0.0782 -0.1220
 9340W        W25524  14.970   2.409   0.473  0.0163  0.0946 -0.1948
 9341W        W25525   9.660  14.462   3.707  0.2954 -0.1969  0.2672
 9342W        W25526   1.686   2.411  14.421  0.1247  0.1303 -0.0276
 9343W        W25527  15.362   4.030  16.589  0.0502 -0.1082 -0.0712
 9344W        W25528   3.495  12.939   3.360 -0.0259  0.0780  0.0998
 9345W        W25529  12.040  11.783  11.808  0.0394 -0.1496  0.1771
 9346W        W25530   5.342   7.801  16.250  0.1369  0.0779  0.0143
 9347W        W25531   1.280   4.522  10.720 -0.1009 -0.0946  0.2863
 9348W        W25532  11.159   9.163   3.677 -0.2846 -0.1681  0.1166
 9349W        W25533   5.127  15.153   2.424  0.1946 -0.1281 -0.2924
 9350W        W25534   4.064   5.477  16.502  0.3022  0.1521 -0.0240
 9351W        W25535  14.793   0.179  11.558  0.2121  0.0090 -0.3385
 9352W        W25536  12.968  17.458   6.147  0.1573  0.0596 -0.0578
 9353W        W25537   2.270  11.594   5.615 -0.0522  0.2606  0.1262
 9354W        W25538   9.873  11.251   2.522 -0.0919  0.1437 -0.1174
 9355W        W25539  10.116   8.021   0.696 -0.0126 -0.5452  0.0950
 9356W        W25540   1.058  12.762   0.478  0.1628  0.0023 -0.0805
 9357W        W25541  17.540  15.775   1.068 -0.2800 -0.1648  0.0007
 9358W        W25542   9.664  12.076  13.007 -0.1573 -0.1269  0.2763
 9359W        W25543  17.343   4.361  12.051 -0.2285  0.1513  0.0795
 9360W        W25544   2.108   3.033  14.810  0.0125  0.0057 -0.0586
 9361W        W25545   9.602  16.544   1.744  0.5129  0.1532 -0.2543
 9362W        W25546   2.594   0.037  12.228 -0.2987  0.0360 -0.1127
 9363W        W25547  17.782   3.025   1.321 -0.2701  0.1671 -0.3766
 9364W        W25548  16.144  12.398  16.031 -0.1338  0.0952 -0.1662
 9365W        W25549  14.014  12.649   0.638 -0.0035  0.0916 -0.0488
 9366W        W25550   2.150  16.968  14.095  0.0429  0.1968 -0.4879
 9367W        W25551  16.053   6.017  11.351 -0.0484  0.1866  0.5182
 9368W        W25552   8.363  12.701   0.067  0.0052 -0.1400  0.0231
 9369W        W25553  16.765   4.870  13.741 -0.3861  0.0093 -0.1216
 9370W        W25554  11.365   1.753   5.802 -0.3459  0.0880  0.2317
 9371W        W25555  17.881   6.896  13.011 -0.0321 -0.1531  0.2477
 9372W        W25556  14.391   9.568   0.470 -0.4643  0.0269  0.2439
 9373W        W25557  15.397   6.981   2.836 -0.0720 -0.0549  0.2007
 9374W        W25558  16.401  16.684  14.924  0.0432  0.0399 -0.0464
 9375W        W25559   7.781   7.980  14.286  0.1466 -0.0204 -0.2510
 9376W        W25560  14.100   3.862  14.981  0.1097  0.1767 -0.1961
 9377W        W25561   5.902  17.558   5.062 -0.2533  0.1425 -0.0887
 9378W        W25562  17.307  11.871   2.883  0.1380 -0.1464 -0.0948
 9379W        W25563  12.376  16.737  16.630  0.1563 -0.3200  0.0819
 9380W        W25564   0.388  14.387   3.488 -0.1235  0.0658  0.1462
 9381W        W25565   7.955  13.916  12.635 -0.1077  0.0670 -0.1787
 9382W        W25566  16.102  11.057   3.376  0.0451  0.0917  0.0255
 9383W        W25567   2.937   0.613  14.899  0.3405  0.1625 -0.3221
 9384W        W25568   6.404  15.362   3.224  0.2000 -0.0673 -0.0169
 9385W        W25569   6.792  11.753   1.529  0.1798 -0.1055 -0.0960
 9386W        W25570   8.852   3.227   1.096  0.0325 -0.1119 -0.1077
 9387W        W25571  14.414   8.836  11.237  0.0260 -0.2361  0.1967
 9388W        W25572   1.646  15.167  15.329 -0.1867  0.1706 -0.0414
 9389W        W25573  16.431   6.161  13.847  0.3375  0.0754 -0.1651
 9390W        W25574   2.917   1.808  15.206 -0.2011 -0.0904  0.0240
 9391W        W25575   4.107   7.805   6.080  0.0379  0.1744  0.0575
 9392W        W25576  16.255   8.954  13.241  0.2379  0.2228 -0.3517
 9393W        W25577  15.514  18.064   3.753 -0.0645 -0.1422 -0.1934
 9394W        W25578  18.082  12.227  15.883 -0.1469 -0.2242 -0.3483
 9395W        W25579   3.643  16.452  14.817  0.0274  0.1185  0.0159
 9396W        W25580  14.513   7.145   4.809  0.1344 -0.0482  0.0342
 9397W        W25581  12.253   0.787   4.421 -0.0556 -0.1344  0.1432
 9398W        W25582  12.127  18.108  12.991 -0.0644 -0.2739 -0.0173
 9399W        W25583  11.075   7.771   3.730  0.0601 -0.2305 -0.1045
 9400W        W25584  13.762   7.648   4.509  0.2701 -0.0114  0.2501
 9401W        W25585   3.021  14.099   5.695 -0.0751 -0.0071 -0.2620
 9402W        W25586  14.648  12.736  14.259  0.0537  0.0419  0.1331
 9403W        W25587  14.215  15.150   3.413  0.0575 -0.0506 -0.0080
 9404W        W25588   4.308   3.487   3.825 -0.0054  0.0839 -0.0894
 9405W        W25589  17.890  12.583   4.854  0.1608  0.1665 -0.4005
 9406W        W25590   5.119   3.775  12.007 -0.2161 -0.0727 -0.2233
 9407W        W25591   2.850   9.875  11.357  0.2084 -0.0414  0.2056
 9408W        W25592   7.135  16.120   3.772 -0.3179 -0.2434  0.1326
 9409W        W25593  10.939   3.347  11.432 -0.0667 -0.3523 -0.0507
 9410W        W25594  14.707  15.662   0.756  0.3946 -0.0573  0.3280
 9411W        W25595  15.124   4.518  12.898  0.0965 -0.2382  0.2860
 9412W        W25596   0.217   0.861  15.121 -0.2213 -0.0166 -0.2644
 9413W        W25597   9.567  10.207  16.217  0.3327 -0.1833  0.1657
 9414W        W25598   8.536   1.469  12.115  0.2463  0.2132 -0.0338
 9415W        W25599   5.556   5.662  13.983 -0.2489 -0.2155  0.1299
 9416W        W25600  15.484   9.705  15.631 -0.0317 -0.1584 -0.0993
 9417W        W25601  12.314   7.663  11.366  0.1012  0.0133  0.2483
 9418W        W25602   3.416   6.702   1.599 -0.0452 -0.2747 -0.2400
 9419W        W25603  15.178  12.732  11.215 -0.1902  0.2769 -0.1548
 9420W        W25604  12.799  16.708   5.639  0.0281 -0.2163  0.0641
 9421W        W25605   3.848   8.964  16.332 -0.3958  0.0016  0.1328
 9422W        W25606   1.597  16.678  13.064 -0.1778 -0.0003  0.0056
 9423W        W25607  14.642   6.618  13.634  0.4862  0.1815 -0.1084
 9424W        W25608  12.976   1.515  16.602  0.5524 -0.0019  0.0360
 9425W        W25609  13.528   4.897  15.817  0.1118  0.0416 -0.4036
 9426W        W25610  12.699   5.520  11.680  0.1981  0.0558 -0.0164
 9427W        W25611  11.159   2.806   6.431 -0.3950  0.0894 -0.0149
 9428W        W25612  15.528  10.315  11.639  0.0830 -0.3681 -0.0157
 9429W        W25613  10.113  18.010  13.288 -0.2509  0.2179  0.1227
 9430W        W25614  12.725  15.214   2.462 -0.2447  0.3461 -0.0735
 9431W        W25615  10.916  13.104  14.476  0.1064 -0.2434  0.0885
 9432W        W25616   1.611  14.735  12.577 -0.0743  0.0831  0.0979
 9433W        W25617   2.542  17.829   3.597 -0.0537 -0.1315  0.0609
 9434W        W25618   1.676  17.203  14.191 -0.0865 -0.1017  0.0889
 9435W        W25619  14.590  15.398  16.156  0.0158  0.0889  0.3441
 9436W        W25620   8.966   5.773   0.313  0.0505  0.0866  0.0742
 9437W        W25621  12.433   1.755  12.282 -0.0372  0.1224  0.0355
 9438W        W25622   1.769  13.342   1.708 -0.2136  0.1709  0.2351
 9439W        W25623   6.711   7.530  13.351  0.1623 -0.1214 -0.0268
 9440W        W25624   9.723   3.748   2.066 -0.0687  0.2803 -0.3443
 9441W        W25625   6.558   0.858  13.165  0.1368  0.4260  0.1279
 9442W        W25626   5.961   8.187  14.805 -0.0420 -0.1809  0.2446
 9443W        W25627   6.884  16.546   5.152 -0.3004 -0.3329 -0.0115
 9444W        W25628   7.407  16.708   1.123 -0.2114  0.2056 -0.0393
 9445W        W25629   9.328   8.798   1.579 -0.1231  0.1672  0.0397
 9446W        W25630   6.366  14.848  14.281 -0.0414 -0.0970  0.0493
 9447W        W25631   8.354  10.885  14.103 -0.1594  0.1445  0.3059
 9448W        W25632  12.076  14.565   2.454  0.3379  0.2023 -0.0556
 9449W        W25633  15.757  15.518  14.686 -0.2880  0.0747 -0.0131
 9450W        W25634   0.937   6.595  12.187  0.1814 -0.1043 -0.0642
 9451W        W25635   0.468   4.128  14.830 -0.0737  0.0572 -0.1149
 9452W        W25636  10.183   4.874  16.223  0.1188  0.0269 -0.1578
 9453W        W25637   0.795   0.115  15.377 -0.0573  0.0297 -0.1374
 9454W        W25638   8.756   4.615  14.563  0.0282 -0.2390 -0.0947
 9455W        W25639   5.633  13.499  13.763 -0.1084 -0.0168  0.1489
 9456W        W25640   3.846  13.301  16.455  0.1214 -0.1107 -0.3155
 9457W        W25641   7.113  14.353   5.800 -0.0621 -0.0118 -0.2153
 9458W        W25642  10.665  12.487  12.879  0.1134 -0.1892 -0.2339
 9459W        W25643  17.431  14.823  15.497  0.2896  0.0076 -0.0589
 9460W        W25644  15.410   4.881   1.482 -0.0739  0.0748  0.1187
 9461W        W25645   0.484   8.014   1.771 -0.5008 -0.1401 -0.0155
 9462W        W25646   7.542   2.882   3.623  0.1561  0.0178 -0.0820
 9463W        W25647   3.674  14.654   3.786  0.0277 -0.3620 -0.2564
 9464W        W25648   9.250  13.109   3.993  0.0051  0.0185  0.0368
 9465W        W25649  10.667   9.742   4.823 -0.1573  0.0867 -0.1720
 9466W        W25650  11.708  12.434   5.809  0.0262 -0.1302  0.1313
 9467W        W25651  11.493  11.740  12.040  0.0438  0.0947 -0.0418
 9468W        W25652   9.880   8.102   6.587  0.3095 -0.1421 -0.0429
 9469W        W25653   2.263   3.947   4.113  0.0531  0.0018 -0.1398
 9470W        W25654   6.828   5.334  11.529  0.0376  0.1867  0.2209
 9471W        W25655  16.489  14.436   4.351 -0.2379  0.1033  0.2537
 9472W        W25656   5.508   8.819   3.937 -0.0125  0.1234 -0.0792
 9473W        W25657   7.848  10.495  15.002  0.2394  0.0113 -0.1339
 9474W        W25658   0.655   0.884  14.724 -0.0615  0.0788  0.0171
 9475W        W25659   9.632   6.407  13.262 -0.0397 -0.1422  0.0249
 9476W        W25660   0.967   1.098  15.546  0.1226 -0.0447 -0.0928
 9477W        W25661   0.685  10.798   5.220  0.0345 -0.0984  0.2582
 9478W        W25662   9.326   1.613  16.094  0.2293  0.1241  0.1558
 9479W        W25663   7.675   5.620   5.105  0.2917  0.0371 -0.1499
 9480W        W25664  16.019  15.717   3.838 -0.2235  0.1563  0.1182
 9481W        W25665   7.105  11.560  11.865 -0.0402 -0.1519 -0.1441
 9482W        W25666  11.129   7.604  12.247  0.0020 -0.1201  0.1673
 9483W        W25667  11.347   1.585  11.997  0.0620  0.2015  0.2896
 9484W        W25668   9.534   2.674   2.657 -0.2077  0.1771 -0.1837
 9485W        W25669  11.835  16.940  15.127  0.3352 -0.0928 -0.0550
 9486W        W25670   8.251   4.946  13.026  0.1015  0.1974 -0.0345
 9487W        W25671   1.949   6.350   3.741  0.1828 -0.0441 -0.2687
 9488W        W25672   1.425  17.514  16.079 -0.2116  0.1371 -0.2055
 9489W        W25673  13.586   3.555   3.394 -0.1395 -0.0704  0.1077
 9490W        W25674  12.958  17.684   3.486  0.2301  0.1004  0.1945
 9491W        W25675   7.999  17.297   5.773  0.1409 -0.1544 -0.2007
 9492W        W25676  10.911   2.129  14.946 -0.1998  0.0450 -0.1308
 9493W        W25677   4.334   5.969   1.563 -0.0895  0.0698  0.0856
 9494W        W25678  15.355  13.088   0.324  0.4892 -0.4440 -0.2588
 9495W        W25679   3.231   6.313   4.542  0.0585 -0.3178 -0.2130
 9496W        W25680  17.875  14.974   5.091  0.0430 -0.1852 -0.2379
 9497W        W25681   5.936  17.483  14.282  0.2949 -0.0791 -0.2095
 9498W        W25682   1.561   8.557  14.391 -0.1546  0.1010  0.1795
 9499W        W25683  15.398  12.423  14.170 -0.2494  0.0683  0.0068
 9500W        W25684   4.357  12.473  14.581 -0.0064 -0.0932 -0.0048
 9501W        W25685   8.432   2.860   3.720  0.2526 -0.2317 -0.2323
 9502W        W25686   9.506   4.475  13.461 -0.1824  0.1956  0.1044
 9503W        W25687  17.525  16.579   3.145 -0.2416  0.2742  0.4257
 9504W        W25688   8.446   6.245   4.889  0.1362 -0.1437 -0.0383
 9505W        W25689   5.444   4.104   3.948 -0.1498 -0.0857  0.1249
 9506W        W25690  10.592  16.257  14.026 -0.1593  0.1798 -0.0247
 9507W        W25691  17.667  16.148  11.691  0.2551 -0.1269 -0.0822
 9508W        W25692   0.502   7.540   2.060  0.0726  0.1440 -0.1185
 9509W        W25693  11.347   4.726   3.975  0.1337  0.1021 -0.1129
 9510W        W25694   4.136   0.940  13.633  0.1749 -0.0910 -0.0571
 9511W        W25695   7.216   3.891  15.411 -0.1831  0.2451  0.0590
 9512W        W25696  12.875  12.925   3.844  0.1876  0.0661 -0.2386
 9513W        W25697   6.199   6.177  13.772 -0.0467 -0.1081  0.1789
 9514W        W25698  12.565  11.723  13.918 -0.0221  0.0986  0.2796
 9515W        W25699   1.913  13.126   2.151  0.1287 -0.1077  0.0849
 9516W        W25700   4.080  17.198   0.654  0.3051 -0.0246  0.1142
 9517W        W25701   4.060   7.944  14.806  0.0458 -0.1356 -0.2004
 9518W        W25702  12.282   0.598   1.445  0.0736 -0.1695 -0.2330
 9519W        W25703   9.350   2.818   1.704 -0.3046 -0.1689  0.0704
 9520W        W25704   3.783   4.647  13.716 -0.1349  0.1850  0.3542
 9521W        W25705  11.927   6.554   0.878  0.0833 -0.0094 -0.1750
 9522W        W25706  17.524  13.140   4.117 -0.2374 -0.0493  0.0387
 9523W        W25707   7.311  16.265   3.321 -0.1087 -0.0639 -0.4973
 9524W        W25708   8.518  11.036   1.523  0.2035 -0.0267 -0.1146
 9525W        W25709  11.583   2.640   0.574 -0.0480 -0.0973 -0.1092
 9526W        W25710   1.713   4.201  12.799  0.0613 -0.2699  0.1026
 9527W        W25711   7.383   9.762   2.478 -0.3262 -0.2360 -0.0107
 9528W        W25712   5.720   9.178  14.480  0.2617  0.1585  0.1348
 9529W        W25713  11.396  14.177  13.362  0.2382  0.3022 -0.1575
 9530W        W25714   6.278   7.233  16.617  0.0154 -0.0190 -0.1430
 9531W        W25715  15.022  13.126   0.711 -0.2202  0.2530  0.1652
 9532W        W25716  17.361   8.087  11.133  0.1184 -0.2156  0.0455
 9533W        W25717   2.919  13.039   3.126 -0.1566 -0.1594 -0.0739
 9534W        W25718   9.986  16.067   2.754  0.1119  0.0780  0.1888
 9535W        W25719   1.649   2.351   4.008  0.1881 -0.0957  0.0880
 9536W        W25720  17.282   8.080   2.653  0.2886  0.0919 -0.0418
 9537W        W25721  16.144  13.022   4.142 -0.2957 -0.0668  0.1990
 9538W        W25722  16.677   9.648  13.154  0.1247  0.0205  0.2204
 9539W        W25723   5.433  15.327  14.035 -0.0494  0.0329 -0.0380
 9540W        W25724  10.201  16.584   5.324 -0.0893 -0.0592  0.0033
 9541W        W25725  15.873   1.482   3.199 -0.0867  0.2043 -0.2187
 9542W        W25726  14.730   5.629   4.711 -0.3621  0.2402 -0.0871
 9543W        W25727   3.545   1.037   1.310  0.4406 -0.0923  0.1129
 9544W        W25728  10.630  12.194   0.333  0.0935 -0.4991  0.2044
 9545W        W25729  17.017   0.648   3.419  0.0236 -0.1541 -0.1539
 9546W        W25730  14.326   4.884  13.135  0.1714 -0.0232 -0.0410
 9547W        W25731   9.812   0.869  12.912  0.0256 -0.0302 -0.2044
 9548W        W25732  17.792   7.629  13.709  0.1476 -0.1313 -0.0906
 9549W        W25733   0.567  10.954  11.589  0.1337  0.1827 -0.2399
 9550W        W25734   8.685   3.126   4.412  0.2313 -0.0636  0.1585
 9551W        W25735   2.236   4.505   2.022 -0.0904  0.1656 -0.1428
 9552W        W25736   5.473  14.646  12.499 -0.1809  0.0386 -0.2590
 9553W        W25737   5.991  12.032   2.788 -0.0157 -0.2804  0.0894
 9554W        W25738   6.870   7.682   4.729 -0.0394 -0.0103  0.0741
 9555W        W25739  12.445   0.048   5.922  0.0502  0.2285  0.3134
 9556W        W25740  14.361  16.292  13.395 -0.2924  0.1678 -0.0841
 9557W        W25741   0.466   9.997  15.999  0.0725 -0.0382 -0.1044
 9558W        W25742   5.290   0.266   5.056  0.1600 -0.0119  0.1078
 9559W        W25743   7.711   5.636  16.186 -0.1653  0.1786 -0.0973
 9560W        W25744  16.140   8.524  14.197 -0.3923  0.1226 -0.1165
 9561W        W25745  15.701   7.818  16.664  0.3369  0.0874 -0.0713
 9562W        W25746   0.061  14.371   1.736  0.2704 -0.2535  0.3210
 9563W        W25747   3.184   3.755   3.904  0.1196 -0.3051  0.1659
 9564W        W25748   5.127   2.299   1.554  0.1134  0.0428  0.1629
 9565W        W25749  17.335   9.072  15.042 -0.0397 -0.0349  0.0452
 9566W        W25750  16.029   6.677   3.684  0.1054 -0.2417  0.0080
 9567W        W25751   7.500  15.795  14.068  0.3119 -0.0374  0.0780
 9568W        W25752  14.393   7.052   2.951  0.4466  0.2911 -0.3468
 9569W        W25753   9.494  12.016   1.010 -0.1495 -0.4026  0.0868
 9570W        W25754  17.262   8.511  12.192  0.0119  0.0098  0.4066
 9571W        W25755   3.400   2.382  10.724 -0.1815 -0.1008  0.0719
 9572W        W25756   3.834  10.319  14.527  0.1172  0.4198  0.0749
 9573W        W25757   8.481  15.230   0.887 -0.0758  0.0130  0.1480
 9574W        W25758   7.337   8.209   4.092 -0.2682 -0.2393 -0.0191
 9575W        W25759   7.270  17.412   6.563 -0.3199  0.2911 -0.1311
 9576W        W25760   1.476   7.217  13.934 -0.1061  0.0325  0.0348
 9577W        W25761  12.774   6.363  14.719  0.0308  0.1914  0.1923
 9578W        W25762  15.399  15.980  15.600 -0.0144  0.3828 -0.2656
 9579W        W25763   1.456   0.507  13.082 -0.1313  0.0099  0.4895
 9580W        W25764  12.243   3.813   4.195  0.7418 -0.2685  0.1590
 9581W        W25765  11.067   3.540   3.550  0.0993 -0.1760  0.2449
 9582W        W25766   1.516  17.446  16.560  0.4069 -0.0329 -0.0251
 9583W        W25767  17.366   2.730  11.573 -0.0226 -0.0155  0.1650
 9584W        W25768  16.946  14.856  15.503  0.0858 -0.1957 -0.1331
 9585W        W25769  16.830   4.724   0.665 -0.3251 -0.0874  0.2276
 9586W        W25770   2.279   7.685   1.073 -0.0674  0.0740 -0.1178
 9587W        W25771   0.139  10.740   0.439  0.2298  0.2621  0.3746
 9588W        W25772   8.782   3.753  13.649  0.2969 -0.1584  0.1012
 9589W        W25773   7.896  17.993   5.289  0.2280  0.3590 -0.3678
 9590W        W25774  15.747  13.666  12.109 -0.3236 -0.1423  0.2217
 9591W        W25775   6.096  15.672   2.952 -0.0766 -0.0243  0.1233
 9592W        W25776   5.815  11.442   4.992 -0.0499  0.1002  0.2016
 9593W        W25777  11.964  17.368   5.611  0.2721  0.0490  0.2848
 9594W        W25778   2.927   1.555   1.580 -0.6597 -0.1654 -0.1926
 9595W        W25779   4.098   6.371  11.607 -0.1964  0.0362  0.2182
 9596W        W25780   4.239  15.464   6.535  0.2260 -0.2419 -0.0644
 9597W        W25781   0.260   5.997   2.425 -0.0152 -0.2205  0.2239
 9598W        W25782  11.989   6.644   0.325  0.0970 -0.1119 -0.0795
 9599W        W25783  10.740   9.311   2.324  0.0911 -0.1643  0.1219
 9600W        W25784   0.281  13.646  11.633 -0.2217 -0.0608  0.0987
 9601W        W25785   1.176   6.053   4.289  0.0925  0.0143  0.1535
 9602W        W25786  10.021   5.839   3.941  0.1071 -0.0810 -0.2841
 9603W        W25787   1.146   8.271  15.559  0.0216 -0.1645 -0.3550
 9604W        W25788  11.695   4.061  14.463  0.1484  0.0233  0.3428
 9605W        W25789   0.876  10.965  14.609  0.0489 -0.3294  0.2047
 9606W        W25790   2.418  17.914  16.265 -0.1974  0.0156 -0.1216
 9607W        W25791   1.287  14.600   4.966  0.0370  0.1261  0.0008
 9608W        W25792  15.046   7.456   1.954  0.0014  0.3284  0.0825
 9609W        W25793   3.970  15.890  13.344 -0.2571  0.1735 -0.0571
 9610W        W25794   1.021  16.454  11.248 -0.0211  0.1784 -0.1824
 9611W        W25795  12.813   0.049   2.220  0.0839 -0.2369 -0.0465
 9612W        W25796   9.351   6.354  15.907  0.3241 -0.0433  0.2140
 9613W        W25797  11.633  17.257   1.824  0.1359 -0.0641 -0.1240
 9614W        W25798  13.071   6.603   3.013  0.1133  0.0973 -0.1644
 9615W        W25799   5.793   7.396  13.409 -0.0095 -0.2474  0.1545
 9616W        W25800   6.140  11.285   1.652  0.0052  0.2898  0.1653
 9617W        W25801   5.002   4.964   2.904 -0.0067 -0.1267  0.0690
 9618W        W25802  16.367   6.207  14.773 -0.0871  0.4623 -0.1810
 9619W        W25803  17.400   7.149   4.088  0.2406 -0.1353  0.0534
 9620W        W25804   7.248  13.984   3.364  0.1292 -0.0173 -0.0749
 9621W        W25805   4.328   6.716   5.269 -0.1270  0.0323  0.0439
 9622W        W25806   7.613   2.198   4.983  0.1771 -0.1790 -0.1603
 9623W        W25807  16.459   6.072   3.126 -0.2710 -0.0307  0.2799
 9624W        W25808  14.040  12.246   3.786 -0.0396  0.0555 -0.1537
 9625W        W25809   3.312   9.964   4.932  0.3643 -0.2886  0.0320
 9626W        W25810   6.948   9.464  14.194 -0.3945 -0.3129 -0.0591
 9627W        W25811   1.965   5.900  11.349 -0.3260  0.2486  0.0129
 9628W        W25812   7.500   4.928   6.330  0.0990  0.1043 -0.3132
 9629W        W25813  17.950   0.393  10.537  0.1288  0.2456  0.6053
 9630W        W25814  13.996   9.650   5.438 -0.0733  0.0741  0.0550
 9631W        W25815  14.234   0.892   1.490 -0.1839  0.0193 -0.5613
 9632W        W25816   5.412  15.756   0.322  0.2579  0.0758 -0.1497
 9633W        W25817  10.887   5.464  13.823 -0.0064 -0.3293 -0.0247
 9634W        W25818   6.859  14.027  14.037 -0.0354  0.2117 -0.2700
 9635W        W25819   7.175  13.006  11.797 -0.0352  0.2991 -0.2062
 9636W        W25820  11.434  12.027   0.967  0.2954  0.1444 -0.1767
 9637W        W25821   9.350   2.972   3.313  0.0537  0.0387 -0.0581
 9638W        W25822  13.177   7.036   1.196  0.1325  0.2028 -0.0700
 9639W        W25823   5.734  12.071   4.288  0.3061 -0.2577 -0.0428
 9640W        W25824   9.901  16.596   3.988 -0.2120  0.0452 -0.0196
 9641W        W25825  16.214   8.432  13.184  0.2936 -0.0290  0.0254
 9642W        W25826   1.614   7.408   3.329 -0.0815 -0.2149 -0.2691
 9643W        W25827  13.604  17.074   3.854 -0.0433 -0.3074  0.0646
 9644W        W25828   6.745  16.102  13.070 -0.2158  0.2273 -0.0089
 9645W        W25829   5.912   0.081  12.603 -0.1102 -0.0427 -0.1241
 9646W        W25830   4.409   8.650  15.420 -0.0832 -0.1297 -0.1783
 9647W        W25831   7.631  16.088   0.165  0.0625  0.0456  0.0620
 9648W        W25832   1.112  16.688   4.838 -0.0524 -0.0432  0.0733
 9649W        W25833   9.312   7.627   0.915 -0.2212  0.2762  0.4953
 9650W        W25834  12.506   7.012   1.797  0.3257  0.1827 -0.0232
 9651W        W25835   8.631   0.610  16.107 -0.0231 -0.2814  0.0050
 9652W        W25836   3.839   4.749   2.957  0.2903 -0.0660 -0.1903
 9653W        W25837  17.462  12.041  14.135 -0.0520  0.0419 -0.1555
 9654W        W25838   3.405  16.238   5.874 -0.0834 -0.2930  0.1798
 9655W        W25839   9.339  13.008   3.459 -0.1517 -0.0658 -0.1890
 9656W        W25840  10.776  11.831  13.712  0.0278 -0.1574  0.2741
 9657W        W25841  13.101  11.049  12.611  0.1216  0.0848  0.0178
 9658W        W25842   9.337  14.869   4.178 -0.0950 -0.1723  0.0374
 9659W        W25843   4.040   5.252   4.380  0.1039 -0.3048  0.0419
 9660W        W25844   8.293   9.516  13.766  0.1525  0.1849  0.0144
 9661W        W25845   3.900   5.595  11.175 -0.0779 -0.2762  0.0513
 9662W        W25846  17.986  13.127  16.449 -0.0123 -0.0272 -0.2170
 9663W        W25847  10.075  14.688  13.204 -0.0909  0.0663  0.1435
 9664W        W25848   4.137   9.784   0.353 -0.0447  0.1185  0.0226
 9665W        W25849   1.474   0.733  11.332 -0.0096 -0.2136 -0.1598
 9666W        W25850   9.862   5.431  13.452 -0.1032 -0.1612 -0.1049
 9667W        W25851   7.384   1.884   2.734 -0.1870 -0.3178 -0.0470
 9668W        W25852   9.171   2.009   2.274  0.3782 -0.0170 -0.1021
 9669W        W25853   7.238   4.986  12.009 -0.1104  0.3144  0.6043
 9670W        W25854  15.802   8.797  13.452 -0.1858  0.4242 -0.1635
 9671W        W25855   3.787   2.836  15.789  0.2174  0.0907  0.0539
 9672W        W25856  15.649   6.112  11.608 -0.0443 -0.0521 -0.0073
 9673W        W25857   0.997  11.940  15.269 -0.1393 -0.3574  0.1304
 9674W        W25858   9.721   3.421  14.024 -0.0929 -0.3164  0.3042
 9675W        W25859  17.916   8.825  11.444 -0.3835  0.2053  0.1488
 9676W        W25860   2.101  14.706   4.501  0.0311  0.1597  0.2268
 9677W        W25861  15.957  16.169   4.513  0.0323  0.0437  0.2918
 9678W        W25862   9.104  15.995   0.619  0.3381 -0.4357 -0.2139
 9679W        W25863   7.415   7.378  12.370 -0.1949  0.0365 -0.2095
 9680W        W25864  12.550   8.132   2.603 -0.3010 -0.0091  0.0805
 9681W        W25865  17.441   4.322  16.107  0.1421  0.2393 -0.2910
 9682W        W25866  14.984   6.740   1.183  0.2610  0.0835 -0.0086
 9683W        W25867   4.808   2.019  15.076  0.0147 -0.2789  0.1586
 9684W        W25868  12.852   4.420   2.948  0.0941 -0.1451 -0.0958
 9685W        W25869   4.266   5.351   0.311  0.1589 -0.1066  0.0357
 9686W        W25870  15.655  15.443   4.681 -0.0503 -0.1784 -0.1811
 9687W        W25871  12.899   4.542   0.105 -0.2215 -0.1247 -0.1309
 9688W        W25872   9.886   1.798  12.252  0.4408 -0.3921 -0.0786
 9689W        W25873   7.655   0.412   1.987  0.0218 -0.1629 -0.1738
 9690W        W25874   8.135   9.282   1.899 -0.2013  0.1486 -0.0668
 9691W        W25875   4.851  13.831   0.307 -0.1459 -0.2221  0.1659
 9692W        W25876   0.143  11.352   4.157  0.2021 -0.1841  0.0229
 9693W        W25877  15.915  12.150   5.893  0.0473 -0.1692 -0.0028
 9694W        W25878  11.785   1.519  16.015 -0.0696 -0.1260 -0.0596
 9695W        W25879   6.487  14.368   3.009  0.1128  0.1045  0.1817
 9696W        W25880   6.726  13.478  13.478  0.0019  0.0832  0.0553
 9697W        W25881  16.167  17.390   0.156 -0.2544 -0.0025  0.0158
 9698W        W25882  15.107   1.506   0.508  0.1249 -0.0625 -0.2322
 9699W        W25883   1.139   8.830   1.611  0.1537  0.3344  0.0466
 9700W        W25884   6.278   6.065  12.021  0.2308 -0.1153  0.0707
 9701W        W25885  14.026   1.213  12.515  0.3741 -0.0708  0.2685
 9702W        W25886  12.913   7.061   2.976 -0.2517 -0.1043 -0.2042
 9703W        W25887   4.324   8.226   2.081 -0.3128 -0.1994 -0.4413
 9704W        W25888   8.679   1.396   5.670 -0.0898 -0.2157 -0.0449
 9705W        W25889  16.605   9.460  14.107 -0.1413  0.3075  0.0337
 9706W        W25890   0.051   6.564   9.803  0.0847  0.1516  0.0097
 9707W        W25891   6.205  10.704  15.433  0.1943  0.3498  0.0151
 9708W        W25892   9.397   4.624   2.188 -0.2955  0.2227 -0.1174
 9709W        W25893  12.722   7.472   2.712  0.0018 -0.0346 -0.1365
 9710W        W25894  11.876  16.797   2.071 -0.3066 -0.0707 -0.6316
 9711W        W25895   7.069  15.601   3.784 -0.0086 -0.1064 -0.3872
 9712W        W25896   8.819   2.026   3.611  0.0947 -0.0219  0.0188
 9713W        W25897   9.922  17.440   1.533  0.0464 -0.0918  0.0219
 9714W        W25898  15.378   8.807   0.033 -0.3377 -0.0919  0.4926
 9715W        W25899  11.242  15.282  15.814  0.4653 -0.3392  0.1134
 9716W        W25900  14.828  16.964  15.222 -0.3682 -0.1645  0.0439
 9717W        W25901   1.518  17.948   4.748  0.1632  0.0087 -0.1474
 9718W        W25902   8.119  11.108   0.538  0.0298 -0.1744 -0.2056
 9719W        W25903   4.961  12.504   4.139  0.0386  0.1552 -0.0349
 9720W        W25904  17.084   2.083  15.692  0.2422 -0.0965 -0.1361
 9721W        W25905   4.686   1.048  15.220 -0.2448 -0.3028  0.2088
 9722W        W25906  17.686   1.239  12.248 -0.0890  0.2821  0.0683
 9723W        W25907  12.369  18.139  15.024 -0.2048 -0.1120  0.1412
 9724W        W25908   8.618   3.364   3.910  0.0565  0.0411 -0.0087
 9725W        W25909   1.370   8.479  16.408 -0.0713 -0.0742  0.1682
 9726W        W25910  17.037   8.097   4.140 -0.0698 -0.1848  0.0426
 9727W        W25911   2.194  16.473  11.764  0.3695  0.3226  0.0942
 9728W        W25912   4.021  11.084   2.938 -0.1200  0.0794 -0.1311
 9729W        W25913  17.594   5.452   5.207 -0.3673 -0.3343  0.0032
 9730W        W25914   7.571  14.816   0.798  0.1506  0.3966 -0.1372
 9731W        W25915   0.789  18.022  12.868  0.2223 -0.0082  0.1810
 9732W        W25916   3.482   0.973   5.493 -0.0771  0.1194  0.3983
 9733W        W25917   2.934  13.040   2.647  0.3831 -0.0844 -0.3091
 9734W        W25918   5.744  15.505   4.614  0.0616  0.2786  0.3344
 9735W        W25919  16.437  12.268  12.985  0.2456 -0.2821 -0.2517
 9736W        W25920   5.207   7.662  15.293 -0.2570  0.0333 -0.3140
 9737W        W25921   5.259  17.947  15.625 -0.2284  0.0345  0.0449
 9738W        W25922  13.512   9.593   5.568  0.0600 -0.1638 -0.1796
 9739W        W25923  12.554   6.351   0.981 -0.0102  0.0053 -0.0438
 9740W        W25924  13.162  15.704   1.126  0.0272  0.0521  0.2067
 9741W        W25925   4.944  17.284   6.351  0.1580 -0.2880 -0.4041
 9742W        W25926   0.845  12.959  15.405 -0.1501  0.0440  0.1137
 9743W        W25927  14.066  15.203  14.840  0.2001 -0.3394  0.0232
 9744W        W25928  14.723   0.219   5.463  0.0521 -0.0235  0.1989
 9745W        W25929  16.829  11.576  16.303 -0.1278 -0.1076  0.0434
 9746W        W25930   8.923   3.616  14.501  0.1948 -0.3115  0.1019
 9747W        W25931  16.442   6.018  15.318 -0.2402  0.2794  0.3926
 9748W        W25932   6.250   6.034   1.615  0.1058 -0.0999  0.1593
 9749W        W25933  16.140  17.155   4.631  0.0236 -0.1110 -0.0520
 9750W        W25934  15.532   0.552  15.022 -0.0825 -0.1021 -0.3278
 9751W        W25935   3.297  17.865  12.070  0.2255 -0.3832 -0.1326
 9752W        W25936   4.874   2.844  11.668  0.0825  0.3141  0.1990
 9753W        W25937  13.418   1.266   1.941 -0.1895 -0.0782 -0.1364
 9754W        W25938   0.344  16.551  14.542 -0.1694 -0.2387 -0.0514
 9755W        W25939  11.338   9.776  14.174 -0.0642  0.0626 -0.0786
 9756W        W25940   3.136   1.714   0.907  0.0783  0.2922  0.3521
 9757W        W25941  11.283  14.574  13.637 -0.0277  0.5248  0.1997
 9758W        W25942  14.479  16.428   5.573  0.1511 -0.2210 -0.1284
 9759W        W25943  13.752  12.822  11.267  0.1073  0.0709  0.0473
 9760W        W25944   2.594  15.037  16.258 -0.3405  0.1763 -0.0447
 9761W        W25945   7.016  11.059  15.897 -0.0391  0.1081 -0.0935
 9762W        W25946  15.120   8.521   0.586 -0.1263  0.2193 -0.1751
 9763W        W25947   7.058   3.813   0.990 -0.0939 -0.0966 -0.4112
 9764W        W25948   8.811  12.437   6.082 -0.2817 -0.0179 -0.0957
 9765W        W25949  14.956  13.100  13.517 -0.1231  0.3060  0.0680
 9766W        W25950   1.812   3.900  14.909 -0.1374  0.1208 -0.0002
 9767W        W25951  17.499   7.856   4.033 -0.2385  0.2314 -0.2761
 9768W        W25952   4.260   4.445   3.108  0.1523 -0.0769 -0.1234
 9769W        W25953  15.922  13.771   4.484  0.1497  0.0582  0.2700
 9770W        W25954  10.410  13.664   5.633 -0.1754  0.2698 -0.0665
 9771W        W25955  15.573   6.747  13.248  0.1318  0.2312  0.0730
 9772W        W25956   8.989  12.332   4.439 -0.3498 -0.2483  0.2643
 9773W        W25957   7.134   1.757   2.332  0.0275 -0.2932  0.4810
 9774W        W25958   0.573   5.123   2.367  0.0694  0.1327  0.2762
 9775W        W25959  17.613   1.031   0.338  0.0460  0.3461  0.2603
 9776W        W25960  14.641  10.119  12.877  0.2418  0.2568  0.0424
 9777W        W25961  12.040   1.518   1.640  0.3144  0.1200  0.0640
 9778W        W25962  14.733   5.196  11.380  0.0938  0.1081 -0.2224
 9779W        W25963  18.007   4.726  14.422  0.2263  0.2222 -0.3313
 9780W        W25964  12.800  11.084  11.744  0.1442 -0.1753 -0.0151
 9781W        W25965   4.552  14.062   1.010 -0.1656  0.3890 -0.0208
 9782W        W25966  14.585   5.594  12.001 -0.0679  0.3525 -0.3237
 9783W        W25967   1.073  10.084   2.134  0.1762 -0.0323 -0.0492
 9784W        W25968  13.100   0.361  14.407  0.0911  0.1674 -0.1370
 9785W        W25969  15.969   3.141  12.929 -0.1168 -0.0173 -0.0422
 9786W        W25970   0.556  13.150  11.678 -0.3822  0.0787 -0.0414
 9787W        W25971  14.744  15.013   0.684  0.3201 -0.1234 -0.1623
 9788W        W25972   3.650  14.877   2.683 -0.2336 -0.2202  0.0334
 9789W        W25973  10.803   9.523   3.152 -0.3892 -0.1240 -0.0185
 9790W        W25974  13.548   6.371   2.271 -0.1333 -0.1785 -0.1804
 9791W        W25975  17.087  12.806  13.051 -0.4467  0.1062 -0.0317
 9792W        W25976   8.172   8.355  14.745  0.3235 -0.0774 -0.2016
 9793W        W25977  12.192  17.612   0.590 -0.1666  0.1838 -0.2427
 9794W        W25978   7.148   6.031  15.448  0.1807 -0.1235  0.0812
 9795W        W25979  10.578   4.670   2.854 -0.0598  0.1187 -0.0507
 9796W        W25980   4.440  17.629   1.556  0.2605 -0.0921  0.1134
 9797W        W25981   9.106   2.841   4.524  0.0940  0.1716  0.0682
 9798W        W25982   4.428  15.224   1.751 -0.0439  0.0435  0.1531
 9799W        W25983  15.543   0.923  16.659  0.3790 -0.1444 -0.0096
 9800W        W25984   3.988  11.604   3.518 -0.2772 -0.0571 -0.2486
 9801W        W25985   3.543  17.122   5.687  0.2319 -0.0777 -0.3037
 9802W        W25986   4.055   7.281   6.013  0.0631 -0.0434  0.2873
 9803W        W25987   1.365   1.686  13.427 -0.0841 -0.1146 -0.0642
 9804W        W25988  16.896  16.916   4.201  0.0674  0.0407 -0.1356
 9805W        W25989   6.496  13.395   5.267 -0.0758 -0.2772  0.0230
 9806W        W25990   3.288   9.827  12.294 -0.1230  0.1895 -0.1062
 9807W        W25991   5.171   0.676   3.550  0.0699 -0.2035  0.1774
 9808W        W25992  10.475   8.110   1.253 -0.2920  0.3296 -0.2815
 9809W        W25993   9.719  13.336  15.781 -0.2557 -0.1414  0.0523
 9810W        W25994  11.345   6.059  14.428  0.0290  0.2349 -0.1343
 9811W        W25995   8.387   1.062   4.442  0.3873  0.1567 -0.0065
 9812W        W25996   4.099  15.237  15.312 -0.1332  0.1172  0.1278
 9813W        W25997  14.457   4.599   4.762  0.0310  0.2622 -0.1601
 9814W        W25998   7.301  14.367  15.396  0.0315  0.0717 -0.4514
 9815W        W25999  13.549  10.675  13.687 -0.3492  0.1685  0.0530
 9816W        W26000   3.400  11.878  14.352 -0.0039 -0.1413  0.3272
 9817W        W26001   6.464   4.347   2.374 -0.2489  0.0606  0.2225
 9818W        W26002  10.020  13.071   3.368 -0.2853  0.2555 -0.0211
 9819W        W26003   4.789   8.177  12.669 -0.0218  0.1427  0.4989
 9820W        W26004  12.388  17.510   2.921 -0.3388  0.1499  0.0278
 9821W        W26005   5.732  10.106  14.173  0.2434 -0.0344 -0.1194
 9822W        W26006   1.255   5.160  15.696 -0.0617 -0.0164  0.1992
 9823W        W26007   0.836  10.013   3.028  0.1028 -0.0657 -0.0287
 9824W        W26008   1.491   4.755  12.042  0.0747 -0.3593  0.0538
 9825W        W26009  16.364  11.225  12.381 -0.1622  0.0991 -0.2253
 9826W        W26010  16.710  10.832   1.003 -0.1018 -0.1142 -0.0077
 9827W        W26011  14.903   0.849  13.751  0.2207  0.3632 -0.1537
 9828W        W26012  13.847   1.223   1.458  0.0074 -0.0210  0.3391
 9829W        W26013   8.500   2.287   3.926 -0.0564  0.0487  0.2927
 9830W        W26014   4.411   3.033   3.065  0.0270  0.1955  0.0039
 9831W        W26015  16.669   2.210   3.749  0.0373 -0.1093 -0.1153
 9832W        W26016  14.618  16.995   3.538  0.0375  0.2236 -0.0297
 9833W        W26017  15.364  11.275   0.317  0.1864 -0.0175  0.3282
 9834W        W26018  14.639   3.332   1.434 -0.0755  0.0619  0.3637
 9835W        W26019  13.426  13.882  14.560 -0.0356 -0.1871  0.1454
 9836W        W26020   3.995  12.152  14.293 -0.2873  0.0031  0.1102
 9837W        W26021   2.490   1.449   2.948  0.3781  0.2666  0.1578
 9838W        W26022  14.202  10.090  15.809 -0.0007 -0.0840  0.0492
 9839W        W26023  11.036   3.725   4.743 -0.2351  0.2174  0.2897
 9840W        W26024  14.597   0.663   0.337  0.0993 -0.1423 -0.2934
 9841W        W26025   1.419   8.011   2.591  0.0839 -0.1961 -0.0766
 9842W        W26026   0.008   9.807   4.221  0.1967 -0.0628 -0.0177
 9843W        W26027   8.994  14.740   0.249  0.0323  0.0308  0.0947
 9844W        W26028   3.277   3.508   2.558  0.2265 -0.0375 -0.0090
 9845W        W26029  15.178  15.373   0.666 -0.2180 -0.0245 -0.1682
 9846W        W26030  12.161   8.792   2.195 -0.0107  0.2239  0.2039
 9847W        W26031   8.463   0.418   3.695 -0.2678  0.0628 -0.2257
 9848W        W26032   3.176   3.834   1.690 -0.0136 -0.1737  0.1849
 9849W        W26033   2.839  10.044   1.474 -0.0131 -0.1380  0.1000
 9850W        W26034  14.916   9.407   6.181  0.0160 -0.0277  0.0712
 9851W        W26035  16.298  10.623  13.168  0.0918  0.0482 -0.1093
 9852W        W26036   6.467   8.116   4.802 -0.1518  0.3019  0.1071
 9853W        W26037  16.857   2.928  15.452 -0.2886  0.2576 -0.0968
 9854W        W26038  14.419   7.143  11.802  0.0886  0.2456  0.1311
 9855W        W26039   6.948  16.825  12.415  0.1541  0.3697  0.0325
 9856W        W26040  13.282  13.211   1.899 -0.4873  0.0587 -0.1578
 9857W        W26041  12.578  15.745   5.371  0.1321  0.0684  0.2595
 9858W        W26042   2.264  13.289   1.181  0.0682 -0.0033 -0.1718
 9859W        W26043   3.621  15.707   4.796  0.0186 -0.0658  0.1182
 9860W        W26044  15.403   5.484  13.988  0.0807 -0.0373 -0.0811
 9861W        W26045   1.031  16.578   2.297  0.4030 -0.1711 -0.1302
 9862W        W26046  14.393  17.150  16.311  0.0398  0.0523  0.0633
 9863W        W26047   0.605  10.578   4.322  0.1851  0.2017 -0.0013
 9864W        W26048   8.184  16.230   1.891 -0.0011  0.0367 -0.0024
 9865W        W26049  13.795  11.452  14.907 -0.2940  0.1985  0.0515
 9866W        W26050   2.249   1.368  13.744  0.0699  0.2628  0.2103
 9867W        W26051   5.527  12.125   2.713 -0.4989 -0.2036  0.0801
 9868W        W26052   3.654   9.037   1.208 -0.3420 -0.1470  0.0734
 9869W        W26053   0.566   5.991  12.343  0.2184  0.1512  0.0196
 9870W        W26054   3.825   1.087  16.460  0.1438  0.2286  0.2326
 9871W        W26055   8.657  13.387   4.993 -0.0974 -0.0576 -0.0533
 9872W        W26056  10.488  13.866  16.517 -0.1565  0.2932 -0.0765
 9873W        W26057   3.487  10.061   3.996  0.1660 -0.3014 -0.1825
 9874W        W26058   4.216  11.427   2.513 -0.0809 -0.2041  0.3300
 9875W        W26059   7.586   0.636   3.905 -0.4825 -0.1287 -0.1228
 9876W        W26060   7.339  18.024   1.788 -0.4563 -0.1385 -0.0614
 9877W        W26061   9.028  13.705   4.847 -0.2942 -0.3580  0.1318
 9878W        W26062   4.389   0.460  14.561 -0.2374 -0.2125  0.0954
 9879W        W26063  12.065   1.535   3.318  0.4492 -0.1477  0.2529
 9880W        W26064  16.822  13.454   2.524 -0.0237 -0.0677 -0.0818
 9881W        W26065   5.641  12.605  11.637  0.3405  0.0967 -0.1649
 9882W        W26066  15.722  13.870   1.846  0.1544 -0.0626  0.2611
 9883W        W26067  18.016   0.655  11.260  0.2492  0.3094 -0.1393
 9884W        W26068  13.542  14.371   4.506  0.1176 -0.0671 -0.1901
 9885W        W26069  11.924  16.647  12.768 -0.1056 -0.1434  0.1204
 9886W        W26070   7.741   0.878  16.459 -0.0111  0.0721 -0.1426
 9887W        W26071  11.654   0.688  12.658 -0.2459 -0.1810 -0.2698
 9888W        W26072   8.229  14.276   3.220  0.0497  0.1672 -0.2438
 9889W        W26073  12.074   7.591  16.554  0.0840 -0.2313 -0.1048
 9890W        W26074  14.287   5.440   4.463 -0.0027 -0.1251 -0.0043
 9891W        W26075   4.892   7.140  16.083 -0.0402 -0.2345  0.1723
 9892W        W26076  10.750   1.273  12.457  0.0671 -0.0449  0.0337
 9893W        W26077   6.814   1.137  11.559 -0.1765  0.1135 -0.3581
 9894W        W26078  10.238   0.458   2.438  0.0110 -0.0575 -0.0278
 9895W        W26079  14.808   1.250   0.956  0.0020  0.0002 -0.1144
 9896W        W26080  16.816  14.682   3.991 -0.4755 -0.2211  0.2950
 9897W        W26081  17.632  10.041   0.355  0.1856 -0.0976 -0.3336
 9898W        W26082  12.725  16.790   1.675  0.0773  0.3381 -0.0018
 9899W        W26083   0.888   2.363   4.016 -0.0140 -0.0814  0.0399
 9900W        W26084   9.002   9.400  12.673  0.1391 -0.1370  0.0430
 9901W        W26085   3.372   2.873   0.994  0.2714  0.0381  0.2384
 9902W        W26086   9.822   7.455  14.276 -0.0490 -0.0628 -0.1158
 9903W        W26087  15.219   5.889  15.410 -0.0052  0.1920 -0.2511
 9904W        W26088   7.971  15.575  14.447  0.0151  0.1164 -0.3516
 9905W        W26089  12.846  16.463   0.746 -0.1218 -0.0366 -0.3083
 9906W        W26090  17.093   1.949   3.636 -0.1844  0.0765 -0.0434
 9907W        W26091   6.801  14.519  13.685 -0.0532 -0.1013 -0.1255
 9908W        W26092   5.064  17.526  13.865  0.0066 -0.0375 -0.0052
 9909W        W26093   7.244   0.776  15.673  0.5499 -0.0129  0.0791
 9910W        W26094   3.797  11.038   4.684  0.1316  0.1967  0.0924
 9911W        W26095   1.422   5.018  14.636 -0.2597 -0.3413  0.3096
 9912W        W26096   2.489   5.926  13.184 -0.0323  0.2442  0.0638
 9913W        W26097   5.851  12.437  13.716  0.1563  0.0051  0.3761
 9914W        W26098   7.944   5.579  14.939  0.1675  0.2436 -0.0533
 9915W        W26099  12.182   2.281  14.686 -0.0672 -0.4994  0.1784
 9916W        W26100  11.322   8.448   1.474 -0.0001 -0.2280 -0.2296
 9917W        W26101   3.361   4.501  11.446  0.0272 -0.1942 -0.2371
 9918W        W26102  15.146  17.971  11.440  0.0260 -0.2133  0.1135
 9919W        W26103  11.493   3.531  13.674  0.1612  0.1142  0.3490
 9920W        W26104  14.775   1.311  13.999  0.3008 -0.2119 -0.0904
 9921W        W26105   8.381   7.026   1.423  0.1750  0.0556  0.1699
 9922W        W26106   0.584  16.247  16.022  0.2107 -0.0172  0.1662
 9923W        W26107   9.938  12.294  13.413  0.1072  0.1498  0.1204
 9924W        W26108  14.375   1.462  14.290 -0.1982  0.0955 -0.2288
 9925W        W26109  12.805   2.067   2.948 -0.4463 -0.1470  0.0170
 9926W        W26110   7.217  11.207   3.155 -0.0657  0.3189  0.1255
 9927W        W26111  16.111  16.200  13.082  0.2235  0.0038  0.0599
 9928W        W26112   7.100   7.931  15.665  0.2476 -0.0497 -0.0092
 9929W        W26113  16.311   3.146  14.516 -0.0099 -0.1320  0.1386
 9930W        W26114  13.990  11.409   3.564 -0.0145  0.0852 -0.0548
 9931W        W26115  18.155  15.914   0.715 -0.0324  0.1094 -0.1350
 9932W        W26116   3.158  13.170  15.353 -0.0663  0.1669  0.1061
 9933W        W26117   0.603  16.732  12.931 -0.0056  0.2232 -0.3039
 9934W        W26118   3.483   6.971   2.673 -0.5297 -0.2248 -0.1651
 9935W        W26119   5.437   1.537   4.568  0.2392  0.0234  0.0839
 9936W        W26120   4.040   5.615  14.009  0.3208 -0.0611 -0.1492
 9937W        W26121   6.935  17.907   1.467  0.0066  0.0357  0.0452
 9938W        W26122  13.314   0.469   3.714 -0.1073  0.0410 -0.0611
 9939W        W26123  17.086  17.424   0.998  0.0605 -0.2733 -0.0173
 9940W        W26124  10.055   6.149   2.709  0.1762  0.0068  0.0109
 9941W        W26125   8.079  14.173   1.114 -0.0594  0.2162  0.0315
 9942W        W26126  16.778   4.605  12.066  0.1752  0.1802  0.1932
 9943W        W26127   1.232   1.327  15.148  0.0730 -0.2067 -0.1228
 9944W        W26128  11.386  15.469  12.682  0.0169 -0.3568  0.0156
 9945W        W26129  12.009  13.319  15.050  0.2986  0.2137 -0.1780
 9946W        W26130  14.401   4.641  13.535 -0.1541  0.0558 -0.0054
 9947W        W26131   3.468   2.522  14.024 -0.1722  0.1365  0.0700
 9948W        W26132   5.763  10.192   6.818 -0.3801  0.0130  0.0174
 9949W        W26133  16.451  15.627   1.190 -0.0127  0.0567 -0.0844
 9950W        W26134   6.187   5.691  13.955  0.0980 -0.1441  0.3716
 9951W        W26135  13.677   8.201   1.939 -0.3382 -0.0282  0.0586
 9952W        W26136   6.461  17.300  15.854 -0.2098  0.0163  0.1776
 9953W        W26137  16.932  15.856   2.083 -0.0977 -0.1397 -0.1051
 9954W        W26138  17.266   6.418  14.850 -0.0426 -0.0598 -0.0468
 9955W        W26139  15.443   4.393   2.159 -0.0439 -0.0368 -0.1808
 9956W        W26140   5.533   7.675  12.593  0.1822  0.2087  0.1697
 9957W        W26141   8.677   2.095  12.870  0.0643  0.0865  0.3313
 9958W        W26142   9.095  14.021   2.504 -0.1097 -0.0513  0.3313
 9959W        W26143   3.311  13.415   1.336  0.2265 -0.1442 -0.1514
 9960W        W26144  15.280   7.563   0.031 -0.0787  0.3342  0.2161
 9961W        W26145  11.170   8.209  13.691 -0.3370 -0.0797  0.3398
 9962W        W26146   8.772  10.826   6.060 -0.3319  0.2511 -0.1265
 9963W        W26147   8.930  15.557   4.259  0.0844 -0.2874 -0.2769
 9964W        W26148   8.803  12.985  16.645  0.1414  0.0807 -0.0757
 9965W        W26149   1.401  13.776  12.282 -0.0630  0.3829 -0.3895
 9966W        W26150   2.093   0.322  13.838 -0.2478 -0.0774  0.0959
 9967W        W26151   2.479  13.783  13.347 -0.2080 -0.3829  0.2310
 9968W        W26152  17.969   9.359   4.060 -0.0094 -0.3360 -0.1877
 9969W        W26153  10.157   6.939   2.376  0.2040  0.1923 -0.3501
 9970W        W26154   0.466   7.540  13.208 -0.1829 -0.2252  0.2995
 9971W        W26155   2.146  14.228   3.761 -0.0140 -0.2189 -0.1258
 9972W        W26156  12.579   4.959   1.713  0.2789  0.0405 -0.0716
 9973W        W26157  12.313  14.525   2.962 -0.2044 -0.1714  0.2576
 9974W        W26158  16.851  11.980   5.288  0.2676 -0.2914  0.1258
 9975W        W26159  16.232  16.206  14.041  0.1514  0.1603  0.2254
 9976W        W26160   2.947   1.222   5.552 -0.3928  0.1013 -0.0729
 9977W        W26161  14.074   5.294  16.476  0.0259 -0.0290  0.0731
 9978W        W26162  16.616  17.374   4.300  0.4168 -0.2066  0.0596
 9979W        W26163  14.857   9.837  12.545 -0.2098  0.0477 -0.1444
 9980W        W26164  11.425  12.093   5.118  0.1443 -0.2789  0.0155
 9981W        W26165   0.306   0.195  13.366 -0.0070 -0.0510 -0.2474
 9982W        W26166   6.266   2.498  16.357  0.1107 -0.2221  0.0785
 9983W        W26167   2.642   9.506  11.656  0.1721  0.2259  0.0020
 9984W        W26168  13.774   3.349  12.167 -0.0397 -0.2211 -0.1295
 9985W        W26169  12.037   4.350  13.185 -0.0256 -0.0550  0.0780
 9986W        W26170   5.965   0.596  13.119  0.0427 -0.1325 -0.0810
 9987W        W26171   0.898  16.046   4.380  0.0643 -0.2244 -0.1951
 9988W        W26172   3.339   1.510   4.705  0.0414  0.4965  0.1057
 9989W        W26173  14.528  12.289   2.964  0.2375  0.3393  0.1730
 9990W        W26174   9.834  10.702   2.894 -0.1868 -0.1439  0.3326
 9991W        W26175  14.960  13.605   0.838 -0.0365  0.0376 -0.0604
 9992W        W26176   9.428  10.718  11.919 -0.1344 -0.0346  0.0864
 9993W        W26177  18.008   0.477  11.696 -0.0744  0.0250  0.5426
 9994W        W26178  10.040  13.580  12.521 -0.1448  0.0130  0.0684
 9995W        W26179  13.379  16.529  13.535 -0.0176 -0.1714 -0.0780
 9996W        W26180   3.384   4.909  13.735 -0.0974  0.0328 -0.0487
 9997W        W26181  10.515  14.974  13.186 -0.1247 -0.3181  0.1374
 9998W        W26182  11.172   6.798   5.194 -0.2438 -0.4235  0.0598
 9999W        W26183  11.323  14.293   1.145  0.0887 -0.0309 -0.3611
10000W        W26184   2.925  12.357   3.854  0.0180 -0.2519  0.3715
10001W        W26185   6.427   1.288  13.614  0.5622 -0.1148 -0.3155
10002W        W26186   8.707  18.102  14.862  0.0589  0.2012  0.0188
10003W        W26187  17.351  13.828  11.542 -0.3062  0.0103  0.0065
10004W        W26188   6.592   9.563  12.732  0.1106  0.0256  0.0346
10005W        W26189  11.806  10.627  15.922 -0.2400 -0.0734 -0.0021
10006W        W26190   7.352   4.494  12.235 -0.0496  0.1583 -0.1191
10007W        W26191   4.341   1.840   3.723 -0.1228  0.4550 -0.0296
10008W        W26192   9.835   0.602   0.533  0.0147  0.4743 -0.0654
10009W        W26193   4.970  14.482   1.674  0.0438 -0.2549 -0.0099
10010W        W26194   5.717  14.473   2.052  0.0639  0.0315 -0.2221
10011W        W26195  11.585   5.717  15.550  0.1211 -0.3592 -0.1252
10012W        W26196   2.834   2.365  16.648 -0.2439  0.0025 -0.2617
10013W        W26197  12.399   8.845   1.661 -0.1860  0.4070 -0.2246
10014W        W26198   1.591   6.132   3.369 -0.1053 -0.0142 -0.1253
10015W        W26199  14.125  14.335   2.883 -0.1204  0.1796  0.3155
10016W        W26200  11.639   0.721   3.166  0.3110  0.2959  0.0445
10017W        W26201   5.428  15.973   3.395  0.3414  0.3052  0.1898
10018W        W26202  17.873   3.924  13.013 -0.1807 -0.3338  0.1287
10019W        W26203   8.552  16.781  14.523 -0.0305 -0.1463  0.1665
10020W        W26204   6.602   0.644   2.724  0.0380  0.0415 -0.2027
10021W        W26205  15.834   2.234   2.403  0.0863 -0.2052 -0.1687
10022W        W26206  10.219   7.086  13.646 -0.1864  0.1176 -0.0931
10023W        W26207  12.066   9.575   5.926  0.1997  0.2517  0.3818
10024W        W26208  13.110  12.563   2.974 -0.1989 -0.4159 -0.1122
10025W        W26209   8.863   6.594   5.648  0.1823  0.0005 -0.1306
10026W        W26210   0.082  12.873   5.879  0.1937 -0.0079 -0.1224
10027W        W26211   1.691   7.673   1.072 -0.1785 -0.1910 -0.1465
10028W        W26212  13.241  12.380  14.056 -0.2296 -0.0546 -0.2054
10029W        W26213  11.789  13.252   4.432 -0.1710  0.1441 -0.0415
10030W        W26214   5.711  17.364   5.706  0.0477 -0.0896  0.0097
10031W        W26215   8.910  12.944   5.290 -0.4206 -0.0246 -0.0001
10032W        W26216   1.326   3.140  13.699 -0.0425  0.2327  0.1324
10033W        W26217   9.990   1.710  13.691 -0.0602  0.0517  0.2370
10034W        W26218   0.592  13.049  15.858  0.0663  0.3385  0.2172
10035W        W26219  12.874  12.408   0.947  0.1202 -0.2939  0.1348
10036W        W26220  17.655   5.538  12.538  0.0798  0.1785  0.3616
10037W        W26221   6.012  12.776  13.018  0.3036  0.3106 -0.0906
10038W        W26222  16.967   5.373   2.879  0.0370  0.1827  0.2681
10039W        W26223  10.912  14.063  13.158  0.1078 -0.1596 -0.0951
10040W        W26224  17.937   7.171  12.558 -0.0518 -0.0265 -0.0037
10041W        W26225  17.879   1.576  13.534 -0.1837  0.3273 -0.1627
10042W        W26226   2.547   2.787   2.667 -0.0059 -0.0356  0.1485
10043W        W26227  14.977   4.785  12.186 -0.1691 -0.3192  0.0819
10044W        W26228   1.015   3.748  15.924 -0.1826 -0.0634 -0.1466
10045W        W26229   5.011   8.737   3.715 -0.1286 -0.0802  0.1728
10046W        W26230  17.032   0.444   4.551  0.2023 -0.0811  0.1443
10047W        W26231  17.542  12.002  16.091 -0.0507 -0.1778 -0.3877
10048W        W26232  14.744  15.342   5.169  0.1393  0.0524 -0.0701
10049W        W26233  11.910  10.881  13.921  0.0150  0.0474  0.1589
10050W        W26234   7.430   1.236  12.624 -0.2269 -0.0192  0.0191
10051W        W26235   6.699  13.904   1.356 -0.3144 -0.0670 -0.5434
10052W        W26236  16.820  11.658  12.959  0.1135  0.0211 -0.1562
10053W        W26237   1.449   7.450   4.378  0.0058  0.0342 -0.3013
10054W        W26238   2.225  14.083  12.811  0.1576 -0.1537  0.0493
10055W        W26239   7.449  11.060  13.063  0.1098 -0.1106 -0.1608
10056W        W26240  11.399   6.569  14.470  0.1166  0.0925 -0.1927
10057W        W26241   4.313  17.748   3.036  0.0643  0.0993 -0.0915
10058W        W26242   4.768   2.303   5.804 -0.0041 -0.4624 -0.0871
10059W        W26243   0.749   6.659   5.141 -0.0426 -0.0587 -0.2420
10060W        W26244   6.276   7.218  12.740  0.3124  0.1654  0.3206
10061W        W26245   5.962   7.936   4.629  0.0156  0.2120 -0.0432
10062W        W26246  12.299   4.936   5.177  0.1162 -0.0070 -0.5018
10063W        W26247   4.689   0.288   0.555 -0.0806 -0.1103 -0.1689
10064W        W26248  12.048  15.278   5.313 -0.0782 -0.0320  0.0096
10065W        W26249   9.426  14.501   2.249 -0.2528  0.1731 -0.1650
10066W        W26250  12.448   4.097   2.857  0.0956  0.0559  0.2813
10067W        W26251   4.686  12.442  13.689 -0.1770 -0.1515  0.1609
10068W        W26252   9.997   1.082   3.544  0.0807 -0.5892 -0.1908
10069W        W26253   2.466   5.400   0.907 -0.1337 -0.0315  0.2143
10070W        W26254  16.369   9.325   4.176 -0.3342  0.1152 -0.1568
10071W        W26255   0.672   4.206  13.816  0.0369 -0.3609 -0.1881
10072W        W26256  16.973  15.284   5.279 -0.3473 -0.1978 -0.0488
10073W        W26257  13.613   2.147   2.342 -0.2182 -0.0788 -0.0583
10074W        W26258  11.499  10.771   0.425 -0.5739  0.0040 -0.0088
10075W        W26259  11.783   5.188  14.255  0.5402 -0.0390 -0.0419
10076W        W26260   8.485   5.791  12.809  0.3531  0.0657 -0.1005
10077W        W26261  15.955   7.182  12.125 -0.2453 -0.2658 -0.1315
10078W        W26262  11.180   9.072   3.164  0.2040  0.0462  0.0055
10079W        W26263  16.651  13.868  12.201 -0.2394 -0.1583  0.1997
10080W        W26264  13.032  15.652  14.402  0.0020  0.0646 -0.0635
10081W        W26265  18.063  14.886  11.711  0.1554 -0.3308 -0.1015
10082W        W26266  17.784  14.470  11.725  0.2173  0.0388 -0.0533
10083W        W26267   7.142   0.925  14.771 -0.1379  0.0436 -0.1916
10084W        W26268   1.986   5.885   3.903 -0.2230 -0.0600 -0.2284
10085W        W26269   4.718   9.641   6.653 -0.2173 -0.1014 -0.0229
10086W        W26270  16.478  18.010  13.770 -0.1264 -0.1381  0.0166
10087W        W26271  16.332   5.198  11.403 -0.3219 -0.3706  0.1209
10088W        W26272   9.945   0.059   2.570 -0.0527 -0.2017  0.3842
10089W        W26273  11.933   9.501  13.705  0.3155 -0.0635 -0.4628
10090W        W26274  17.980   7.139  10.690 -0.2223  0.0260  0.2823
10091W        W26275  11.604  15.521   3.768  0.0950 -0.0848  0.0836
10092W        W26276   2.229  16.767  13.640 -0.0601 -0.4166 -0.0966
10093W        W26277  15.257   5.921   0.087  0.1259 -0.2279  0.2384
10094W        W26278  17.743   9.507  12.771 -0.3409  0.0695  0.2200
10095W        W26279  16.559   1.122  14.361  0.0765 -0.0327 -0.1256
10096W        W26280   8.659  15.337  16.070  0.2501  0.1678  0.1609
10097W        W26281  12.074  14.151  15.632 -0.0206 -0.1780 -0.1248
10098W        W26282  14.913   0.265   1.148 -0.0673 -0.0622  0.0713
10099W        W26283  16.909   6.091  16.669 -0.2450 -0.1667  0.0670
10100W        W26284  16.699  10.890  11.802 -0.3012 -0.2767 -0.0292
10101W        W26285  10.370  17.745   5.483  0.1704 -0.2084 -0.0447
10102W        W26286  14.851   4.912  14.476  0.0778 -0.1653  0.1786
10103W        W26287   4.654   6.812  15.142 -0.1623  0.4427  0.4502
10104W        W26288  10.252  16.036  11.616 -0.1499 -0.3020 -0.3730
10105W        W26289  12.604  11.237   4.502  0.1111  0.2542  0.1178
10106W        W26290  16.921   7.863  15.152 -0.4796 -0.0258  0.0075
10107W        W26291   7.183   3.767   2.322 -0.0569 -0.0217 -0.2809
10108W        W26292  16.552   9.996   4.431  0.0498 -0.0873 -0.3911
10109W        W26293  17.401  16.932  13.205  0.2126 -0.0839 -0.1641
10110W        W26294   8.319   7.920  14.426 -0.1232  0.1459  0.2370
10111W        W26295   8.832  18.058   1.218 -0.0904 -0.1786  0.0543
10112W        W26296  15.976   9.386   4.990 -0.0922 -0.0703 -0.0744
10113W        W26297   9.150   8.633   5.809  0.1667 -0.1361  0.0001
10114W        W26298   7.649   5.003  11.215  0.0186  0.0926 -0.2316
10115W        W26299   5.227  16.231  16.004  0.1096 -0.0036 -0.1703
10116W        W26300   6.905   7.317   5.717 -0.1924  0.0251  0.0017
10117W        W26301   1.454   0.243   2.380 -0.1416 -0.1019  0.1139
10118W        W26302   2.914   9.102   4.849 -0.0113 -0.2451 -0.4485
10119W        W26303  12.061   1.618  13.647 -0.0258 -0.2494 -0.1395
10120W        W26304  14.473  11.920  16.208 -0.0151 -0.1326 -0.1539
10121W        W26305   0.015  12.996  13.420 -0.3958  0.2749  0.0022
10122W        W26306  11.853   3.797  13.417 -0.1029  0.1079 -0.3180
10123W        W26307   2.105  10.726   1.865  0.2031 -0.0622 -0.1640
10124W        W26308   3.634  13.803  16.604  0.1697 -0.0348 -0.0091
10125W        W26309   3.593  16.596  16.616 -0.3043  0.0928 -0.2149
10126W        W26310   6.150   3.208  13.992  0.0704  0.0956 -0.2646
10127W        W26311   7.837  15.699  12.586  0.3441 -0.1035 -0.0061
10128W        W26312  14.392  11.457  12.849  0.0832 -0.2104  0.1466
10129W        W26313   0.382   2.426   2.235  0.0055 -0.1133  0.0635
10130W        W26314  17.942   7.118   2.494 -0.0467 -0.1610 -0.4183
10131W        W26315  12.105   5.319  16.312  0.3001  0.1666 -0.1652
10132W        W26316  15.378  10.633  13.490  0.0439 -0.0184  0.2452
10133W        W26317  16.565  14.235   3.785  0.1009  0.2568 -0.3928
10134W        W26318  15.934  10.124   1.918 -0.0546  0.2717  0.0072
10135W        W26319   9.363   3.818   5.520  0.1812  0.3506  0.0827
10136W        W26320   7.398   5.662  15.746 -0.3185 -0.0845  0.1947
10137W        W26321   7.647  15.837  13.537  0.4611  0.2027 -0.4016
10138W        W26322  14.152   4.811  10.350 -0.0135 -0.2118 -0.2742
10139W        W26323   0.536   1.761  14.901  0.1442 -0.0033  0.2389
10140W        W26324   2.459  17.557  14.065 -0.0430  0.1704 -0.1300
10141W        W26325   2.881   4.000  14.999 -0.1073  0.1271  0.0836
10142W        W26326  13.083  16.114  14.488 -0.1314 -0.0112 -0.0107
10143W        W26327  11.110  14.455  11.693  0.0827 -0.0657 -0.1798
10144W        W26328  14.794   5.948   2.662  0.2155 -0.0726  0.3624
10145W        W26329   7.005   1.104   1.676 -0.1468 -0.0262 -0.0284
10146W        W26330   7.389   1.651  15.869 -0.1572 -0.1079 -0.0256
10147W        W26331  13.251   3.042  16.491 -0.4455 -0.2010 -0.2054
10148W        W26332  10.742   3.850   5.496 -0.0437  0.1339 -0.1016
10149W        W26333   8.860  11.934  13.751  0.0838 -0.1828  0.0506
10150W        W26334   8.147  15.111  14.527  0.0929  0.0169 -0.2990
10151W        W26335  13.557  11.187  14.510  0.3841 -0.2670 -0.1910
10152W        W26336  17.037  17.947  12.983 -0.1142  0.0711  0.1245
10153W        W26337  13.511  14.710  15.442  0.2468  0.0064 -0.2959
10154W        W26338  12.335   3.620  13.303 -0.1260 -0.0874  0.0914
10155W        W26339  13.950  16.503  16.646  0.1164 -0.0743 -0.0243
10156W        W26340   5.421  13.755   1.988  0.0448 -0.1974  0.0962
10157W        W26341  10.051  15.927  12.098 -0.1841  0.0731  0.0357
10158W        W26342   1.990   0.032  14.852  0.3909  0.0803 -0.0448
10159W        W26343   3.639   0.008  14.731  0.0061  0.2578  0.0994
10160W        W26344   6.727  11.433  15.074  0.0047 -0.1623  0.0160
10161W        W26345  15.993  11.961   4.491 -0.0143 -0.0882  0.1978
10162W        W26346  17.535   5.562   4.316  0.1625 -0.0851 -0.0162
10163W        W26347  16.116   3.087  11.103 -0.2841 -0.1340 -0.2396
10164W        W26348   2.071   2.285  15.324 -0.0115 -0.0002  0.0186
10165W        W26349   0.698   2.813   1.228  0.0972 -0.0149  0.1225
10166W        W26350  16.929   4.517  11.111  0.0635  0.3203  0.0253
10167W        W26351  10.333   2.228   1.989  0.3185  0.1317  0.0965
10168W        W26352  12.988   7.312   0.286 -0.0395  0.1060 -0.1242
10169W        W26353  11.511   8.552  12.343  0.2933 -0.1755  0.0515
10170W        W26354  12.688   4.268  14.277 -0.4067  0.0169 -0.2356
10171W        W26355  10.816  16.838  15.557  0.1801  0.1331 -0.0974
10172W        W26356   2.264   4.000   2.288 -0.0678  0.0300 -0.0147
10173W        W26357   8.178  15.128   6.438  0.0060 -0.3197 -0.3312
10174W        W26358  11.863   8.383   2.192  0.1775  0.1791  0.0622
10175W        W26359  14.668  14.341   5.249 -0.0027  0.2078 -0.1676
10176W        W26360   8.624  17.276  16.093 -0.0175 -0.3054 -0.0594
10177W        W26361  15.595   8.180   2.394  0.2239 -0.1934  0.0191
10178W        W26362  16.937  12.578  15.196  0.0336  0.0788  0.0911
10179W        W26363  17.230   0.934  12.000  0.1548  0.2644  0.1863
10180W        W26364  15.886   5.669   3.945  0.2494 -0.0671 -0.1756
10181W        W26365   8.025   7.030   1.063 -0.0856 -0.0448  0.0189
10182W        W26366  12.808   3.846  13.350 -0.1834 -0.0822  0.0337
10183W        W26367  13.513   3.873  11.317 -0.1110  0.1394  0.2321
10184W        W26368   8.964   8.794   5.088  0.1379  0.0245  0.1238
10185W        W26369   1.775  13.008  16.596 -0.2034 -0.0416 -0.4196
10186W        W26370   2.414   7.982   1.432  0.0900  0.1751 -0.0841
10187W        W26371   1.110  14.099   2.267  0.0636  0.1699 -0.0625
10188W        W26372   7.822  14.805  14.725 -0.2157 -0.2713 -0.0622
10189W        W26373   2.319  10.212   5.404  0.2495  0.1561 -0.1857
10190W        W26374  13.278  12.202  15.626  0.1287 -0.1709 -0.1758
10191W        W26375   4.651   5.503  13.514  0.0793 -0.0148 -0.0140
10192W        W26376  12.448   4.293  12.032  0.1452 -0.1562  0.1041
10193W        W26377   1.400   4.600  12.583 -0.3053 -0.3556 -0.0490
10194W        W26378  15.466  17.008  10.453 -0.0158  0.3455  0.0282
10195W        W26379   6.360   9.826   3.635 -0.2667 -0.3974  0.2155
10196W        W26380  17.162   2.369   5.814 -0.2523 -0.2270  0.0685
10197W        W26381   1.658   6.817   1.623 -0.1077 -0.0915 -0.0317
10198W        W26382  11.672  17.506  12.341  0.1552 -0.1273 -0.0708
10199W        W26383  13.394   1.388   2.823  0.0881 -0.2007 -0.2797
10200W        W26384   1.925   0.352  15.898 -0.1448  0.0314  0.1073
10201W        W26385   0.797   9.667  15.690  0.2532  0.2225  0.2366
10202W        W26386   2.720  15.075  13.971 -0.0199 -0.1204  0.2093
10203W        W26387  12.614  17.086  15.373 -0.0175  0.3413 -0.0996
10204W        W26388  14.984   2.233   3.370 -0.1911  0.2334  0.1762
10205W        W26389  11.173  12.076  12.855 -0.1797 -0.0007 -0.0916
10206W        W26390   2.217  13.880   3.297 -0.0300  0.1498 -0.2696
10207W        W26391   5.745   5.528   2.311 -0.1988  0.0157  0.1901
10208W        W26392  16.890  15.893  15.158 -0.0736  0.0817 -0.0006
10209W        W26393   0.269  16.814  14.120 -0.0787 -0.2161  0.1272
10210W        W26394  15.964   5.177  11.905 -0.1879 -0.0653  0.2049
10211W        W26395   6.796   8.806  13.793 -0.0613 -0.0401 -0.1155
10212W        W26396  14.949  18.098   1.999  0.0108  0.1637 -0.2924
10213W        W26397   6.235  10.020  14.278 -0.2494  0.2096  0.4068
10214W        W26398   5.923   3.198   3.074 -0.2929  0.0874 -0.4845
10215W        W26399   9.828   8.663  15.539 -0.0884 -0.0072 -0.3781
10216W        W26400   3.517   3.417  15.850  0.2185  0.2289  0.0043
10217W        W26401   7.929   2.849   4.849  0.3063 -0.2370 -0.2870
10218W        W26402  15.730  16.971   0.939  0.2000  0.0840  0.2554
10219W        W26403   6.073  12.552   2.599 -0.1868 -0.2883 -0.0355
10220W        W26404   9.206   3.240  12.124 -0.0608  0.0436  0.2833
10221W        W26405   5.867  13.378   4.733 -0.0420  0.0719 -0.0650
10222W        W26406   5.165  16.338   1.355 -0.3760  0.1816 -0.2652
10223W        W26407  17.778   6.711   4.998  0.1754  0.1483 -0.2575
10224W        W26408   3.260  15.468   3.883 -0.1218  0.1300  0.3984
10225W        W26409  10.507   7.662   3.996 -0.0901  0.2043  0.2091
10226W        W26410   9.167  12.888   1.089 -0.4400  0.3459  0.2591
10227W        W26411  13.225   8.552   1.290  0.0399  0.3230 -0.1233
10228W        W26412  17.029  11.950  15.998  0.0714  0.0806 -0.0264
10229W        W26413   7.927  11.745   4.621 -0.0250 -0.1757  0.1163
10230W        W26414  15.443   5.379   1.445  0.2473  0.2257 -0.2378
10231W        W26415  16.396  10.685   3.706  0.5404 -0.0339  0.1883
10232W        W26416   0.063   8.073   0.974  0.1641 -0.0248 -0.0383
10233W        W26417  11.300   5.431   4.349  0.1023  0.2227 -0.0013
10234W        W26418   1.879   9.312  12.493  0.1281  0.1282  0.1193
10235W        W26419  10.855  16.023   2.414  0.1341  0.0793 -0.0987
10236W        W26420  17.379  11.417   4.404  0.1671 -0.0065 -0.1215
10237W        W26421  15.417   4.221  14.922  0.2765  0.1995  0.0155
10238W        W26422   3.561   8.109   2.751 -0.4776 -0.3068  0.2002
10239W        W26423   0.168  16.553   1.990  0.2133 -0.0965  0.4211
10240W        W26424   0.777  17.821  12.042  0.0520  0.2708 -0.1178
10241W        W26425  11.286  10.029   4.690 -0.2490  0.1954 -0.0179
10242W        W26426  10.090   7.554   4.818  0.1553  0.3660  0.0718
10243W        W26427   3.987   9.280   0.088 -0.0286  0.1415 -0.2288
10244W        W26428   5.856   9.246   0.883  0.0973 -0.3066 -0.0358
10245W        W26429   0.547  13.779   4.838 -0.0599  0.0202  0.1931
10246W        W26430   4.142   8.623   3.503 -0.3590 -0.2665 -0.0355
10247W        W26431  15.079   3.350  12.099  0.0650  0.1228 -0.0184
10248W        W26432   5.475  13.644   5.460  0.2430 -0.0659  0.1415
10249W        W26433   1.440   9.068  16.134 -0.3732 -0.3624 -0.1935
10250W        W26434  17.167  13.184   4.560  0.1685 -0.3992 -0.0680
10251W        W26435  15.791  17.777   1.765 -0.0395 -0.4051  0.3601
10252W        W26436  15.518  14.366  13.873  0.0974  0.1744 -0.0117
10253W        W26437   6.546   6.451   1.787  0.1773  0.2550 -0.1616
10254W        W26438   3.614  12.988  15.520  0.0678  0.2034  0.1961
10255W        W26439   5.166   7.321   4.757  0.0317 -0.0425  0.0367
10256W        W26440  11.110   8.170   0.629  0.1033 -0.1032  0.0182
10257W        W26441   5.711  15.719   3.923 -0.0429  0.2495 -0.0578
10258W        W26442  16.138   0.160  14.066 -0.2536  0.2245 -0.6271
10259W        W26443   8.203   8.505  13.148  0.2302  0.2969  0.1847
10260W        W26444   0.669   5.806   4.422 -0.2070 -0.2679  0.2641
10261W        W26445   7.443   0.917   0.685  0.0857  0.0541  0.2465
10262W        W26446  18.141  15.608   2.240  0.0298  0.0781 -0.0672
10263W        W26447   1.025  17.226  16.575 -0.1304 -0.3599  0.3054
10264W        W26448   4.076  12.930  15.188 -0.3241 -0.4119 -0.0799
10265W        W26449  16.203  14.110  13.162 -0.3250 -0.1264 -0.1042
10266W        W26450   7.581   0.170  12.398 -0.1305 -0.1438  0.0826
10267W        W26451  16.092   8.008   3.774  0.1145 -0.0960  0.1323
10268W        W26452  10.359  14.587  13.609 -0.1702  0.0529 -0.1534
10269W        W26453  11.880   3.145   3.883  0.0097  0.1966  0.0665
10270W        W26454   5.044  17.943  12.431  0.0736 -0.4828  0.2332
10271W        W26455  15.369   7.736   2.254  0.2875  0.0006 -0.1766
10272W        W26456   2.762   7.493   0.622 -0.0027 -0.3202  0.1007
10273W        W26457  13.831  11.531   3.074 -0.1524  0.1049  0.1998
10274W        W26458   0.006   5.584   1.011 -0.3190 -0.2071  0.0431
10275W        W26459   4.402   3.990   4.937 -0.2602  0.3100  0.0940
10276W        W26460  13.142   6.798   0.130  0.1623  0.0415  0.1546
10277W        W26461  10.717  13.555   0.214  0.1143  0.2950  0.1297
10278W        W26462   7.579   9.882   2.949  0.0308  0.0375 -0.0234
10279W        W26463   4.353  11.329  11.969 -0.1686 -0.1413 -0.0213
10280W        W26464   0.071   9.795   2.440 -0.1199 -0.0113 -0.5614
10281W        W26465  15.910   0.808  13.577  0.2622  0.3574  0.2239
10282W        W26466   1.490  16.693   0.944  0.1296 -0.1685  0.1134
10283W        W26467  10.936   9.954  15.361 -0.2995  0.0972  0.0722
10284W        W26468  16.191   5.400   0.096 -0.3944  0.2619 -0.1328
10285W        W26469   1.647  10.258  15.373 -0.3141 -0.1788 -0.2267
10286W        W26470   3.456   1.542   1.823  0.0371  0.0806 -0.1528
10287W        W26471  14.266  16.174  16.573 -0.0193  0.0753 -0.3646
10288W        W26472   5.016  13.282   5.331  0.1305 -0.1843  0.2500
10289W        W26473  17.625  13.054  14.336 -0.0616 -0.0157 -0.3790
10290W        W26474  17.339   7.306  16.092  0.0734 -0.0284 -0.0189
10291W        W26475   4.177   6.800  12.202  0.0874 -0.2711  0.0712
10292W        W26476   5.913  14.890   2.708  0.0110  0.1696 -0.1578
10293W        W26477   1.883  12.408   3.858  0.1396 -0.2241 -0.0496
10294W        W26478  17.692  15.438   4.705  0.2744 -0.1544  0.1464
10295W        W26479  12.817   8.894  12.166  0.1856  0.3366 -0.0013
10296W        W26480   7.311   7.038   5.110  0.4167 -0.1832  0.4647
10297W        W26481  15.547   0.697  11.418 -0.1333  0.3272 -0.1969
10298W        W26482  14.387  14.621   0.839 -0.0949 -0.2141 -0.1933
10299W        W26483  11.653  10.546  15.365  0.2319  0.1158 -0.1395
10300W        W26484  17.686   1.438  11.319 -0.1974  0.1907  0.1263
10301W        W26485  12.721   4.166   1.998  0.2038 -0.0220  0.0100
10302W        W26486  18.167   2.764  15.972 -0.0378 -0.2187 -0.0510
10303W        W26487   7.873  18.004  16.669 -0.2867  0.2887 -0.1050
10304W        W26488   8.812   3.092   1.789 -0.2766  0.2177  0.0944
10305W        W26489  11.892   8.770  15.463  0.0468 -0.0911  0.1936
10306W        W26490   2.146   5.667   5.043  0.0022  0.0626  0.1197
10307W        W26491  14.604   0.316  11.052 -0.0431 -0.0998 -0.3286
10308W        W26492  14.807  16.557  12.967  0.1858  0.0763  0.1844
10309W        W26493  11.707   7.973   0.399 -0.0671  0.0404 -0.2999
10310W        W26494  17.264   5.080  13.319 -0.0743 -0.1892 -0.4303
10311W        W26495   5.217   2.201   5.361 -0.1052  0.0731 -0.0118
10312W        W26496  17.284  15.545   0.765  0.0840  0.2118 -0.0395
10313W        W26497   9.118   3.871   3.665 -0.1864 -0.0779  0.0515
10314W        W26498   6.448   9.314   4.798 -0.1899  0.2545  0.0046
10315W        W26499   0.237  12.333  14.186  0.1137 -0.1899 -0.0493
10316W        W26500  11.632  12.350   2.541  0.0168  0.1620 -0.3001
10317W        W26501   8.878  11.594   2.290  0.3283  0.0604  0.2586
10318W        W26502  13.828   1.734  11.591  0.0331 -0.1037 -0.1376
10319W        W26503   4.807   5.019  16.668  0.0332 -0.2434  0.1660
10320W        W26504  16.038  12.346   2.167 -0.1458 -0.3509  0.1417
10321W        W26505   7.052   7.298   2.650  0.1409 -0.3661 -0.0555
10322W        W26506   5.400  17.588   2.843 -0.0517 -0.1442 -0.1330
10323W        W26507   0.211   0.050  10.525 -0.3040 -0.1725 -0.0048
10324W        W26508   9.851   6.547   5.083  0.1166 -0.1048 -0.1284
10325W        W26509  12.123   2.773  15.011 -0.0582 -0.3490  0.2129
10326W        W26510  10.864  14.524   5.430  0.0697  0.1620  0.1905
10327W        W26511   3.360   0.472   5.680  0.1042 -0.0565 -0.0877
10328W        W26512  16.902   0.090   2.347  0.0756 -0.2666 -0.1650
10329W        W26513   9.057  12.366   0.991  0.0869 -0.1700  0.0802
10330W        W26514   8.373  16.376   6.285  0.1854 -0.0973 -0.1187
10331W        W26515   8.458  16.423  12.164 -0.0792 -0.1354 -0.2291
10332W        W26516   6.995   1.966   3.747 -0.0388 -0.1172 -0.1749
10333W        W26517  13.830   0.037   4.402  0.0683 -0.0692 -0.0844
10334W        W26518  11.520   6.393   3.960 -0.0896 -0.0733  0.0268
10335W        W26519   7.985  12.213   4.699  0.1241  0.1464 -0.0665
10336W        W26520  10.479   7.828   5.426  0.0213 -0.0551 -0.0531
10337W        W26521   0.484   7.684  11.788 -0.0319 -0.1675 -0.3329
10338W        W26522   8.291   3.587   0.029 -0.1469  0.2181 -0.1265
10339W        W26523   6.234  11.214   4.654  0.1089 -0.0209  0.3225
10340W        W26524   2.881   6.700   4.305 -0.0222 -0.0342  0.2515
10341W        W26525   7.762   6.183   3.780 -0.0951  0.0362 -0.0598
10342W        W26526  11.684  11.170  15.894 -0.0491 -0.1246 -0.1530
10343W        W26527   0.733  14.586   1.121  0.0606 -0.4437  0.0325
10344W        W26528  17.121  16.129  15.607 -0.1353 -0.4540 -0.1386
10345W        W26529   0.360  16.225   1.197  0.1301 -0.3627 -0.2336
10346W        W26530   5.229   0.948  12.666  0.1342  0.1446  0.0277
10347W        W26531  16.722   7.563   5.753 -0.0152 -0.0337 -0.1728
10348W        W26532  10.930   1.590   5.248 -0.0485 -0.0079  0.1004
10349W        W26533  12.991   5.426  10.472 -0.0860  0.1765 -0.2200
10350W        W26534  12.637  14.579  12.091  0.1767 -0.1304 -0.1112
10351W        W26535  15.967  11.714   5.539 -0.0545 -0.4022 -0.0277
10352W        W26536   1.588   2.850  16.236  0.3941  0.1274  0.0730
10353W        W26537   9.081  17.191   3.996  0.0536 -0.1353  0.0555
10354W        W26538  17.142  16.054  11.847 -0.0521  0.0046  0.0418
10355W        W26539  10.745  11.078  16.682  0.0501  0.3175 -0.0166
10356W        W26540   3.208  10.691   3.367 -0.1056 -0.2006  0.1773
10357W        W26541   7.876   5.973  14.601 -0.2376 -0.0003  0.1186
10358W        W26542  17.707  16.956  11.502 -0.1704  0.0197 -0.0056
10359W        W26543   1.266   8.596  12.173 -0.0245  0.1086  0.1080
10360W        W26544  13.333  10.940   1.933 -0.1432  0.0647 -0.1120
10361W        W26545   3.872  11.520  12.984  0.1340  0.2876 -0.2432
10362W        W26546   1.592   4.081   2.978  0.0454 -0.0074  0.1328
10363W        W26547   2.221  17.762   3.229 -0.1216 -0.0500 -0.1248
10364W        W26548   4.400   9.761  14.742 -0.0986 -0.3041  0.0197
10365W        W26549  15.356  17.815  14.956  0.3665 -0.1019 -0.2392
10366W        W26550   8.174   1.763   3.223  0.1566 -0.0530 -0.2266
10367W        W26551   5.343   4.857   4.643  0.1810 -0.0650 -0.0965
10368W        W26552   0.072   3.780  11.191  0.2198  0.1116  0.1917
10369W        W26553  14.791   3.347  13.567  0.1129  0.0987  0.0049
10370W        W26554   6.445  10.819   4.931  0.0761 -0.3967  0.2029
10371W        W26555  15.951   4.740  15.828 -0.2563 -0.2429 -0.2336
10372W        W26556   6.270  16.581  16.363  0.0826  0.0074 -0.2124
10373W        W26557   7.226  11.624  12.555 -0.0921  0.5495  0.0079
10374W        W26558  15.110   1.050   3.514  0.1046  0.1631  0.4736
10375W        W26559  15.299   8.058  11.919  0.0744 -0.1030  0.0386
10376W        W26560   9.430  15.479  14.632  0.1725 -0.0338  0.0759
10377W        W26561  10.598  15.530   3.862 -0.0965  0.2337  0.0989
10378W        W26562   3.198  16.056   1.708  0.2917  0.5357 -0.2417
10379W        W26563  17.924  16.964   2.563  0.1893 -0.4093  0.2940
10380W        W26564   4.169  15.317   5.458 -0.1407  0.1753 -0.3097
10381W        W26565   4.197  18.159  14.638 -0.1646  0.1680  0.0424
10382W        W26566  13.152   1.358   0.877 -0.1995  0.2881  0.0677
10383W        W26567   0.422   5.521   1.311 -0.1256 -0.1173  0.0915
10384W        W26568   5.492   7.676   5.327 -0.3742  0.0742 -0.0704
10385W        W26569  16.840  12.536   2.531  0.0068  0.0660 -0.2521
10386W        W26570   7.201   8.667  14.452 -0.3878  0.0321 -0.1988
10387W        W26571   4.040  13.412   0.643 -0.1411  0.4525 -0.1592
10388W        W26572   1.886   8.643   6.055  0.0765 -0.0677 -0.0463
10389W        W26573   3.098  17.930  14.857  0.2236  0.1809  0.2764
10390W        W26574  16.486  13.459   4.377  0.3608  0.3229  0.0422
10391W        W26575  14.056   8.662   4.085  0.0758 -0.2664  0.0425
10392W        W26576  10.881   4.202   3.820 -0.3519  0.0802 -0.0571
10393W        W26577  17.427  10.494  16.238 -0.1949  0.0872 -0.2571
10394W        W26578   7.317  14.201   1.622  0.1417 -0.3035 -0.2526
10395W        W26579  16.742   5.563  15.879 -0.2400  0.2649 -0.1351
10396W        W26580   1.932   0.898  14.463  0.3134 -0.0609 -0.1810
10397W        W26581  15.594   6.912  14.635  0.1918  0.1272 -0.1001
10398W        W26582   6.197   0.701  14.590 -0.0688 -0.2508  0.2053
10399W        W26583   4.204   4.141  16.045 -0.0525 -0.1385  0.0302
10400W        W26584   0.635  15.972  14.046  0.1820 -0.1774 -0.0151
10401W        W26585  11.424  12.136   3.672  0.1881  0.0445 -0.4578
10402W        W26586  12.020   2.322  12.873  0.2571  0.0450 -0.0111
10403W        W26587   7.718   2.470   1.416 -0.1037 -0.3945 -0.0462
10404W        W26588   4.483   8.262   3.861 -0.1498  0.1207 -0.0589
10405W        W26589   7.942   6.154   1.551  0.0804 -0.0398  0.1066
10406W        W26590  16.199  13.243   5.333  0.0179 -0.1345 -0.0317
10407W        W26591  13.167   8.652  12.894 -0.0422  0.2819 -0.1079
10408W        W26592  15.242   5.160   2.916 -0.0706  0.1598 -0.0627
10409W        W26593  13.090   2.195   4.054 -0.0934 -0.0208  0.1684
10410W        W26594  13.124   9.460   0.747 -0.3035 -0.0157 -0.1325
10411W        W26595  14.061   4.498   2.827 -0.0204 -0.0684  0.0031
10412W        W26596   0.166   3.034  11.773 -0.1838 -0.0068  0.1625
10413W        W26597  14.887  14.533   0.841 -0.1602  0.0941 -0.0697
10414W        W26598  10.635  11.682   4.790  0.1986  0.0613  0.0487
10415W        W26599  16.498  12.517   4.801 -0.2108  0.1411 -0.2953
10416W        W26600   2.544  12.614  12.953  0.1270 -0.0273 -0.0835
10417W        W26601   8.612  10.131   3.170 -0.2636  0.0894  0.1243
10418W        W26602  10.229   9.232   0.060  0.2719  0.3517 -0.0565
10419W        W26603  15.426  10.331  12.998 -0.1298  0.2812 -0.0795
10420W        W26604   0.589  10.928   2.255  0.0881  0.1822 -0.0035
10421W        W26605  10.400  13.954  12.705  0.2884 -0.3079 -0.1950
10422W        W26606   0.859   2.299  12.378  0.1767  0.0995  0.0666
10423W        W26607  15.001   8.729  12.694  0.1313  0.0406 -0.0309
10424W        W26608  16.102  14.129   4.151 -0.0394  0.2731  0.0534
10425W        W26609  12.334   9.391   1.710  0.1296 -0.2508  0.1787
10426W        W26610  10.418   1.620   2.823  0.0265 -0.3387  0.0068
10427W        W26611   7.750   7.664  15.259 -0.3006  0.3448 -0.1690
10428W        W26612   7.455   9.470  16.460 -0.1139  0.1475 -0.0828
10429W        W26613  11.541   9.353   5.977 -0.0876 -0.1361  0.0273
10430W        W26614   4.741  12.737   2.821 -0.2198 -0.0700 -0.3016
10431W        W26615   4.705   6.195   1.280 -0.0255 -0.2258 -0.3540
10432W        W26616  16.977  14.108  11.657  0.0298  0.0064 -0.2092
10433W        W26617  13.586  10.018  14.291  0.0892 -0.0523  0.1151
10434W        W26618  16.189   6.701  12.101 -0.1673 -0.0240 -0.0789
10435W        W26619  14.838   5.284  12.408 -0.1523 -0.1932  0.0391
10436W        W26620   1.458   0.205   5.544 -0.0192  0.0707 -0.0317
10437W        W26621   7.938  11.730  12.547 -0.1474 -0.2396  0.1896
10438W        W26622   4.727   1.038  10.547  0.2348 -0.2093  0.0578
10439W        W26623   9.724  13.327   3.081 -0.0123 -0.0131 -0.2412
10440W        W26624  15.644   5.985   0.712  0.2477  0.0158 -0.2772
10441W        W26625  14.257   6.366  16.453  0.0221 -0.1798 -0.3186
10442W        W26626   1.670  14.404   4.381  0.1052  0.1533  0.1337
10443W        W26627  12.953  17.077   0.794 -0.1539  0.3906 -0.1411
10444W        W26628   9.539  17.383  15.974 -0.1699  0.5129  0.4484
10445W        W26629   7.549   0.128   4.054  0.0888  0.3378 -0.0388
10446W        W26630  15.866  18.047   5.681  0.2155 -0.1092 -0.0309
10447W        W26631  15.970   2.702  11.431 -0.0129  0.0966  0.2480
10448W        W26632  16.677  17.349   2.540  0.1372  0.0020 -0.0867
10449W        W26633   6.931  14.033  13.508  0.3935 -0.1666 -0.5081
10450W        W26634   9.250   9.084   3.718 -0.2667 -0.3621  0.0775
10451W        W26635   0.142  10.471  16.460  0.2038  0.2191  0.1419
10452W        W26636  13.828  14.074  15.798 -0.2329 -0.0856  0.1000
10453W        W26637   2.208   1.057   3.669 -0.2158 -0.0131  0.0478
10454W        W26638  13.075   1.855   1.070  0.0620  0.1365  0.1660
10455W        W26639   5.646   3.580  13.009 -0.1603 -0.0642  0.3006
10456W        W26640   3.588  15.951  15.073  0.1737  0.0738  0.0727
10457W        W26641  17.374   8.092  14.240  0.1346 -0.2565 -0.1087
10458W        W26642  17.054   4.420  15.368 -0.3950  0.3264  0.3463
10459W        W26643   3.560  16.984  15.667  0.1559 -0.4726  0.0192
10460W        W26644   6.708   5.060  15.993  0.1898 -0.1309  0.0004
10461W        W26645   7.786  10.497   0.827 -0.2688 -0.2724 -0.2205
10462W        W26646  16.815  11.171   2.017 -0.0017 -0.1382 -0.1034
10463W        W26647  17.446   5.425  13.986 -0.2692 -0.2760  0.0900
10464W        W26648  12.595  18.047   3.628 -0.3132  0.0538 -0.0151
10465W        W26649   5.384   8.893  15.824 -0.1001  0.0218 -0.1349
10466W        W26650   5.315  17.036  15.392  0.2156  0.2346 -0.2357
10467W        W26651  18.064  12.035   5.041 -0.0661  0.1012 -0.1376
10468W        W26652   3.425   4.224  12.335  0.0221  0.0568  0.0060
10469W        W26653  15.941  11.376   4.348  0.1114 -0.0979 -0.0669
10470W        W26654   7.875   1.877  15.882  0.3853 -0.2091  0.1254
10471W        W26655   2.514  12.531  13.813 -0.0602 -0.2191  0.1754
10472W        W26656   4.828   2.281  12.317 -0.1356 -0.0042  0.0199
10473W        W26657   8.216   8.117   1.507  0.1372 -0.1821 -0.1456
10474W        W26658   9.898  13.534  11.507  0.1777  0.1374  0.1180
10475W        W26659   6.191  10.947   6.462  0.2988  0.2127  0.0203
10476W        W26660  14.865   6.155   0.480  0.1954 -0.0541  0.2492
10477W        W26661  15.542  16.026   2.753 -0.2816  0.2043  0.0469
10478W        W26662  15.153   0.551   3.742 -0.4589 -0.2400 -0.1453
10479W        W26663  11.963   8.076   1.384 -0.0499 -0.2346 -0.0885
10480W        W26664  13.866  14.058  14.842  0.2940  0.0936  0.0468
10481W        W26665   3.419  16.746   5.407 -0.0790  0.0103  0.0838
10482W        W26666  13.761   7.435  14.213  0.0935  0.1474  0.0341
10483W        W26667   0.747   9.022   3.153 -0.2245 -0.2046 -0.0183
10484W        W26668  16.495  14.578  15.525  0.1596  0.0280  0.3112
10485W        W26669  15.673   1.059  15.117 -0.1813 -0.1490  0.1398
10486W        W26670   5.437   0.339   1.215 -0.2028  0.2027 -0.5021
10487W        W26671   3.533   1.026  16.017 -0.4165 -0.0884 -0.0425
10488W        W26672   0.312   2.310   2.828 -0.0174  0.0450 -0.0675
10489W        W26673   8.418   8.864  14.511 -0.1281  0.2624 -0.2114
10490W        W26674   7.611   0.480  12.847 -0.0177 -0.1889  0.1763
10491W        W26675   2.457  14.760  13.087 -0.1065 -0.2990 -0.1495
10492W        W26676   1.746  12.250   1.843 -0.1020 -0.3277  0.2130
10493W        W26677  13.054  10.846  15.396  0.1785  0.1160  0.0823
10494W        W26678  17.185  11.111  15.588 -0.1351  0.0428  0.2266
10495W        W26679   6.253  12.343   2.096 -0.1225 -0.0423 -0.1746
10496W        W26680   2.743   5.915   1.638 -0.3074 -0.0198 -0.0287
10497W        W26681   8.263  13.096   1.301 -0.1506  0.0865 -0.0085
10498W        W26682   3.683  11.350   2.720 -0.1111  0.0683  0.1511
10499W        W26683  13.146   8.660  13.770 -0.0288  0.2185 -0.0395
10500W        W26684  11.983   3.578  15.855  0.3574  0.1036 -0.3303
10501W        W26685   8.033   5.936  10.595 -0.1397  0.1219 -0.0391
10502W        W26686   0.940   1.963  12.791  0.0290 -0.0737  0.1421
10503W        W26687  11.645   1.257  12.286  0.0195  0.3590  0.0138
10504W        W26688   0.429   3.773  11.669  0.0932  0.1786  0.1521
10505W        W26689   9.478   7.883   4.312  0.1132 -0.3370 -0.4468
10506W        W26690   4.951  16.807   1.013 -0.1803  0.4622  0.0498
10507W        W26691  10.796   9.817  13.533  0.0151 -0.0131  0.1713
10508W        W26692  17.617  17.918  12.402  0.0797 -0.1338  0.1579
10509W        W26693  15.892   2.652  10.907 -0.0348  0.4187 -0.1549
10510W        W26694   6.083   0.847   1.093  0.3877 -0.0866 -0.0196
10511W        W26695  15.534   6.289  15.314 -0.1619  0.1575 -0.1391
10512W        W26696  11.957  13.558  15.506  0.1045  0.0823  0.0320
10513W        W26697   7.524   2.607   4.656 -0.0993  0.0331 -0.0159
10514W        W26698   6.601  15.355  14.175 -0.1543  0.1195 -0.2013
10515W        W26699  12.704  17.395  10.817 -0.1836  0.1083  0.0964
10516W        W26700   7.661  14.228  15.096 -0.4014  0.0680  0.2885
10517W        W26701  16.795   9.806  16.222 -0.0166 -0.0789 -0.0900
10518W        W26702   9.269   2.170   5.273  0.2101  0.0582 -0.0067
10519W        W26703   7.248  13.056  13.727  0.3018  0.1660  0.1285
10520W        W26704   7.865  15.860  15.855 -0.0765 -0.0072 -0.3347
10521W        W26705  11.617  11.246   0.131  0.2137 -0.0755 -0.1252
10522W        W26706   0.193  16.473  12.737  0.0208  0.1052  0.0512
10523W        W26707  10.673   0.443  14.427  0.3856  0.0656  0.3312
10524W        W26708  13.342  15.213   1.193 -0.0866 -0.1350 -0.1953
10525W        W26709  16.070  15.708   0.852  0.4620  0.0711 -0.1243
10526W        W26710  12.909   8.417   3.586 -0.1964  0.2758  0.0848
10527W        W26711   3.502  10.793   2.233  0.0052  0.1272  0.1873
10528W        W26712   0.527   2.467  14.180  0.1858  0.0539  0.1953
10529W        W26713  17.759  10.705   3.803  0.3269 -0.2497  0.0851
10530W        W26714   2.270  11.531   1.279  0.0175  0.1988 -0.2060
10531W        W26715   2.200  11.922   2.953 -0.1890  0.2820 -0.0529
10532W        W26716  11.840   0.276   3.031 -0.0324 -0.2726  0.0103
10533W        W26717  15.524  11.628  16.292  0.0995  0.0166 -0.1803
10534W        W26718  10.805   0.268  11.634  0.3457 -0.1919  0.2250
10535W        W26719  11.765  10.238   2.341  0.0661  0.1883 -0.2365
10536W        W26720   9.811  10.609  14.084  0.0345 -0.1031  0.2445
10537W        W26721  13.088   0.963   3.493 -0.0741 -0.1856 -0.0833
10538W        W26722  13.492   1.318   0.586  0.0060 -0.0059 -0.1841
10539W        W26723   3.727   5.229  15.821  0.2329  0.2105 -0.0323
10540W        W26724   8.696   6.737   3.651  0.0911 -0.1147  0.0867
10541W        W26725   9.129   9.009  11.895 -0.0408  0.2916  0.0028
10542W        W26726  11.912  12.923   1.315  0.1441 -0.1867  0.1106
10543W        W26727   1.173   5.713  12.138 -0.0597 -0.1515  0.0105
10544W        W26728  12.583   9.728   5.840  0.1458  0.2097 -0.1947
10545W        W26729   5.880  11.182   1.132 -0.0542  0.1707  0.0191
10546W        W26730   8.630   7.219  15.848  0.0238  0.0275  0.1800
10547W        W26731   3.155  18.067  16.446  0.0942 -0.0846  0.1014
10548W        W26732  15.745   0.002  16.276  0.0309 -0.2754 -0.2998
10549W        W26733   5.096   8.292  14.237  0.0513 -0.2690 -0.1122
10550W        W26734   6.291   5.395   0.809 -0.1907  0.0781 -0.0980
10551W        W26735   0.310   3.923  15.258 -0.0780  0.0937  0.2188
10552W        W26736   8.278  10.992   1.967 -0.0066 -0.2636  0.2675
10553W        W26737  16.819   0.124   0.286  0.1710 -0.1824  0.2172
10554W        W26738   4.116   8.219   4.385 -0.1222 -0.2685  0.4032
10555W        W26739   0.274  13.720   4.427 -0.1865 -0.2909 -0.0967
10556W        W26740  10.029  13.505   3.683  0.3022  0.0833  0.0869
10557W        W26741  16.850   1.779  12.240  0.2619 -0.1300 -0.1569
10558W        W26742  11.830  10.624  13.318  0.1845  0.0690 -0.0220
10559W        W26743  15.369  15.187  14.546  0.0460  0.1621  0.0035
10560W        W26744   6.335  14.032   0.214 -0.0404 -0.1142 -0.2717
10561W        W26745   0.976  14.567   3.257  0.3065  0.1724  0.1250
10562W        W26746  10.883  17.882   0.435  0.0088  0.0610 -0.1244
10563W        W26747   5.885   4.963   5.783 -0.2581 -0.1552  0.1334
10564W        W26748  12.194   2.820  14.527 -0.0384 -0.1510 -0.3844
10565W        W26749   3.434  16.387  14.167 -0.0421  0.0053 -0.1596
10566W        W26750  10.517  13.257   5.225  0.0588 -0.3500 -0.0320
10567W        W26751   8.198   4.656  14.723  0.2289 -0.1780 -0.3657
10568W        W26752  11.238   6.666   5.661 -0.2215  0.2323 -0.0352
10569W        W26753   8.856   0.442   1.315  0.3389  0.1388 -0.2643
10570W        W26754  16.341  17.804   3.972 -0.0269 -0.3062 -0.5671
10571W        W26755   3.550   3.888   0.036  0.2874  0.2142 -0.1585
10572W        W26756   4.685   7.652   0.140 -0.2849 -0.0887  0.0095
10573W        W26757  14.186   7.709  15.547  0.2850  0.1318  0.2173
10574W        W26758  15.947   2.759  15.665  0.2594 -0.4199 -0.4070
10575W        W26759   0.687  15.010   2.336  0.1715 -0.1967  0.0225
10576W        W26760  12.638   0.173   5.025 -0.3090 -0.1824 -0.1995
10577W        W26761  16.252  16.399  15.300  0.2252  0.2194  0.0311
10578W        W26762  16.077  16.857  12.578 -0.3456  0.1127  0.1315
10579W        W26763   0.380  15.087  14.885  0.2598 -0.1866  0.1093
10580W        W26764  15.650   4.595  15.424 -0.0595 -0.1525 -0.0435
10581W        W26765  13.983  10.143  11.422  0.0113  0.3467 -0.2958
10582W        W26766  10.635   1.744   1.271  0.0972 -0.0763  0.0190
10583W        W26767  16.186   0.470   2.547  0.2047 -0.0205 -0.4258
10584W        W26768   7.377  17.451   0.811  0.2242  0.2416 -0.0223
10585W        W26769  14.851  16.841   4.406 -0.1815 -0.1530  0.3992
10586W        W26770   2.859   4.554   5.315 -0.1655  0.3004 -0.0687
10587W        W26771  15.536  16.646   2.258 -0.1147  0.1501  0.1082
10588W        W26772  16.237   7.148   1.533 -0.0468 -0.0981  0.3324
10589W        W26773   8.435  16.964  15.337 -0.3116 -0.0097 -0.0078
10590W        W26774   4.444   3.957   4.194  0.4085  0.1836  0.1562
10591W        W26775   8.433  12.828   5.213 -0.1808  0.0432 -0.1028
10592W        W26776  14.506  12.371  13.975 -0.1476  0.0024 -0.2360
10593W        W26777   0.214   3.412  15.151 -0.1397 -0.1648  0.1240
10594W        W26778   3.992   6.396  16.356  0.0671 -0.1059  0.0259
10595W        W26779   1.514   0.909  15.560 -0.2239 -0.1335  0.2007
10596W        W26780  14.591   7.163   2.475  0.1125  0.2724  0.1758
10597W        W26781   6.197  16.884   3.082  0.0144  0.2252 -0.0727
10598W        W26782   3.164   6.085   0.050  0.0814 -0.2296  0.1897
10599W        W26783  17.212   4.001   4.918 -0.0934 -0.0507  0.2930
10600W        W26784   0.100   2.603  12.903  0.0919 -0.4097  0.2693
10601W        W26785   9.997   8.960   5.491 -0.2807  0.1999  0.0509
10602W        W26786   8.708   4.900  15.338  0.0291  0.0490 -0.0203
10603W        W26787  16.256   9.974  12.497  0.2526  0.0966  0.4448
10604W        W26788   2.651   6.060   0.086  0.0064  0.0041  0.0907
10605W        W26789  15.249  12.284   1.953 -0.1408  0.0198 -0.0227
10606W        W26790  12.757  10.786  14.536 -0.0276 -0.0561 -0.0802
10607W        W26791   1.826   8.025  13.668  0.1153 -0.1809  0.0312
10608W        W26792  16.522   0.588  14.258  0.0624  0.0549 -0.0629
10609W        W26793   8.014   9.137   2.919 -0.2772  0.1146  0.0261
10610W        W26794   6.931  10.773   3.708 -0.1465 -0.1436 -0.2228
10611W        W26795   9.290   3.433   2.477 -0.1720 -0.2567  0.2219
10612W        W26796   6.070  13.816  16.213 -0.1586  0.3218  0.3013
10613W        W26797   6.200   8.261   2.532 -0.1509  0.3561  0.0941
10614W        W26798   8.653   4.676   2.359  0.1218 -0.1418 -0.2463
10615W        W26799   8.205   1.516   5.551  0.0327 -0.3129  0.1892
10616W        W26800   7.540  16.107  15.535 -0.0173  0.1174  0.1014
10617W        W26801   2.813  10.913   5.367 -0.1328  0.3721  0.3196
10618W        W26802   8.373   8.528   3.602  0.0491 -0.0989  0.1588
10619W        W26803  15.894   1.323   1.406  0.0295 -0.0442 -0.2206
10620W        W26804   6.378   9.590   2.396  0.0592 -0.1721  0.3162
10621W        W26805  15.462   9.230  15.311  0.1178 -0.1847 -0.1238
10622W        W26806  15.086   4.580  10.644  0.0792  0.1911 -0.2159
10623W        W26807   2.822   2.427   1.292 -0.1242 -0.2345  0.1864
10624W        W26808  13.687  14.128   0.393  0.1516  0.1896 -0.0505
10625W        W26809  16.025   7.862   0.329  0.1838 -0.1501 -0.4241
10626W        W26810   0.716   8.065   0.418 -0.1988 -0.0854  0.0637
10627W        W26811   9.170  17.997   0.370 -0.0545 -0.1929 -0.1381
10628W        W26812  15.131   9.813  12.064 -0.0065 -0.2109 -0.1415
10629W        W26813  12.389   4.210  16.132  0.1228 -0.3935 -0.0731
10630W        W26814  13.717  14.612  14.022 -0.2693  0.0504  0.2822
10631W        W26815  14.418   5.037   1.624 -0.1017  0.0794  0.1287
10632W        W26816   6.664   2.630  15.630 -0.1810  0.0166 -0.0429
10633W        W26817   4.698  10.075  14.354  0.4463 -0.1491 -0.1218
10634W        W26818   1.066   1.320   3.183  0.1629  0.0685 -0.0067
10635W        W26819   7.322   3.541  16.623 -0.0196 -0.1741  0.0664
10636W        W26820  16.150   8.879   2.887  0.1254 -0.0084 -0.0726
10637W        W26821  17.674  16.060   2.395 -0.0636 -0.0323  0.3970
10638W        W26822   8.940   2.548   4.945  0.0209 -0.1016  0.1262
10639W        W26823   2.873   6.454   5.230  0.0212  0.2308 -0.0388
10640W        W26824   1.920   1.576  11.602  0.2804 -0.0832  0.0860
10641W        W26825  16.372   6.689  10.776 -0.0215  0.0015  0.2964
10642W        W26826   6.371  10.380   3.196  0.0289  0.1565  0.2389
10643W        W26827   9.270   9.758  16.055  0.0474  0.1571 -0.0997
10644W        W26828  14.055  11.012   3.164  0.4926  0.1731  0.2341
10645W        W26829  13.445   9.548   2.748  0.2744 -0.1199  0.0207
10646W        W26830  10.956  17.306  15.219  0.3610 -0.1423 -0.1904
10647W        W26831  16.305   1.535   0.265 -0.1959 -0.1453  0.3673
10648W        W26832  16.287   9.042  16.297 -0.0244  0.1481 -0.2305
10649W        W26833   3.226  14.657   0.836  0.3511 -0.2296 -0.3063
10650W        W26834   2.644   1.601   1.215  0.1876  0.1411 -0.0513
10651W        W26835  17.645   8.660  11.854  0.1147 -0.3906 -0.0711
10652W        W26836   4.586  16.980   0.640  0.0771 -0.3102 -0.0297
10653W        W26837   7.411  16.742   5.380 -0.2034 -0.0585 -0.2726
10654W        W26838   0.239  16.871   0.517 -0.0584 -0.1861 -0.1562
10655W        W26839  11.791  13.151   1.799  0.1773  0.0122  0.2944
10656W        W26840   6.260   6.830   3.690  0.1413  0.0897  0.4575
10657W        W26841  11.340   1.910  13.499 -0.3395  0.2253  0.1199
10658W        W26842   3.417   8.829  13.611  0.1826 -0.1303 -0.0168
10659W        W26843   9.397   6.227  16.385 -0.1095  0.2619  0.1752
10660W        W26844  11.868   0.779   0.679 -0.1052  0.1539  0.0686
10661W        W26845   6.090  15.768   6.475 -0.0768  0.1920 -0.0364
10662W        W26846  12.730   5.207   0.813 -0.1498  0.0660  0.1480
10663W        W26847   9.789   4.702  15.581 -0.1866 -0.0004  0.0686
10664W        W26848  17.686   0.678  10.824  0.1676 -0.0189 -0.0649
10665W        W26849  10.837  13.903   4.790 -0.2447  0.2667 -0.1162
10666W        W26850   6.436   1.634   4.397  0.3770 -0.0161  0.0172
10667W        W26851   1.708  17.598  11.932 -0.4042  0.0491  0.1117
10668W        W26852   9.088   8.085   1.890  0.0476 -0.3946 -0.4530
10669W        W26853  10.598   8.906   1.919  0.0085 -0.0276 -0.3562
10670W        W26854  14.960  10.437  13.172 -0.0851  0.0200 -0.0400
10671W        W26855   5.172  13.866  16.351  0.0858 -0.6402 -0.2220
10672W        W26856   1.270   7.479   2.814 -0.0827 -0.1423  0.1752
10673W        W26857  10.771   3.877   3.168 -0.0969  0.2657  0.0583
10674W        W26858   1.384   5.543   3.620 -0.1036 -0.2459 -0.0670
10675W        W26859   9.722  15.228   5.243  0.1531  0.2114  0.0102
10676W        W26860   0.593   9.459  12.554 -0.2833 -0.0148 -0.0349
10677W        W26861   3.240   7.027  12.232 -0.1951  0.2111 -0.1171
10678W        W26862  13.015  14.983   3.542  0.2342  0.0495  0.1765
10679W        W26863   2.196  14.684   2.569 -0.0589 -0.0452  0.0145
10680W        W26864   3.033  10.196  15.340  0.2218  0.1549  0.0557
10681W        W26865  17.660  17.598   5.397 -0.1207  0.0759  0.0193
10682W        W26866  15.815  16.948  14.249  0.1858 -0.4029 -0.1068
10683W        W26867   0.657   6.830   0.319 -0.3252  0.3536  0.0900
10684W        W26868   4.879  11.439   2.648  0.0197 -0.0781 -0.1220
10685W        W26869   5.734   8.568  11.908  0.2194  0.2995 -0.0463
10686W        W26870   6.215   0.498  12.370  0.1411 -0.0638 -0.0930
10687W        W26871   5.399  15.002   3.297  0.1013 -0.1266 -0.2188
10688W        W26872  10.897  13.840   1.411 -0.0360  0.0931  0.0972
10689W        W26873  10.512   2.082  15.222  0.3216 -0.2136 -0.2055
10690W        W26874   2.397  15.457   5.709 -0.0129 -0.5092 -0.2379
10691W        W26875  15.016   2.977  15.957 -0.0858 -0.2083  0.1123
10692W        W26876   5.767   1.819  13.093 -0.0137  0.1122 -0.0943
10693W        W26877  10.423  12.249  13.241  0.0827 -0.0704  0.1345
10694W        W26878   5.460   3.343  16.602  0.2106  0.0465 -0.2544
10695W        W26879   6.555  12.606  13.979  0.0457 -0.2144  0.0468
10696W        W26880  16.494   0.686   3.638  0.2826  0.2078  0.0657
10697W        W26881  10.742  16.337   1.146  0.0669 -0.0185 -0.1863
10698W        W26882   0.866  16.445   3.326  0.0547  0.1717  0.0036
10699W        W26883   3.731   7.002   3.199  0.0692 -0.1073 -0.1133
10700W        W26884   8.010   4.194   0.307 -0.1654 -0.0338  0.1183
10701W        W26885  15.341   9.839  13.991  0.1508 -0.3000 -0.1223
10702W        W26886  12.205   8.749  15.083  0.2105  0.3169  0.0437
10703W        W26887  17.514  12.744  13.314 -0.0116 -0.0550  0.1042
10704W        W26888   8.745  14.554  15.634 -0.0253 -0.0415  0.1160
10705W        W26889  12.488   9.433  15.006  0.2865  0.1782  0.1365
10706W        W26890  17.395  10.417   3.540  0.3262  0.1056  0.0538
10707W        W26891  12.509  14.385   3.580 -0.2046  0.0165  0.1557
10708W        W26892   1.283  17.787   0.225 -0.2481  0.0231  0.1220
10709W        W26893   1.489  15.484   5.463 -0.2230  0.1846  0.0207
10710W        W26894   8.908   9.854  12.847 -0.2726 -0.1848  0.2010
10711W        W26895   3.835   1.062   4.074 -0.0556  0.3008  0.0666
10712W        W26896  17.954   4.044   2.087 -0.1779  0.4528  0.0997
10713W        W26897  16.205  15.871  12.259 -0.0522  0.2346 -0.0634
10714W        W26898   0.111  10.182   5.164  0.0553  0.1489  0.2799
10715W        W26899   3.486   6.593  12.351 -0.2547  0.1945  0.0622
10716W        W26900   8.880  17.316   5.200 -0.5066  0.0502  0.1278
10717W        W26901   0.141   9.092   1.543  0.3871 -0.2226  0.4538
10718W        W26902  11.568   9.340   3.371 -0.0364 -0.0596 -0.2183
10719W        W26903   6.751   8.859   0.722 -0.1156 -0.3511  0.0348
10720W        W26904   6.008  12.158  11.940 -0.1259  0.2614 -0.0551
10721W        W26905   1.766  12.701   4.258 -0.0965 -0.3139  0.2034
10722W        W26906  16.414   2.393  10.525  0.1608  0.2697  0.1600
10723W        W26907   5.207   6.928   5.095  0.1615 -0.2929 -0.1651
10724W        W26908  16.952   9.064   2.308 -0.1111  0.0877  0.4745
10725W        W26909   7.466   9.766   1.657 -0.3742  0.2070  0.0304
10726W        W26910   1.660  15.354  14.053  0.0195  0.0473 -0.2943
10727W        W26911  14.077  16.740  13.184  0.1493 -0.0947 -0.4054
10728W        W26912   6.685  16.805  14.605 -0.0114  0.0303 -0.2962
10729W        W26913  17.405   8.416  13.458  0.1902 -0.2502 -0.0727
10730W        W26914   3.988   9.851   4.053  0.0489  0.0162  0.0839
10731W        W26915   4.052   8.753  13.465  0.0835  0.0312 -0.1573
10732W        W26916  14.801  13.863  15.502 -0.2992  0.1604  0.2375
10733W        W26917  16.037   3.227  15.927  0.0614  0.0475 -0.4492
10734W        W26918  15.447  14.394   6.205  0.0813 -0.0958  0.0623
10735W        W26919   1.610  14.932   5.138  0.1187  0.0830  0.1108
10736W        W26920   7.283   0.632   1.451  0.0269  0.2266 -0.2353
10737W        W26921  16.942   9.099  11.652  0.1118  0.2143 -0.1877
10738W        W26922   1.983   5.258  16.501 -0.1044 -0.0291 -0.0694
10739W        W26923  16.229  17.222  11.618 -0.0212 -0.0684 -0.2048
10740W        W26924  15.120  17.900   5.994 -0.1347  0.1592  0.0436
10741W        W26925   0.266   3.274  10.923 -0.0062 -0.1637 -0.1088
10742W        W26926   4.448  15.793   5.075 -0.0420  0.0271  0.1403
10743W        W26927  10.549   7.706   0.949 -0.0244  0.2608 -0.1024
10744W        W26928  15.622  16.451   4.263 -0.0459 -0.0873 -0.0236
10745W        W26929   1.396  15.887   2.066  0.1869  0.0915  0.3234
10746W        W26930   4.665   3.613  14.920 -0.0505  0.2672  0.2845
10747W        W26931   9.359   2.695  14.487 -0.0198 -0.2142 -0.0359
10748W        W26932   0.536   7.401  16.152  0.0332  0.0137  0.3273
10749W        W26933   7.317   7.150  14.532 -0.2761 -0.1693 -0.2654
10750W        W26934  15.903  12.576   6.188  0.1252  0.4736 -0.1141
10751W        W26935   6.323   7.450  15.342  0.1015  0.1696 -0.0938
10752W        W26936  16.501  11.287   2.829  0.3914  0.1180  0.2531
10753W        W26937   2.447   1.159   1.004 -0.5402  0.1595  0.2912
10754W        W26938   0.483  17.371   0.573  0.0865 -0.1917 -0.3180
10755W        W26939  11.634  17.940  12.739 -0.0568  0.4794 -0.2587
10756W        W26940   0.835  12.940   4.752  0.2116  0.2634 -0.0113
10757W        W26941  17.169   7.302  13.542  0.0388 -0.3053 -0.6680
10758W        W26942  15.059  11.642   4.850  0.2365  0.2367 -0.4123
10759W        W26943   6.901  14.250  15.836 -0.0712  0.0282 -0.1682
10760W        W26944   5.097  11.663  13.569  0.1239 -0.0328 -0.1726
10761W        W26945  11.499   2.216   5.058  0.2480 -0.2312 -0.0522
10762W        W26946   4.514  15.632   1.377 -0.2219  0.4270  0.1680
10763W        W26947   2.442   9.493   0.955 -0.0335  0.1584 -0.0431
10764W        W26948   3.838  14.184   4.702 -0.1491 -0.0145  0.1124
10765W        W26949   1.936  17.283   5.310 -0.0080 -0.1272  0.2027
10766W        W26950   5.890   4.454  11.638 -0.1918 -0.1366  0.1420
10767W        W26951  17.482  11.570  11.741  0.0231 -0.1446  0.1894
10768W        W26952   8.151  14.217   4.967  0.1238 -0.0286  0.1907
10769W        W26953  12.594  13.793  14.400  0.0339 -0.1105  0.0577
10770W        W26954  12.964  13.488   5.238 -0.1025  0.2910  0.4048
10771W        W26955   2.957   0.965  16.355  0.1476 -0.2183  0.0432
10772W        W26956   0.121  16.999   2.201 -0.1397  0.0378 -0.1151
10773W        W26957   1.118   9.659   3.244  0.1745 -0.0762  0.2172
10774W        W26958  18.065   9.662  12.045 -0.0943  0.0819  0.1547
10775W        W26959   7.944  16.462  14.083 -0.2949 -0.0426  0.0967
10776W        W26960   2.265  11.724  12.511  0.2889 -0.3394  0.1645
10777W        W26961   2.976   0.594  12.522  0.0338  0.1586  0.4879
10778W        W26962   4.291   5.342  14.464  0.1449 -0.0414 -0.0637
10779W        W26963   6.445   5.102   2.904 -0.1352  0.3136 -0.1368
10780W        W26964   2.302  11.129   6.434 -0.0227  0.1696  0.3239
10781W        W26965  15.166  13.449   3.997 -0.0288  0.4839 -0.0942
10782W        W26966   8.193  16.647  13.150 -0.2952  0.0468 -0.2718
10783W        W26967  16.765  15.003  13.092  0.0087  0.0781 -0.1647
10784W        W26968   1.436   4.261   1.686  0.1499 -0.0067  0.1611
10785W        W26969  16.314  10.522   2.137 -0.1018  0.3394  0.0342
10786W        W26970  17.588   2.721   4.044 -0.4678 -0.2024 -0.0258
10787W        W26971   6.646   1.529  12.494  0.0050  0.0001  0.2193
10788W        W26972   0.873   6.126   5.190 -0.1247  0.2396 -0.1158
10789W        W26973   9.021   4.928  11.833  0.0732  0.0422 -0.0660
10790W        W26974  11.032  16.169   5.186  0.0860  0.1136 -0.0244
10791W        W26975   7.183  17.601  13.634 -0.1424 -0.0696  0.2590
10792W        W26976   7.068   2.325  15.415  0.1675 -0.0129  0.1934
10793W        W26977   6.807  10.933  14.203 -0.0099 -0.1813 -0.1539
10794W        W26978   2.233  12.170   4.072 -0.0943  0.1749 -0.0902
10795W        W26979   1.068   9.450  13.441  0.0191 -0.3149  0.1028
10796W        W26980   3.530   8.295  13.589 -0.0687  0.2422 -0.0033
10797W        W26981   2.983   2.291  15.275  0.0561 -0.2979  0.3022
10798W        W26982  10.032  15.757  12.676  0.3418 -0.4293  0.1466
10799W        W26983   1.957   7.753   0.604  0.2216 -0.2399 -0.0574
10800W        W26984   5.502  17.974  16.677  0.0598 -0.4219 -0.0731
10801W        W26985  12.905   2.571   2.791  0.1122 -0.1545  0.3290
10802W        W26986  14.301  11.419   0.200 -0.3277  0.3659 -0.2378
10803W        W26987   7.241   9.122   1.354  0.0800  0.3345 -0.2557
10804W        W26988  13.256  16.064   4.110 -0.2266  0.1312  0.2436
10805W        W26989   6.557  12.225  12.537 -0.1618 -0.0357  0.2807
10806W        W26990  17.933   3.066  13.370 -0.0929 -0.2383 -0.2257
10807W        W26991   5.946   2.155   1.444  0.1017 -0.2268  0.1759
10808W        W26992   1.396   1.010  13.662  0.1724  0.3576  0.0328
10809W        W26993   0.648   7.162   1.749 -0.3838  0.3678 -0.0826
10810W        W26994  11.300   1.949   4.582 -0.1512  0.1747 -0.0630
10811W        W26995   3.713   7.904   4.873  0.3162  0.1974  0.0499
10812W        W26996   8.463   9.462   4.584  0.1513 -0.1483 -0.0127
10813W        W26997  10.348   8.732  12.152 -0.1394 -0.0263  0.0773
10814W        W26998   0.222   6.417   4.582 -0.3463  0.4979  0.2783
10815W        W26999   7.316  16.108  14.546  0.1720 -0.0659 -0.0571
10816W        W27000  12.850  17.951  13.872 -0.3345 -0.0524  0.0735
10817W        W27001   6.558   2.190   4.367  0.3168  0.0387 -0.0491
10818W        W27002  17.753   6.094   3.101  0.1496  0.0343  0.5694
10819W        W27003  10.948  15.799   0.359 -0.2775 -0.2264  0.1863
10820W        W27004   9.307   4.351  14.266  0.1218  0.1968  0.0298
10821W        W27005  14.476   3.685  14.771 -0.1048 -0.2019 -0.2879
10822W        W27006  15.866   3.399   0.193  0.2432 -0.0309 -0.3798
10823W        W27007  10.154   6.351   4.493  0.1621 -0.0020 -0.0099
10824W        W27008   5.427   1.252   0.376 -0.1622  0.0226 -0.0547
10825W        W27009  14.128  18.045  12.979  0.0315 -0.0529  0.2012
10826W        W27010   2.526   2.380  11.304 -0.3728 -0.1374  0.0424
10827W        W27011   1.428   9.854  14.146 -0.2277  0.2403  0.1227
10828W        W27012  16.952   0.746   2.886  0.3337  0.3012  0.1691
10829W        W27013  11.954   4.230  11.741 -0.3523  0.0668 -0.0385
10830W        W27014  11.505  15.066   2.005 -0.0562  0.1143  0.0550
10831W        W27015   3.377  13.677  13.484  0.1056 -0.0450 -0.2523
10832W        W27016  10.119   2.857   2.497 -0.2209 -0.2669  0.0524
10833W        W27017  13.736  10.167  13.019 -0.0564  0.1711  0.3135
10834W        W27018  15.646   0.175  13.740 -0.3589 -0.1867  0.0201
10835W        W27019   7.427  10.136  14.750 -0.1668  0.2009  0.2171
10836W        W27020  11.355  14.637   5.531  0.0509 -0.2162 -0.0771
10837W        W27021  16.052  16.296   0.957 -0.1750 -0.0744  0.0227
10838W        W27022   6.337  11.584  13.743 -0.3265  0.0441 -0.3254
10839W        W27023   7.880   6.985   3.910 -0.3558  0.0003  0.1120
10840W        W27024  10.115   7.592  11.409 -0.0983  0.0448  0.0261
10841W        W27025  15.529   9.395  12.170 -0.1175 -0.3043  0.2310
10842W        W27026  16.216   2.506   2.135  0.0560 -0.0242 -0.3516
10843W        W27027  15.265   6.763   3.670  0.0052 -0.0803  0.0795
10844W        W27028  14.058  11.751   2.135  0.1447 -0.1531 -0.0856
10845W        W27029  13.105  10.033  16.467  0.0502 -0.3422 -0.1257
10846W        W27030  16.286  17.342  10.259  0.0351 -0.0685 -0.0808
10847W        W27031   1.216   2.896   1.130 -0.1584 -0.1267  0.1392
10848W        W27032   4.830   4.915   4.430 -0.0831 -0.1656  0.1346
10849W        W27033   3.737   6.681   4.084 -0.3421  0.0336 -0.1808
10850W        W27034   0.212  11.281   2.762 -0.0717  0.0688 -0.1821
10851W        W27035   1.167   9.106   5.266  0.0373  0.1603  0.0852
10852W        W27036   1.708   1.622   4.037 -0.2031  0.2311 -0.1482
10853W        W27037  16.931   1.807  14.352 -0.1547 -0.1332  0.5148
10854W        W27038   5.786   6.929  11.208 -0.0886  0.2675 -0.0865
10855W        W27039   1.574   3.851   5.651 -0.0455 -0.2677  0.1347
10856W        W27040   2.182   1.554  16.226 -0.0709  0.3003 -0.1863
10857W        W27041  14.314   4.038   4.006  0.0533  0.2152 -0.2324
10858W        W27042  11.639   6.983   3.031 -0.0993  0.0798  0.1367
10859W        W27043   9.600  15.899   2.493  0.1265  0.1910  0.2456
10860W        W27044  15.364   9.975  13.407  0.0155  0.0176  0.1834
10861W        W27045   4.445  11.315  16.167 -0.2383  0.0150 -0.1664
10862W        W27046  10.725  12.414   1.464  0.1566  0.1269  0.3151
10863W        W27047   4.705  16.986   5.584  0.2337 -0.0458 -0.0806
10864W        W27048   0.978  16.836  13.570 -0.1642 -0.3231 -0.1576
10865W        W27049   5.140   1.806   1.724  0.2465  0.0581 -0.0747
10866W        W27050  11.641   3.171   4.353  0.0744  0.0098 -0.2354
10867W        W27051  17.637   6.683   3.221  0.2084 -0.2455  0.1529
10868W        W27052  17.091   4.094   3.142  0.0966  0.0041 -0.1980
10869W        W27053  10.905   6.588  12.099 -0.1023  0.0433 -0.1804
10870W        W27054   1.850  18.126  14.321 -0.2204  0.0697 -0.1420
10871W        W27055   7.922  11.642  15.488 -0.0680  0.2169  0.1870
10872W        W27056   3.395   0.911  14.753  0.2227  0.4237  0.0655
10873W        W27057  17.776   7.073   3.617 -0.2402 -0.1783 -0.1032
10874W        W27058   2.619  16.525   2.527  0.1782 -0.1525 -0.2370
10875W        W27059  13.615  10.180  13.866  0.2985  0.1770  0.1157
10876W        W27060  16.055   1.787   2.264  0.1152 -0.0596 -0.1136
10877W        W27061   6.892  15.435   1.807  0.2598 -0.1514  0.2750
10878W        W27062  16.382   9.464   6.037 -0.2704  0.0665 -0.0825
10879W        W27063  11.657   2.312   6.174  0.3945 -0.0554 -0.0105
10880W        W27064   0.060  16.641   5.408 -0.2595 -0.1253  0.1078
10881W        W27065   9.771   2.034  16.160 -0.0448 -0.0127  0.0796
10882W        W27066   8.360   9.689  15.954  0.2550  0.1484  0.0698
10883W        W27067   9.696  10.974   0.464  0.0538  0.0640 -0.2740
10884W        W27068   4.058   0.008  12.916  0.0467 -0.0228 -0.0431
10885W        W27069   6.845   6.877  15.724  0.1317 -0.2786 -0.1982
10886W        W27070  17.525  12.063  14.653  0.2276  0.3070  0.5769
10887W        W27071   8.714  13.544  16.472 -0.0003  0.0979 -0.4217
10888W        W27072   5.117   4.694  13.413 -0.2830 -0.1639 -0.0923
10889W        W27073   7.178  11.043   2.206 -0.1699 -0.1337 -0.0216
10890W        W27074   0.952   5.970   2.859  0.0499 -0.2189  0.1924
10891W        W27075  14.800   0.797   5.241 -0.0360 -0.1857 -0.1147
10892W        W27076   5.228  11.241   0.656  0.2604 -0.5094 -0.1162
10893W        W27077   5.172   6.698  15.425 -0.1182  0.0255  0.1163
10894W        W27078  10.412  14.113   2.230  0.2429  0.0427 -0.0429
10895W        W27079  13.001   6.707   4.041 -0.1200  0.3512  0.0515
10896W        W27080  10.390  14.107   1.301 -0.0478 -0.1691 -0.1430
10897W        W27081  17.881  14.333   3.179 -0.2884  0.2237  0.1574
10898W        W27082   0.705   9.622  16.311  0.2204 -0.0541  0.2905
10899W        W27083  10.205   7.603  16.252  0.1777 -0.0467  0.2603
10900W        W27084  10.150  11.462  12.135  0.0302  0.2511 -0.0232
10901W        W27085  12.992  12.086   2.809 -0.2994 -0.1393 -0.1882
10902W        W27086   7.565  12.871   0.289 -0.1384  0.0063 -0.1551
10903W        W27087  11.146   5.952   5.592 -0.1051  0.0245 -0.0096
10904W        W27088   2.438   9.607  12.547 -0.1228 -0.2133  0.1160
10905W        W27089   8.617  14.302  11.704 -0.0211  0.5075 -0.0486
10906W        W27090   5.704  18.065   1.174  0.2247 -0.3465 -0.1781
10907W        W27091   2.531   8.299  15.924  0.3159 -0.0188  0.0843
10908W        W27092   9.517   6.612   3.366 -0.1889 -0.0544 -0.1447
10909W        W27093   8.251  13.751  15.676  0.0108 -0.5437 -0.0894
10910W        W27094  16.603   5.572   4.304 -0.2670  0.0469 -0.2018
10911W        W27095  10.319   6.214  14.318  0.1697 -0.0847  0.1185
10912W        W27096  15.384  14.424   4.209  0.0658  0.2978 -0.0717
10913W        W27097  13.512  12.019   2.843  0.2337  0.1281  0.3280
10914W        W27098   9.543   7.250   3.003  0.1050 -0.2383 -0.3091
10915W        W27099   5.548   8.868  13.337 -0.0530  0.0585  0.2273
10916W        W27100   0.636   1.282   2.793 -0.0132  0.2815  0.0959
10917W        W27101  13.518   0.629   2.768 -0.3283 -0.1415 -0.2830
10918W        W27102   9.651  13.580  12.973 -0.1707  0.1750 -0.0492
10919W        W27103   8.574   7.949   1.091  0.1388 -0.0988 -0.0130
10920W        W27104   1.991  11.327   4.315 -0.0951  0.1587 -0.1803
10921W        W27105  15.615  14.537  15.391  0.2387  0.1453 -0.2991
10922W        W27106   9.336   5.904  14.683 -0.0117 -0.1943 -0.0792
10923W        W27107  17.238  12.364   5.934 -0.2091  0.0737  0.4319
10924W        W27108  14.395  13.320   0.090  0.3660 -0.0312  0.1590
10925W        W27109   7.985  16.624  12.332  0.0618  0.0613 -0.3705
10926W        W27110  15.603   4.879   2.230 -0.0074 -0.0571  0.1173
10927W        W27111  15.887  10.627   0.671 -0.1618 -0.0332  0.0767
10928W        W27112   5.566  12.600   2.846 -0.3861 -0.2337  0.0737
10929W        W27113  17.793  14.558   3.888 -0.0524  0.1810 -0.0806
10930W        W27114  12.999   6.422  11.376  0.1903 -0.2922  0.1013
10931W        W27115   3.075  17.121  15.545 -0.1726 -0.2038 -0.1930
10932W        W27116  15.497   1.118   2.627 -0.1662  0.1148 -0.0247
10933W        W27117  14.087   9.645   0.882 -0.3665  0.0636 -0.0384
10934W        W27118   8.649  17.250   3.689 -0.0859  0.0163 -0.0139
10935W        W27119  12.193  14.082  14.214  0.1638 -0.1105 -0.3285
10936W        W27120  18.042   6.070   1.557  0.3295  0.1352 -0.2009
10937W        W27121  13.053  14.377   1.858 -0.1325 -0.0721 -0.0702
10938W        W27122   2.006  16.364   1.631 -0.0932 -0.4598 -0.0917
10939W        W27123  16.175   9.647  12.864 -0.0602 -0.0701 -0.2275
10940W        W27124  14.382  10.511   3.455 -0.1219 -0.2938  0.0908
10941W        W27125   2.979   1.808   4.572  0.0716  0.2698 -0.0112
10942W        W27126  17.425  13.640   1.703  0.3523  0.2006 -0.0888
10943W        W27127   9.012   2.356   4.008  0.0151  0.2655 -0.1290
10944W        W27128  14.065  14.159   1.911  0.2476 -0.3911 -0.0199
10945W        W27129  11.455   1.307  14.713  0.0133 -0.4435  0.3709
10946W        W27130   7.432  13.772   5.165 -0.4433 -0.0573 -0.1387
10947W        W27131   2.725   6.327  15.069  0.3102 -0.0851 -0.0421
10948W        W27132   5.170   5.059   0.705 -0.2669  0.3149 -0.2643
10949W        W27133   4.127  16.525   3.611  0.1134  0.1476  0.0237
10950W        W27134   7.126   6.848  12.334  0.1299 -0.2857 -0.2636
10951W        W27135   7.291  11.819   0.572  0.3293  0.1473 -0.0804
10952W        W27136   8.770   5.849   1.799 -0.3744  0.0484 -0.1678
10953W        W27137   1.505  12.067  13.752 -0.2055 -0.1050 -0.1320
10954W        W27138  14.723   8.734  16.097  0.0769  0.0954  0.1182
10955W        W27139  17.286  10.927   3.872 -0.0407 -0.0837 -0.0599
10956W        W27140  14.936  10.306   0.666  0.2158  0.2719 -0.3331
10957W        W27141   1.163  17.318  14.363  0.0738 -0.2086  0.1773
10958W        W27142   0.769   5.515  13.432 -0.0863  0.0754  0.0095
10959W        W27143   3.778   4.597   0.520  0.0393 -0.1513 -0.4644
10960W        W27144  16.708  14.622  14.003 -0.0810  0.1380  0.1014
10961W        W27145   3.929   0.366   4.840  0.1263 -0.3941  0.0780
10962W        W27146   8.583  14.837   5.736 -0.1141 -0.1701  0.0116
10963W        W27147   3.487  17.091  13.026 -0.0259 -0.1495  0.0526
10964W        W27148   9.493   1.815   4.768  0.1194 -0.0240  0.2906
10965W        W27149  15.689   6.547  11.312  0.3350 -0.0940 -0.0697
10966W        W27150   0.992   7.650  13.318 -0.0614  0.0600  0.1561
10967W        W27151  15.334   9.506  13.174 -0.1116 -0.2256  0.0583
10968W        W27152  13.448  14.951   5.221 -0.4081 -0.0269 -0.2814
10969W        W27153   9.348  14.526   1.687  0.6550  0.0362  0.1423
10970W        W27154  11.160  16.623   0.265 -0.0244 -0.0017  0.1449
10971W        W27155   4.038  15.990   3.688  0.0483 -0.0323  0.3269
10972W        W27156   6.874  16.355  14.387  0.0399 -0.1602  0.2394
10973W        W27157   7.851   6.482   2.876  0.2533 -0.0347  0.0296
10974W        W27158   4.089  17.891  12.524 -0.2182  0.0126  0.4140
10975W        W27159   7.251   4.683   2.791 -0.0103  0.2398  0.4636
10976W        W27160   8.015  16.523   4.059  0.1320 -0.2471 -0.3866
10977W        W27161   1.067   8.898  13.167 -0.1116 -0.0788  0.1458
10978W        W27162  12.294   4.556   3.001 -0.1017  0.1858 -0.2965
10979W        W27163  15.860  14.439  13.277  0.1494 -0.3431  0.0453
10980W        W27164   8.572   3.528  13.177  0.0267 -0.1719  0.0044
10981W        W27165  12.980  10.053  15.114 -0.1316 -0.0619  0.2056
10982W        W27166   9.764   7.366   6.258 -0.0953 -0.2095 -0.1582
10983W        W27167   2.901   7.272  14.957  0.2225  0.6497 -0.1820
10984W        W27168   7.119   6.460   0.266 -0.3029  0.1397 -0.1788
10985W        W27169   2.899   2.521  14.336 -0.3426 -0.1892  0.0276
10986W        W27170  14.070  12.908   0.201 -0.2390 -0.0633  0.2900
10987W        W27171  16.569  12.331  13.561 -0.1398 -0.1070 -0.0184
10988W        W27172   1.693   2.560   3.126 -0.2297 -0.0096 -0.0559
10989W        W27173   0.040  11.485  14.537 -0.0254 -0.2952 -0.2057
10990W        W27174   2.967   8.169   2.066 -0.0264 -0.0332  0.0488
10991W        W27175   9.709   5.509  12.465  0.2025 -0.2722  0.1816
10992W        W27176   3.585   2.670   2.261 -0.2189 -0.1643  0.0381
10993W        W27177   2.419   2.688   1.550 -0.1260  0.0292 -0.0677
10994W        W27178  12.268   5.441  11.964  0.0840 -0.2230  0.0140
10995W        W27179   4.935  11.246  15.404  0.0872  0.2249 -0.0041
10996W        W27180  13.740  12.054  14.800 -0.4422 -0.1407  0.2160
10997W        W27181  15.675  15.850  11.381  0.0996 -0.0375 -0.0284
10998W        W27182   6.060   7.424  14.378  0.0950  0.0809 -0.0903
10999W        W27183   6.976   2.916   2.819  0.0635 -0.2855  0.0168
11000W        W27184  12.528  16.503  15.638  0.1260 -0.1695 -0.0209
11001W        W27185   1.002   6.204  13.098 -0.0838 -0.3852 -0.0654
11002W        W27186   6.549  11.165   3.095 -0.1176  0.0160  0.3656
11003W        W27187  17.573   1.377   3.460 -0.1637  0.0917 -0.0197
11004W        W27188  13.219   7.103  14.734 -0.0106  0.2872 -0.1433
11005W        W27189   5.448  15.877   4.365 -0.0743  0.0906  0.0136
11006W        W27190  16.926   8.826  15.279  0.0900  0.2163  0.0914
11007W        W27191   8.830  17.158   2.191  0.2261 -0.1586 -0.4091
11008W        W27192   6.674   7.497   6.724 -0.0486  0.2516 -0.0473
11009W        W27193   7.077   6.439  15.220 -0.0524 -0.0642  0.0390
11010W        W27194  12.505  11.963   3.890 -0.1919 -0.0480  0.0089
11011W        W27195   7.905   6.075   2.044 -0.1861  0.0011 -0.0359
11012W        W27196   9.884   2.476  11.512 -0.2183  0.0302  0.2286
11013W        W27197  11.501   6.118  11.409 -0.0059  0.1156  0.1654
11014W        W27198  17.936   5.983  13.379  0.1888  0.0948 -0.1450
11015W        W27199   0.832  11.325   1.947  0.1364 -0.0409  0.0699
11016W        W27200   5.263  12.813   0.783  0.0305 -0.2023 -0.1138
11017W        W27201   3.908  17.509   4.451 -0.0625  0.3475 -0.1309
11018W        W27202  14.340   3.519  11.025 -0.2811 -0.3258 -0.0986
11019W        W27203   6.938   7.300   0.674  0.1356  0.4219 -0.0614
11020W        W27204   0.731   6.257   4.669  0.0930  0.1957 -0.2044
11021W        W27205   2.180   0.223   1.359  0.0252  0.3223  0.1878
11022W        W27206   7.107   1.893  16.254 -0.1530 -0.1900  0.0993
11023W        W27207  12.185  17.703  14.155  0.1633 -0.0361 -0.3208
11024W        W27208  13.138   3.080  10.437  0.4021 -0.0488  0.1045
11025W        W27209   7.342  13.889  12.647 -0.0210 -0.0163 -0.3690
11026W        W27210  14.386   4.230   1.931  0.3701 -0.2158  0.3106
11027W        W27211   8.399   1.248   3.879 -0.0917  0.1922  0.1533
11028W        W27212  11.317   6.068  12.551 -0.0204 -0.1932  0.0500
11029W        W27213   9.444   1.697  13.426 -0.0803  0.0937 -0.0960
11030W        W27214   2.250  10.219  14.079  0.1737 -0.3176 -0.1530
11031W        W27215   7.683   4.796  16.179  0.1725 -0.0299  0.2292
11032W        W27216   8.074   9.711   5.520  0.1524  0.1294  0.1720
11033W        W27217  17.672   1.146   2.911  0.0454 -0.0475  0.3856
11034W        W27218  10.958   2.663   2.475  0.0558 -0.0264  0.1498
11035W        W27219   7.430   6.575   4.981 -0.1806  0.1628  0.1169
11036W        W27220  15.173   7.326  16.242  0.0066 -0.1351 -0.1451
11037W        W27221  12.166  11.680   5.153  0.0858  0.1607 -0.3968
11038W        W27222   5.306   8.720   4.441 -0.2621 -0.0779 -0.2269
11039W        W27223  15.908  12.763  16.246 -0.2918  0.1144  0.1369
11040W        W27224  12.165   8.356   4.302 -0.2033 -0.2711 -0.0815
11041W        W27225   7.917  12.482   0.172 -0.4089 -0.2120 -0.1744
11042W        W27226   5.418   0.680  13.112 -0.3034  0.0026 -0.3187
11043W        W27227  11.220  17.315   3.177  0.0160 -0.0648 -0.2165
11044W        W27228  12.925  13.951  15.725 -0.0852  0.0882 -0.0427
11045W        W27229  16.590   6.065   4.488  0.0565  0.0447 -0.1674
11046W        W27230   7.074   6.311  16.456  0.0495  0.0568  0.0326
11047W        W27231   4.012   3.049   3.481  0.0772 -0.2330 -0.0211
11048W        W27232   1.121  10.332   1.557 -0.1957  0.0068 -0.1885
11049W        W27233   9.589   7.190   3.589 -0.3731  0.1134 -0.1281
11050W        W27234  14.601  16.723  12.017  0.2666  0.0296  0.0876
11051W        W27235   6.685   3.661   4.216 -0.1125  0.0171 -0.0669
11052W        W27236   4.637  13.456   5.665  0.0266 -0.0539  0.1439
11053W        W27237   2.996   6.033  15.396  0.0364  0.2464 -0.1489
11054W        W27238   8.604  11.954  13.027 -0.4183  0.2010  0.1799
11055W        W27239  13.194   1.866   5.959 -0.1134  0.0684 -0.1369
11056W        W27240  10.935   2.119   5.034  0.4521 -0.2232  0.0192
11057W        W27241  14.310   5.234   3.977 -0.1162  0.0726  0.1047
11058W        W27242  15.035   4.181  13.261 -0.1248  0.0368  0.0468
11059W        W27243   6.766   6.252  13.579  0.0138 -0.2575  0.0758
11060W        W27244  17.873  13.082  13.036 -0.0481  0.0951  0.3258
11061W        W27245   2.074   6.238   4.739  0.0052 -0.1081 -0.1271
11062W        W27246   6.789  14.448  12.314 -0.2249  0.1406 -0.3543
11063W        W27247   5.860   8.644  15.819 -0.0811  0.1440  0.1189
11064W        W27248   8.662  13.571   4.004  0.1158 -0.0258  0.0205
11065W        W27249   8.236   2.894  15.981  0.1889 -0.0943  0.0138
11066W        W27250   5.559  14.181  13.342  0.0382 -0.1315 -0.0112
11067W        W27251   6.707  17.018   6.048 -0.4037  0.5363  0.0728
11068W        W27252   1.912  16.072  11.977 -0.0611 -0.1789  0.0549
11069W        W27253   8.742   4.026  13.189  0.0091  0.1386 -0.1262
11070W        W27254  10.311   6.105   1.147 -0.0778 -0.0231  0.0034
11071W        W27255  14.638   7.193  14.979 -0.0421  0.0577  0.0328
11072W        W27256  10.175   8.217  12.222 -0.2088 -0.3172  0.2783
11073W        W27257  13.417  12.126  16.126 -0.0887  0.1726 -0.1252
11074W        W27258   5.045   1.290  12.988 -0.0015  0.1958  0.1293
11075W        W27259   6.709  17.496  12.985  0.1647  0.0067  0.2512
11076W        W27260  16.215   4.730  14.307 -0.2109  0.1005 -0.1626
11077W        W27261  15.899  13.615  16.420 -0.4351  0.0999 -0.0266
11078W        W27262   9.111   3.154  11.582 -0.1598 -0.1673 -0.0698
11079W        W27263  13.515   0.552   5.640 -0.2687 -0.0217 -0.0472
11080W        W27264  10.353  17.282   0.330 -0.0293 -0.2440  0.2372
11081W        W27265   2.828  17.216  14.327 -0.0113  0.1679  0.1045
11082W        W27266   1.436  17.651  15.586  0.1486  0.0405 -0.1154
11083W        W27267  16.431   5.881   0.917 -0.1363 -0.0953  0.3850
11084W        W27268   9.792  10.684  15.410  0.1801  0.0995 -0.2485
11085W        W27269  16.305  13.006  15.302 -0.1240  0.0694 -0.0064
11086W        W27270   5.667  10.077   1.239  0.0546  0.2579  0.3730
11087W        W27271   5.385  12.493  15.799 -0.0443 -0.0286  0.0789
11088W        W27272  13.574   8.805  15.977  0.1184  0.2539 -0.0870
11089W        W27273  10.167   7.198  16.626  0.0624 -0.1065  0.2337
11090W        W27274   8.140   5.354   0.553  0.0915 -0.1494 -0.0678
11091W        W27275   2.067  16.507  14.585 -0.0833 -0.0043  0.5205
11092W        W27276   8.299  15.317   3.380  0.0603  0.0234  0.1269
11093W        W27277   7.405  14.065   4.389 -0.1895 -0.0670 -0.0981
11094W        W27278   8.567  12.269   2.549  0.4171 -0.2861 -0.0042
11095W        W27279   6.010   5.286  15.411 -0.0249  0.1117  0.0089
11096W        W27280   1.617  17.998  16.479 -0.0344  0.1120 -0.0303
11097W        W27281   8.483  10.391   0.570 -0.3913 -0.1508  0.1297
11098W        W27282  15.296   8.158   4.411  0.2839  0.1003  0.1244
11099W        W27283   0.711   4.689   5.427 -0.2793 -0.1033 -0.0271
11100W        W27284   8.606  17.693   1.960 -0.0361 -0.0233  0.0290
11101W        W27285   3.198   6.887   2.094 -0.3004  0.1437  0.2894
11102W        W27286  16.895   4.666   1.893  0.0731  0.2535  0.0393
11103W        W27287   6.068  15.887  15.915  0.2165 -0.1793  0.1907
11104W        W27288  13.772   0.564  16.326 -0.2725  0.1360 -0.3025
11105W        W27289   2.926   8.681   0.371  0.1932 -0.0310  0.1609
11106W        W27290   6.769   4.293  13.075  0.0655  0.2182  0.0253
11107W        W27291   7.863  16.330   1.191  0.3441  0.3050 -0.0605
11108W        W27292  11.021   3.461  11.953  0.1723  0.0334  0.0901
11109W        W27293  17.169  16.898   1.355 -0.0707  0.1023 -0.2077
11110W        W27294   9.723  14.256   5.449  0.0114 -0.0340  0.2918
11111W        W27295   1.005   6.855  14.604  0.1456  0.0278 -0.1371
11112W        W27296  12.850  10.802  16.679 -0.0838  0.0074 -0.0616
11113W        W27297   0.431   2.119   3.830 -0.1157  0.2190  0.0125
11114W        W27298  17.420  11.621  13.861  0.3111  0.0164 -0.1725
11115W        W27299   2.668   4.705   3.954 -0.1091  0.5209 -0.0979
11116W        W27300  17.222  17.951   5.111  0.3316 -0.0758 -0.1331
11117W        W27301  14.248   5.972  14.522 -0.1097  0.0265 -0.0501
11118W        W27302  13.723   2.468   1.108 -0.0650  0.1038  0.0020
11119W        W27303  14.295   7.099   3.484  0.1681 -0.1132  0.0377
11120W        W27304  16.336   2.338  11.419 -0.0174  0.0720 -0.3319
11121W        W27305  13.701   3.178   3.719 -0.1773 -0.1883 -0.2368
11122W        W27306  11.200  17.547   0.114  0.0470 -0.2617 -0.1975
11123W        W27307   8.779  12.352   1.760  0.0382  0.2544 -0.2751
11124W        W27308   4.069   4.140   2.102  0.1819 -0.0706  0.0132
11125W        W27309   1.057   7.630  12.477 -0.0706 -0.1564 -0.2057
11126W        W27310  13.791  15.843   5.851 -0.0240  0.4439 -0.0248
11127W        W27311  12.989   8.030   4.715 -0.0051  0.1462 -0.1166
11128W        W27312  18.126   7.486   2.760  0.2133  0.0524  0.3253
11129W        W27313   9.983   9.242  13.795 -0.1413  0.2106  0.3346
11130W        W27314   5.904   1.222   0.212  0.2542  0.2022  0.4079
11131W        W27315   0.075   5.865  13.705  0.1942  0.0305 -0.1852
11132W        W27316  16.830   2.629   1.198  0.0654 -0.0038 -0.1737
11133W        W27317   5.516   4.660   6.038 -0.1351  0.0577  0.1520
11134W        W27318   3.679   1.545  14.531  0.1118  0.0602  0.0006
11135W        W27319  12.077  16.520  14.692 -0.0141 -0.0626  0.1440
11136W        W27320  13.586   3.157   4.203 -0.1863 -0.1670  0.1678
11137W        W27321   9.202   1.159   0.894 -0.1564 -0.2062  0.0527
11138W        W27322  17.104   0.732  15.364  0.2106  0.3117  0.4073
11139W        W27323  17.709   4.275   3.027 -0.1300  0.4558  0.1192
11140W        W27324  11.703   5.587   2.941  0.0558  0.1930  0.0743
11141W        W27325  16.990  17.744   2.483  0.2265  0.2612 -0.1806
11142W        W27326  11.928  16.115   1.101 -0.2504  0.0937  0.0010
11143W        W27327  14.411   7.216  12.579 -0.2534 -0.0419 -0.1070
11144W        W27328  16.998  12.334   1.996 -0.3246  0.0511  0.0013
11145W        W27329  11.989   7.106   0.011  0.0493  0.0620  0.1796
11146W        W27330  12.514   2.209   0.423 -0.0237  0.1259 -0.0445
11147W        W27331  15.222  12.748   4.236  0.0159  0.0604  0.1715
11148W        W27332  11.496  11.902   2.695  0.0566 -0.3161  0.1889
11149W        W27333  16.658   4.785  11.420  0.2487  0.3148 -0.0449
11150W        W27334  10.582   2.494   4.894  0.0601 -0.0877  0.0640
11151W        W27335  16.523  11.447  15.380  0.1053  0.0505 -0.0680
11152W        W27336  12.564  10.871  15.570 -0.0711 -0.1133  0.0799
11153W        W27337   5.901   3.768   3.550 -0.0234  0.2783  0.1864
11154W        W27338  10.009  13.127  13.020  0.1996  0.0734 -0.1870
11155W        W27339  10.784   2.955   5.113 -0.2054 -0.0858 -0.0621
11156W        W27340  15.261   9.857  11.501 -0.0096 -0.0759  0.3880
11157W        W27341   7.567  12.739  11.576  0.1530 -0.1554  0.0944
11158W        W27342  15.803   1.179   0.934  0.0272 -0.0655 -0.0337
11159W        W27343   9.077  15.582   0.327 -0.1131  0.1433 -0.2850
11160W        W27344  13.952   2.652   5.106 -0.1516  0.1897 -0.0059
11161W        W27345  17.804   4.031  14.317 -0.0735 -0.1653 -0.0043
11162W        W27346  14.906  14.969   3.083 -0.1323  0.1566  0.0674
11163W        W27347  12.901  17.861  14.981 -0.2758 -0.1081 -0.0783
11164W        W27348  10.874  11.666  16.370  0.2594 -0.0127 -0.1050
11165W        W27349  13.366  15.377  14.186 -0.2356 -0.3817  0.0410
11166W        W27350  14.926   9.636   5.232 -0.4319 -0.0304  0.3628
11167W        W27351   2.582   2.233  11.834  0.0884  0.2559 -0.1527
11168W        W27352   1.900  13.845   0.590 -0.0489 -0.2937 -0.0152
11169W        W27353   2.662  14.975  15.370  0.0184 -0.0224  0.1280
11170W        W27354   6.939  16.310  11.323  0.1338  0.1245 -0.0360
11171W        W27355  15.186  17.899  12.933  0.1383 -0.1511  0.4585
11172W        W27356  10.196  13.440  13.405 -0.0568  0.0404  0.4931
11173W        W27357  16.124  15.912   1.375  0.0031 -0.0764  0.0148
11174W        W27358   4.874   0.801   3.174 -0.0376 -0.1293  0.0300
11175W        W27359   8.611   3.847  12.706  0.0442 -0.1855  0.4456
11176W        W27360  14.412  16.128   0.356  0.2100  0.2774 -0.0004
11177W        W27361  16.109  17.058  14.666 -0.1321  0.0456 -0.0314
11178W        W27362   4.736   3.974   2.372 -0.4677 -0.0391 -0.0962
11179W        W27363  15.144   6.186  15.802  0.1408  0.0998 -0.1666
11180W        W27364   1.593   9.070  15.277  0.3632 -0.3248  0.0269
11181W        W27365   5.994   6.853  14.507  0.1819  0.0534  0.1634
11182W        W27366  13.414   0.355  11.838 -0.1214  0.1300  0.1332
11183W        W27367  11.278  11.647   3.643  0.1962 -0.0707  0.1552
11184W        W27368   3.234   8.544   2.478 -0.0383  0.0556 -0.2508
11185W        W27369   2.045   2.230   1.377 -0.1484  0.0593  0.1544
11186W        W27370  14.359  16.648   3.351  0.0872  0.0527 -0.5236
11187W        W27371   8.214  15.975   4.760 -0.0674 -0.3507  0.4234
11188W        W27372  10.640  10.685   4.164 -0.3204 -0.1457 -0.0250
11189W        W27373   5.115   0.959  15.084 -0.2515 -0.2754 -0.1724
11190W        W27374  15.604   5.427  14.818 -0.1371 -0.0683 -0.0249
11191W        W27375  17.695   2.140  12.701  0.6088  0.0659  0.1660
11192W        W27376  15.506  12.046   1.515  0.0012 -0.3060  0.1226
11193W        W27377   7.499  11.815  14.814  0.0350  0.1993 -0.1000
11194W        W27378   0.688   7.662   4.683 -0.0112  0.0388 -0.2056
11195W        W27379  11.379  15.611   1.601  0.3443 -0.0984  0.0641
11196W        W27380  16.306   3.542   3.077 -0.0675 -0.3164  0.3921
11197W        W27381  10.754   6.007  10.762  0.2296 -0.1189 -0.1456
11198W        W27382  16.980  16.528   2.839  0.2584  0.1030  0.0296
11199W        W27383   0.331   1.398  12.990 -0.1530 -0.1129 -0.2333
11200W        W27384   8.382   1.308   3.322 -0.0783  0.0449  0.2320
11201W        W27385   8.092   2.898  13.343 -0.1222 -0.0234  0.1249
11202W        W27386  14.207   0.767  16.524 -0.0191 -0.3110 -0.2167
11203W        W27387  16.651   3.457  14.241  0.0532 -0.0346 -0.0998
11204W        W27388  12.844   1.455  13.975  0.1582 -0.0073 -0.0306
11205W        W27389   3.836   9.070  12.041 -0.1734 -0.1785  0.2569
11206W        W27390   2.441  11.551  12.939 -0.1827 -0.0015  0.1220
11207W        W27391   2.378   8.222   3.445  0.1423 -0.0589 -0.0934
11208W        W27392   5.321   7.481   0.786 -0.1031  0.3526 -0.0774
11209W        W27393   7.526  16.978   4.439 -0.3278  0.0886 -0.1465
11210W        W27394   6.098  15.027  16.408  0.0441 -0.2041 -0.1246
11211W        W27395   3.707   6.061  13.124 -0.0370  0.3242  0.2234
11212W        W27396  10.602   6.269   3.555 -0.0876 -0.1608 -0.0459
11213W        W27397   3.449   5.186  12.572 -0.0747  0.1978  0.0689
11214W        W27398  12.604  11.141  14.114 -0.0833  0.2752  0.0906
11215W        W27399  17.767   9.025  13.853  0.0638  0.0622  0.1432
11216W        W27400  13.677   9.873   0.678 -0.0563 -0.3273  0.1118
11217W        W27401   8.346   5.458   0.099  0.1182 -0.0796  0.0463
11218W        W27402   7.069  12.713   5.170  0.3461 -0.0021  0.0721
11219W        W27403   8.585   9.030  13.628  0.5308 -0.0804 -0.0374
11220W        W27404   2.454   3.425   4.250  0.0667  0.0924 -0.0880
11221W        W27405   2.687  11.389   0.246  0.1077  0.2444  0.1396
11222W        W27406  13.685  12.004   1.915 -0.1254  0.1130 -0.2719
11223W        W27407  11.848  15.698   1.476 -0.0541  0.2027  0.2654
11224W        W27408   5.729  16.507   1.333 -0.1510 -0.0600 -0.0633
11225W        W27409   4.348  10.794   3.736  0.3303 -0.1092  0.1791
11226W        W27410  16.726  15.453   0.810  0.1701 -0.2876 -0.1721
11227W        W27411   6.433   3.978   0.662 -0.3357  0.3636  0.2606
11228W        W27412  11.851   2.807   0.115 -0.0721 -0.0695  0.4966
11229W        W27413  16.069   7.040   4.010  0.0051 -0.4004  0.0579
11230W        W27414   2.608   2.172  12.831 -0.0397 -0.0415  0.1558
11231W        W27415   7.607   3.035   1.688 -0.1712 -0.1395 -0.3359
11232W        W27416   1.731  10.903   1.600 -0.0403  0.0570  0.0877
11233W        W27417  10.825  11.463  14.076  0.1265  0.2043 -0.1142
11234W        W27418  14.780  11.338  14.080 -0.2272  0.0320  0.0798
11235W        W27419   9.296  13.410   6.381 -0.0316 -0.0664  0.3210
11236W        W27420  17.269   8.473   4.602  0.0224 -0.0226 -0.0035
11237W        W27421  16.501  10.892   4.270  0.1920  0.4031  0.1476
11238W        W27422  12.304   7.076   0.386 -0.0353 -0.3027  0.2792
11239W        W27423   7.397   5.017   5.323  0.1355 -0.0393  0.0676
11240W        W27424   6.444  14.270  11.921  0.3745  0.3662  0.1117
11241W        W27425   0.189  17.903   5.903 -0.0774  0.2259  0.0531
11242W        W27426  16.257  12.552   3.348  0.0887  0.0454  0.2298
11243W        W27427   6.370  14.970  15.575 -0.1844  0.3065 -0.0563
11244W        W27428   2.924  11.373  14.002 -0.0413  0.0384  0.1534
11245W        W27429  17.833   4.482   0.118  0.2952 -0.0997  0.2156
11246W        W27430   7.547  17.096   2.574  0.2453 -0.0094 -0.0447
11247W        W27431  17.384  15.669   2.000  0.0071  0.2140 -0.1907
11248W        W27432   6.424   5.826   1.185  0.5517 -0.1857 -0.1176
11249W        W27433  15.596   4.864   0.126  0.1259 -0.0774 -0.2338
11250W        W27434   9.304   9.983   3.961 -0.2957 -0.4293 -0.2886
11251W        W27435   0.482   3.810  13.591  0.0135  0.3681 -0.1994
11252W        W27436   9.143  17.240  11.988 -0.0862  0.0284 -0.0276
11253W        W27437   5.050   6.325   4.341  0.3328  0.4550  0.1223
11254W        W27438   4.203   3.021   1.113 -0.3677 -0.1115  0.3113
11255W        W27439   6.188   1.592  12.270  0.1292  0.0273 -0.1572
11256W        W27440   4.240   1.158   2.659  0.0076  0.2425  0.0950
11257W        W27441  10.740   6.366   4.403 -0.1301 -0.0540 -0.2040
11258W        W27442   4.355  11.163  15.155  0.0798  0.2492  0.0924
11259W        W27443   7.243   8.336  14.862  0.2849 -0.0104  0.2589
11260W        W27444  11.307   2.249   0.804  0.3608 -0.0018  0.0595
11261W        W27445   5.982   8.276  13.978  0.0869  0.0491 -0.0798
11262W        W27446   7.697   8.992   1.170  0.3144 -0.3169  0.1175
11263W        W27447  10.072   2.477   4.971 -0.2145  0.1907 -0.2778
11264W        W27448   9.694   5.390   0.750  0.0272 -0.1288 -0.2602
11265W        W27449  14.242  13.403  13.753  0.1259  0.0330 -0.1652
11266W        W27450   2.753  12.346  15.559  0.1202 -0.0492 -0.0288
11267W        W27451  13.398  18.133   5.475  0.0818  0.0384  0.3171
11268W        W27452   2.205  13.033  14.517 -0.4260  0.0733  0.1250
11269W        W27453  14.835   4.362   5.735  0.0685  0.2291 -0.0225
11270W        W27454   8.817   7.873   3.634  0.1090 -0.0844  0.1155
11271W        W27455   4.034   9.782   0.853  0.0700  0.1934  0.0973
11272W        W27456   4.277   4.894  13.561 -0.1504 -0.0654 -0.1656
11273W        W27457   2.853   8.759   0.864 -0.2642  0.1644  0.0718
11274W        W27458  13.449   4.883   0.325 -0.2549 -0.0322 -0.2800
11275W        W27459  15.852   1.985   3.340 -0.3255  0.0239 -0.1884
11276W        W27460  17.229   6.213  10.868 -0.3146 -0.4740 -0.0064
11277W        W27461  10.531   8.994  11.634 -0.1536  0.3789 -0.1555
11278W        W27462   6.095   8.443   3.416  0.1439 -0.0622  0.2997
11279W        W27463   9.097  14.121   3.013 -0.1759  0.3687 -0.0643
11280W        W27464  16.849  11.432  15.789  0.0520 -0.0694 -0.2949
11281W        W27465   6.267  13.266   3.939 -0.0689 -0.1621 -0.3753
11282W        W27466   8.231   5.576  14.545 -0.0610 -0.1836  0.0908
11283W        W27467   1.671  14.689  15.203 -0.0455  0.2370  0.2601
11284W        W27468   3.057  13.609   0.576  0.1204 -0.2226  0.3732
11285W        W27469   5.297  13.557   0.630 -0.1207  0.3053  0.3769
11286W        W27470   8.182   9.774   0.547  0.0802 -0.1874  0.6698
11287W        W27471  12.908  13.039  16.437 -0.0784 -0.0699 -0.1369
11288W        W27472  13.659   2.740  11.749  0.2410  0.1892  0.2186
11289W        W27473  10.470  13.692   1.056 -0.2335 -0.1811  0.0078
11290W        W27474   6.221   4.730  12.563  0.5176 -0.1443  0.1843
11291W        W27475   6.839   1.807  12.947 -0.0264 -0.1974 -0.0812
11292W        W27476   7.559  17.781   3.945 -0.0767  0.1365  0.0510
11293W        W27477   4.971   4.821  14.379  0.0489 -0.1962 -0.0701
11294W        W27478  15.219  13.910  12.255  0.0241  0.1719 -0.2077
11295W        W27479   0.566  11.288  16.439 -0.1260 -0.0211  0.3572
11296W        W27480   9.738   4.915  15.142 -0.1514 -0.0624  0.0833
11297W        W27481   6.892   6.043   5.524 -0.0941  0.0354 -0.2095
11298W        W27482   6.693   0.334   0.652  0.1096 -0.2129 -0.2986
11299W        W27483  12.222  11.034   2.368  0.2441  0.1116  0.0562
11300W        W27484  10.664  12.251   0.990 -0.2024 -0.0718 -0.1549
11301W        W27485   4.590  17.877  14.769  0.0681 -0.1051 -0.0267
11302W        W27486   5.359   3.892   1.714  0.0446 -0.0387 -0.0563
11303W        W27487  10.788  12.779  12.449  0.2416  0.0938 -0.1055
11304W        W27488  14.624  15.815  16.562  0.0626 -0.2037 -0.0354
11305W        W27489   1.857   5.836   2.849  0.3544  0.0922 -0.0545
11306W        W27490  13.376   7.371   1.903  0.0749  0.0235  0.3774
11307W        W27491   2.971   4.922  12.825 -0.1490  0.0987  0.2136
11308W        W27492  10.393  12.193   5.510  0.2638 -0.4437 -0.2632
11309W        W27493  12.435   1.568   2.955 -0.0095  0.0967 -0.0393
11310W        W27494   1.669  14.572  14.695 -0.1466  0.0176 -0.0176
11311W        W27495  14.315  13.902  14.517  0.0193  0.4987  0.3261
11312W        W27496  14.211   3.227  12.449  0.0912  0.0127 -0.0432
11313W        W27497   0.949   7.152  16.527 -0.5206 -0.5068  0.1934
11314W        W27498  16.916   7.858  11.430 -0.2257  0.1555 -0.3182
11315W        W27499   9.909  14.766   0.148 -0.0733  0.0672  0.0794
11316W        W27500  13.531   0.751   4.054 -0.2510  0.1520  0.0348
11317W        W27501  12.185  15.333   1.340 -0.2301 -0.1205 -0.1675
11318W        W27502  12.057  10.685  16.420 -0.2005  0.2296  0.1064
11319W        W27503  14.995  17.655  13.856  0.0167  0.1021 -0.1296
11320W        W27504   9.884   9.292   0.476  0.0496  0.2300 -0.2889
11321W        W27505   5.619   0.874   0.989  0.0182  0.1672 -0.0929
11322W        W27506   3.088   7.951   4.446 -0.2120 -0.2685 -0.1080
11323W        W27507   7.370   6.314   1.831  0.2585 -0.0690 -0.4941
11324W        W27508   2.737   7.706   5.232  0.0423 -0.1125  0.1572
11325W        W27509  17.130   7.637  12.181  0.0227 -0.4422  0.1129
11326W        W27510  12.704  15.163  14.148  0.0604  0.2339  0.0720
11327W        W27511   4.701   0.558  15.032 -0.0834  0.3344 -0.0810
11328W        W27512  11.734  13.858   4.041 -0.1210 -0.1486 -0.1656
11329W        W27513   9.690  15.129   3.752  0.0200 -0.2621  0.1327
11330W        W27514  15.150   9.414   5.650 -0.0692  0.0516 -0.0283
11331W        W27515  17.784   1.649   0.264 -0.2281  0.0248 -0.0423
11332W        W27516   1.442  10.434   6.397 -0.0549 -0.0590 -0.0020
11333W        W27517   4.031   2.620  15.412  0.1800  0.0895  0.1785
11334W        W27518   0.563  11.625   3.526  0.4395 -0.2420 -0.3837
11335W        W27519   4.636   6.305  13.850  0.1706 -0.2333  0.4197
11336W        W27520  11.785   1.784  16.441 -0.0820  0.0132 -0.2260
11337W        W27521   1.576   2.708   3.574 -0.5778  0.2308 -0.1607
11338W        W27522   7.503   2.699   2.475  0.0169 -0.1134  0.1893
11339W        W27523   8.413   6.018  14.811  0.1916  0.0299  0.0948
11340W        W27524  11.923  12.362   0.453 -0.1073  0.1352 -0.1894
11341W        W27525   0.466   8.316   0.798 -0.1436  0.1594 -0.0536
11342W        W27526   9.982  13.125   2.264 -0.0239  0.2064  0.0440
11343W        W27527  13.815  15.101   1.026  0.1991 -0.0626  0.1354
11344W        W27528   7.511   9.377  14.307 -0.0037  0.3556  0.0687
11345W        W27529   2.251   3.720  14.807  0.0305  0.0887 -0.4059
11346W        W27530   3.278   4.601  15.494  0.0946  0.1038  0.0275
11347W        W27531   3.348   9.433   2.009  0.0249 -0.0596  0.0594
11348W        W27532   0.237  10.568   2.230 -0.0191  0.5651 -0.1478
11349W        W27533  17.710   2.961  15.607 -0.0455 -0.4059  0.2635
11350W        W27534   3.550  12.499   4.991  0.2948  0.2406  0.1711
11351W        W27535  10.755   0.180  15.216  0.1481  0.1767 -0.3241
11352W        W27536   4.253   3.224  14.026  0.2284  0.1412  0.2492
11353W        W27537  10.613   8.685   3.185 -0.0179 -0.2379 -0.2495
11354W        W27538  10.998   8.918  13.543 -0.0854  0.1491 -0.0331
11355W        W27539   1.104   2.655   0.688 -0.3746  0.3621  0.2505
11356W        W27540  16.300  14.650  13.513  0.0973 -0.2226  0.2757
11357W        W27541   1.696   6.903  13.485  0.2756  0.0785  0.1367
11358W        W27542   5.210   6.851  16.401  0.2821  0.2830 -0.2638
11359W        W27543  15.453  14.371  15.872  0.0294  0.0976 -0.0364
11360W        W27544  16.236  13.762   2.715 -0.2841  0.2096 -0.0448
11361W        W27545  18.129  15.558   2.821  0.0369 -0.1952  0.0933
11362W        W27546  11.987  15.934  14.239  0.1402 -0.2812  0.0436
11363W        W27547   7.982   7.935   5.010 -0.0758 -0.1665  0.1675
11364W        W27548   2.361  10.258   3.530  0.0461  0.1067 -0.1690
11365W        W27549   3.788  11.133  14.229 -0.0078 -0.1363 -0.0323
11366W        W27550   5.535  17.947   3.139  0.1632  0.0720 -0.1396
11367W        W27551  10.079   1.135   5.321  0.1735  0.1328 -0.1179
11368W        W27552  12.806   2.484  12.178 -0.1351 -0.0197 -0.0826
11369W        W27553   3.475   8.250   2.152 -0.2807  0.0211  0.2452
11370W        W27554  17.818  17.031  15.141  0.0440  0.3145 -0.2102
11371W        W27555  13.595  12.691   5.480  0.1796  0.1501 -0.2503
11372W        W27556   6.535  16.048  15.541  0.1847 -0.3011  0.3488
11373W        W27557   4.874  14.795   3.799 -0.1892 -0.0376  0.0839
11374W        W27558   2.943   0.197  14.619  0.1883 -0.0594  0.0011
11375W        W27559  10.195  16.874   4.885 -0.2167  0.2807 -0.1379
11376W        W27560   8.859   9.065  12.372 -0.1386  0.0448  0.1460
11377W        W27561  15.960   0.623   1.655  0.0759 -0.2849 -0.1428
11378W        W27562  16.228   3.572   3.590 -0.2132  0.3479 -0.3774
11379W        W27563  11.984   0.078  15.918  0.0238 -0.1105 -0.1344
11380W        W27564  16.015  13.410   5.908  0.0539  0.0546  0.0998
11381W        W27565  17.043   9.245  15.432 -0.0965  0.2917 -0.1671
11382W        W27566  13.096   8.861   5.805  0.2615 -0.0347 -0.1988
11383W        W27567   8.007  14.395  11.896 -0.0065 -0.2940 -0.2483
11384W        W27568  15.799   3.119   1.134 -0.1244  0.1546 -0.0401
11385W        W27569   3.216  15.774   2.470 -0.1858 -0.0061 -0.1675
11386W        W27570   7.904   4.272  13.175 -0.1173  0.0157 -0.1204
11387W        W27571  14.726   6.254  15.388  0.0451 -0.1449 -0.0136
11388W        W27572  17.072  14.339  13.486  0.0049  0.0498 -0.1771
11389W        W27573  18.055  10.078  14.517 -0.3464 -0.2084 -0.4490
11390W        W27574  17.842   6.920  15.971 -0.0399 -0.0564 -0.0958
11391W        W27575  10.268  10.721   3.215  0.1141 -0.1558 -0.1206
11392W        W27576   5.959   2.417  14.674  0.1530  0.0477 -0.2370
11393W        W27577   6.704  11.076   1.643  0.0649  0.1806 -0.0576
11394W        W27578   8.219   2.951  11.691 -0.1267 -0.0959  0.0086
11395W        W27579   6.427  12.226   2.682 -0.1557  0.1495 -0.1725
11396W        W27580   5.447  16.058  12.416 -0.0377  0.2494 -0.0338
11397W        W27581   0.180   3.538  13.033 -0.0734 -0.1093  0.1008
11398W        W27582   4.916   3.053  15.326 -0.1239 -0.1142  0.4340
11399W        W27583  11.593   6.994  11.552  0.2140 -0.1313 -0.0916
11400W        W27584   0.279  14.969  12.140  0.1794 -0.1885 -0.0188
11401W        W27585  15.694  13.098   5.447 -0.0666 -0.2625 -0.0049
11402W        W27586  16.573  16.204   2.093 -0.1532  0.3274 -0.1313
11403W        W27587   1.363   0.223   0.183 -0.3066 -0.0178 -0.1313
11404W        W27588   0.064   4.013   3.548  0.3573 -0.2001 -0.1727
11405W        W27589   6.019   0.450  14.986  0.2949  0.0774  0.1889
11406W        W27590  16.838   1.283  14.808 -0.0686  0.3470  0.1056
11407W        W27591   3.432   7.233  12.637 -0.1525  0.2192 -0.1069
11408W        W27592   4.259   7.475  15.254  0.1646  0.1151  0.1047
11409W        W27593  16.145  14.194   2.001  0.0026  0.0260 -0.0293
11410W        W27594  11.182  13.223   4.333  0.0076  0.0558 -0.1253
11411W        W27595   7.815   5.778   6.026 -0.0625 -0.1728 -0.2519
11412W        W27596  11.916   5.508  11.493  0.2337  0.1655 -0.1713
11413W        W27597   1.646   1.396   0.386 -0.0994 -0.3215  0.1252
11414W        W27598   8.544  10.844  13.630  0.0538 -0.0826  0.1931
11415W        W27599   1.575   3.994   3.471 -0.0115 -0.1130  0.2055
11416W        W27600   0.360  15.170  11.655  0.1258  0.0905 -0.2481
11417W        W27601  12.554  10.874   5.008  0.3158 -0.3997 -0.1329
11418W        W27602  13.421   2.376   3.705  0.0271  0.0742 -0.1812
11419W        W27603   9.294  13.839  14.109  0.1355 -0.1701 -0.2237
11420W        W27604  17.528   6.246   0.299  0.0500 -0.0302 -0.1959
11421W        W27605  15.547   8.582  12.777  0.0944 -0.2953 -0.0051
11422W        W27606  10.623  10.591  11.916 -0.2802 -0.1937 -0.0382
11423W        W27607   9.262  12.004  15.697 -0.1530 -0.0722  0.1770
11424W        W27608   2.759  13.022   4.094 -0.0539  0.1301  0.0166
11425W        W27609  11.638   4.696  10.822 -0.0144  0.2113 -0.1386
11426W        W27610  14.327   3.673   1.927  0.3721  0.0277  0.1119
11427W        W27611   8.998  18.161  15.318 -0.2166  0.1929 -0.0151
11428W        W27612   2.608   4.467  12.024 -0.0914 -0.1468 -0.0024
11429W        W27613  11.409  12.257   2.023  0.2666  0.1328  0.2537
11430W        W27614   5.459   5.297  11.764  0.1260 -0.0223 -0.0180
11431W        W27615   8.217   3.842   3.412 -0.3262  0.0169 -0.2067
11432W        W27616  13.945  12.924  12.699 -0.1953  0.3273 -0.0249
11433W        W27617  17.907  14.847  12.874  0.0672  0.2305 -0.4064
11434W        W27618   4.318  15.920  13.710  0.1143  0.0720 -0.0132
11435W        W27619  12.933   0.433   0.788 -0.0888 -0.0924  0.2208
11436W        W27620   8.039  14.612  13.382 -0.1984 -0.1332  0.0095
11437W        W27621  17.984  12.388  12.618 -0.1122 -0.1695  0.2101
11438W        W27622   8.285   4.661  15.237  0.1553  0.1871  0.1217
11439W        W27623  14.514   1.993   0.705 -0.1843  0.2266 -0.1609
11440W        W27624   4.924  12.432   6.147 -0.0747  0.0196 -0.0301
11441W        W27625   4.937  12.633  12.519  0.2434  0.0269 -0.4234
11442W        W27626   8.463  12.092   4.728 -0.1590  0.0733  0.4680
11443W        W27627  15.737  16.414  12.072 -0.0531 -0.1310  0.0554
11444W        W27628  16.802   2.469  15.709 -0.0024  0.0590 -0.2188
11445W        W27629   9.905   4.859   0.812  0.1031  0.2118 -0.0146
11446W        W27630   1.458  13.804   0.281 -0.2070  0.1555 -0.0504
11447W        W27631  12.106   6.774  15.806  0.1192 -0.1686 -0.1647
11448W        W27632   4.226   0.852   1.712 -0.0568  0.0338  0.0902
11449W        W27633  13.699   3.704  13.737  0.1199  0.0758  0.3098
11450W        W27634  17.511  11.359   1.624 -0.0095 -0.3435  0.3244
11451W        W27635  15.684   5.167   2.711 -0.4396  0.0474  0.1660
11452W        W27636  14.456  12.803  12.648  0.2789  0.1563 -0.0532
11453W        W27637  11.931  12.400   4.429  0.0740 -0.3025 -0.0679
11454W        W27638   8.848  10.703   0.452 -0.2582  0.0478 -0.0643
11455W        W27639  13.393   5.432   3.729  0.0104  0.0752 -0.0243
11456W        W27640  18.013  15.687  16.023  0.0595 -0.2930 -0.3870
11457W        W27641  17.743  11.670  14.383 -0.0776  0.1909  0.1792
11458W        W27642   7.686  16.550  12.959 -0.0418  0.1352  0.0790
11459W        W27643  14.786   2.322  11.474 -0.4490 -0.2245 -0.0307
11460W        W27644   8.062   4.799   4.979  0.1910 -0.0752  0.2374
11461W        W27645  11.389   5.196  15.815  0.1242 -0.2811 -0.2859
11462W        W27646   8.481   7.671  16.048 -0.1327 -0.3495 -0.3887
11463W        W27647  11.534  11.023   4.137  0.0146  0.1299 -0.4205
11464W        W27648  13.383   6.773  10.345  0.1332  0.1789  0.0687
11465W        W27649   8.223   0.426   6.466  0.3178 -0.1506  0.2268
11466W        W27650  16.404   9.148   4.848  0.0411 -0.1794 -0.0524
11467W        W27651   1.318   8.575   1.157  0.0427  0.2249  0.0148
11468W        W27652   0.899   3.789   4.858 -0.2584  0.0179 -0.2501
11469W        W27653  16.335  12.239  16.568 -0.0126  0.0596 -0.1776
11470W        W27654  15.563   8.221   0.286  0.1215  0.0234 -0.1067
11471W        W27655   6.599   2.435  12.196  0.0958  0.0192 -0.5268
11472W        W27656  16.805   4.218  16.273 -0.0275 -0.2387  0.2649
11473W        W27657  14.125   1.815   3.960 -0.0289  0.2048  0.1374
11474W        W27658   6.173  11.377   2.390 -0.1590  0.3146  0.1390
11475W        W27659  15.041  13.202   4.436 -0.0950  0.5500  0.2010
11476W        W27660   8.017  11.158   0.048 -0.2916  0.0242 -0.2344
11477W        W27661   0.696   3.000  12.366 -0.0544  0.3878 -0.0839
11478W        W27662   8.968  16.445   0.401 -0.1003 -0.0803 -0.0367
11479W        W27663   3.073   2.153  11.453  0.1389  0.3554 -0.1139
11480W        W27664   2.864   1.071  14.697  0.3908  0.0451 -0.1019
11481W        W27665   6.663  11.328   2.569 -0.5376  0.0141  0.0602
11482W        W27666   9.476   7.150   0.453  0.0605 -0.4186  0.0583
11483W        W27667  10.400  16.556  12.622 -0.0047  0.0337  0.0286
11484W        W27668   9.444  17.219  15.493  0.0634 -0.0509 -0.3104
11485W        W27669  11.012  11.737  12.100 -0.1233 -0.0136  0.3813
11486W        W27670   8.602   3.968   2.812 -0.2239 -0.2143 -0.1834
11487W        W27671  15.332   6.807  15.057 -0.2146  0.1981 -0.0702
11488W        W27672   8.160   2.592  15.331 -0.1456 -0.0624  0.3418
11489W        W27673   3.879   3.465  12.989 -0.1136  0.0902 -0.0070
11490W        W27674   2.075   5.437   2.002 -0.0191 -0.5274  0.0150
11491W        W27675   4.716  12.051  13.076  0.3360 -0.0198  0.1622
11492W        W27676   1.371  14.663   3.034  0.0273  0.1175  0.3549
11493W        W27677   8.902  10.992  16.540  0.0537  0.0823  0.3901
11494W        W27678   7.527  17.978  13.631 -0.2266 -0.0082  0.3193
11495W        W27679  11.095   2.985  11.782 -0.1502 -0.0523  0.0307
11496W        W27680  15.961  10.192  12.840  0.1620  0.3803  0.2809
11497W        W27681  12.586   7.938  12.371 -0.1926  0.2389  0.2059
11498W        W27682   3.963   1.352   3.334  0.1770  0.2390  0.0110
11499W        W27683   8.185  10.041  13.404  0.1584 -0.0384 -0.1574
11500W        W27684  10.390  13.658  16.075 -0.0408  0.0364 -0.3237
11501W        W27685   1.962   2.699   0.335  0.2297 -0.0495  0.0664
11502W        W27686  17.722   4.775   2.012  0.1305  0.3803  0.1747
11503W        W27687  15.225  14.598   3.214  0.3411  0.0900  0.1632
11504W        W27688   2.851  17.731  12.135  0.0134 -0.3300  0.3137
11505W        W27689   4.554  17.863   5.323  0.1503 -0.0527  0.1674
11506W        W27690   7.241   9.419   2.038 -0.0295  0.0121  0.0733
11507W        W27691  15.962  12.986  10.688  0.0994 -0.0455  0.1213
11508W        W27692   8.717  17.434  11.799 -0.0876  0.1538  0.1531
11509W        W27693   5.446   1.149  15.975  0.3479 -0.2207  0.3139
11510W        W27694  13.704  12.682  15.579 -0.3217 -0.1610  0.2892
11511W        W27695   9.530  14.830  15.817  0.0641  0.2824  0.0325
11512W        W27696   7.716  13.995  15.594  0.0119  0.2451  0.2015
11513W        W27697   9.355  14.396   6.204  0.1244  0.2354 -0.2831
11514W        W27698  15.496   3.772  12.304 -0.0262  0.4990 -0.1532
11515W        W27699   3.321   8.025  14.057 -0.0813 -0.0322  0.0682
11516W        W27700   1.776   6.417   1.274  0.0496 -0.0992 -0.1831
11517W        W27701   4.170   4.345  13.450  0.1727 -0.0088 -0.0296
11518W        W27702   3.033   3.318  15.777 -0.0791  0.0177 -0.2332
11519W        W27703   4.266  17.549  15.906 -0.2315 -0.3583  0.0851
11520W        W27704  10.888   7.135   1.469  0.0199 -0.1854 -0.0848
11521W        W27705  17.197  11.639  15.335 -0.1101  0.1837 -0.2496
11522W        W27706  15.522   8.110  10.787  0.0043 -0.2166  0.3121
11523W        W27707  11.292   7.897   2.922 -0.0746 -0.4382 -0.0963
11524W        W27708  10.866   6.310  12.603  0.0227 -0.0935 -0.0855
11525W        W27709  16.188   6.869  11.287  0.1497 -0.3571  0.1275
11526W        W27710  17.217  10.766  10.740 -0.1033 -0.3029  0.0065
11527W        W27711  15.180   3.525   2.789 -0.2327 -0.1324  0.0238
11528W        W27712  12.695   7.071   3.923 -0.2180  0.2186  0.0402
11529W        W27713   0.007  14.612  13.228 -0.0267 -0.0455  0.3449
11530W        W27714  13.051  14.468  12.544 -0.2307 -0.2297  0.1881
11531W        W27715   0.499  12.649   0.798 -0.0586  0.2764  0.2671
11532W        W27716   1.756  16.652   3.306  0.2870  0.0368  0.2762
11533W        W27717  11.653  13.385   1.131 -0.0162 -0.2131 -0.2381
11534W        W27718  17.157  10.936   1.706 -0.0937 -0.2843 -0.1699
11535W        W27719   8.408  10.077   0.145  0.2514 -0.1190 -0.1898
11536W        W27720  12.153  14.074   5.225  0.0498 -0.2941 -0.2383
11537W        W27721   6.943   7.399  13.746  0.0353 -0.1481  0.1736
11538W        W27722  16.654  11.446  14.023  0.0215  0.4540  0.2217
11539W        W27723   5.663  10.732  15.574 -0.2793  0.2032  0.2003
11540W        W27724   8.557  16.475   3.283  0.1967 -0.2668 -0.1098
11541W        W27725  14.627   1.146   3.354 -0.1099 -0.0154 -0.0103
11542W        W27726   9.056   8.007  13.890 -0.2885  0.1909 -0.1405
11543W        W27727  12.722   9.190   1.939 -0.3198  0.3063 -0.4057
11544W        W27728   0.547   4.791   2.894  0.0297  0.0323 -0.1756
11545W        W27729   8.490   9.076  14.966  0.3684 -0.1885 -0.0913
11546W        W27730   1.475   3.573  13.447 -0.0316  0.1080 -0.0023
11547W        W27731  10.068  14.431  12.767 -0.0818  0.0139 -0.0113
11548W        W27732   8.713   7.756   1.876 -0.1276  0.0131  0.0446
11549W        W27733  13.022   8.800  15.529  0.0661  0.1070  0.1905
11550W        W27734   4.472  12.540   3.800 -0.2766 -0.2922 -0.0597
11551W        W27735   4.382   5.608   5.353 -0.0566 -0.0444 -0.1280
11552W        W27736   4.223  14.051   2.778  0.0004 -0.1356  0.0049
11553W        W27737   1.362   2.596   0.236  0.4700  0.1228  0.0771
11554W        W27738  14.808  13.799   3.900 -0.2606  0.3855 -0.1901
11555W        W27739   3.810   5.708   3.017 -0.3980  0.0363 -0.1093
11556W        W27740  12.048   2.558  11.728  0.0781 -0.0514  0.4098
11557W        W27741   3.098  11.959  12.341  0.0299  0.2235  0.3890
11558W        W27742   2.807   6.304   4.746  0.0305  0.3928  0.0991
11559W        W27743   5.814   8.594   4.400 -0.0195  0.5267  0.1345
11560W        W27744  16.664  17.695  15.059 -0.0420  0.1807 -0.0284
11561W        W27745  13.872  16.590  11.903  0.2715  0.3292 -0.2652
11562W        W27746   2.636   1.209   5.186  0.1355 -0.0284  0.3156
11563W        W27747  16.511  17.168   3.802 -0.0176 -0.1322 -0.1131
11564W        W27748  16.236  16.332   1.665  0.0414  0.0912  0.2700
11565W        W27749   3.506   8.098   0.915 -0.2835 -0.0622 -0.2638
11566W        W27750   7.679  16.457  14.771 -0.1298 -0.1942  0.1181
11567W        W27751  14.636   7.036   1.453  0.1144 -0.1500 -0.0247
11568W        W27752  11.580  10.808   5.189 -0.0179  0.1666  0.1833
11569W        W27753   4.706   2.492   0.711  0.0480  0.0105  0.1311
11570W        W27754   0.749  10.365   1.262 -0.0336 -0.0748 -0.1742
11571W        W27755  11.216  13.760   0.990  0.1430  0.0257 -0.1112
11572W        W27756   8.443   5.099   0.920  0.3903  0.0914 -0.0733
11573W        W27757   1.006   7.862   2.893  0.0808 -0.0010 -0.0432
11574W        W27758   7.334  13.449  16.150  0.2151  0.0056 -0.2178
11575W        W27759   1.226   5.069   1.220 -0.1112  0.2149  0.0812
11576W        W27760   1.333   4.733   4.649  0.1395  0.0379 -0.0474
11577W        W27761   8.790  13.916  13.085  0.2447  0.0773  0.1563
11578W        W27762   2.017  10.613   3.345 -0.1420 -0.3053 -0.0265
11579W        W27763   4.674   5.183   2.667  0.2456  0.0674 -0.3849
11580W        W27764  12.677   7.080  14.014 -0.1823 -0.1151  0.0409
11581W        W27765  16.968  14.324   0.138  0.1464 -0.0095  0.0556
11582W        W27766   6.206  13.797   1.068  0.0520 -0.1883  0.1416
11583W        W27767  12.853   6.880   3.493  0.2228  0.3238 -0.3842
11584W        W27768  15.145   8.127  14.314 -0.2101 -0.1482  0.0035
11585W        W27769   7.704  11.701  13.823  0.1476 -0.2125  0.0613
11586W        W27770   4.186  18.148   3.747  0.0035  0.0768 -0.1801
11587W        W27771   3.046  13.387  14.349 -0.0450 -0.2235  0.0547
11588W        W27772  12.867  12.175   4.616  0.3642  0.1490 -0.0348
11589W        W27773  11.545   6.944  13.714 -0.1977  0.1844 -0.0432
11590W        W27774   1.505  15.839   0.298 -0.1426 -0.1946 -0.0519
11591W        W27775   6.154   8.870   0.046 -0.3403 -0.0111 -0.4236
11592W        W27776   4.548   5.393  16.281 -0.2277 -0.3409 -0.0003
11593W        W27777   8.302   6.944  13.011  0.0738  0.1042 -0.3598
11594W        W27778  16.896   1.689   4.099  0.2809 -0.2660 -0.1405
11595W        W27779  17.831  10.454  16.645  0.0216  0.3146 -0.0055
11596W        W27780   2.444  10.044  13.392  0.1363  0.2468  0.2465
11597W        W27781   0.183   5.824  13.194 -0.0092  0.2461 -0.0920
11598W        W27782  17.909  17.323  16.141  0.0053 -0.0386 -0.1862
11599W        W27783   9.471  11.029   1.633  0.0207  0.1376 -0.1526
11600W        W27784   2.190  15.730   5.033 -0.2185  0.1490  0.0219
11601W        W27785   4.365   0.894  14.842 -0.1574 -0.1178  0.1985
11602W        W27786   5.575   4.770   0.849 -0.3578 -0.0778  0.0829
11603W        W27787  14.622   0.476  16.582  0.0098 -0.2185 -0.2994
11604W        W27788   3.118   6.518  16.524  0.1190  0.0609 -0.1820
11605W        W27789  15.383  16.307   3.198 -0.1799 -0.1599  0.0794
11606W        W27790   3.827  15.739  15.974 -0.1357  0.2239 -0.1516
11607W        W27791   1.067   7.558  10.836 -0.0087  0.2649 -0.0738
11608W        W27792   9.543  13.429   3.626  0.0502  0.2519 -0.0865
11609W        W27793   6.749   3.072   3.521 -0.2937  0.3202 -0.1982
11610W        W27794  15.674  15.893   5.570  0.1581 -0.1574 -0.1139
11611W        W27795  15.626   5.390  13.562  0.2128  0.0158  0.0374
11612W        W27796  13.207   2.354  13.700  0.1608 -0.1905  0.1857
11613W        W27797  16.912   0.670   1.268 -0.1764  0.0842 -0.2777
11614W        W27798  14.438  16.916  15.881  0.0773  0.1104 -0.1633
11615W        W27799  13.511  16.522   2.447  0.1030 -0.1912  0.1664
11616W        W27800  17.986  16.899   1.775  0.2972 -0.0613  0.0947
11617W        W27801   0.090  14.115  11.707 -0.0362  0.0326  0.2836
11618W        W27802   7.771   2.736  12.923  0.2378  0.1015 -0.4096
11619W        W27803  16.654  15.012   1.169  0.1611  0.1509  0.1415
11620W        W27804  12.858   6.720   0.594  0.0353  0.0395  0.0280
11621W        W27805   2.818  10.402  13.625  0.2270 -0.0324  0.0208
11622W        W27806   4.954  13.206  15.255 -0.0042 -0.1021 -0.1854
11623W        W27807  17.706   4.126  11.724  0.1942 -0.0281  0.0710
11624W        W27808  16.327   9.938  16.238  0.2118 -0.0225  0.1898
11625W        W27809  15.061  18.142   5.211 -0.1331 -0.2427  0.0006
11626W        W27810  13.102   3.502  13.536 -0.1930  0.3629 -0.3173
11627W        W27811   0.990  15.992  13.261 -0.0340  0.2402  0.0301
11628W        W27812  16.576  17.190   1.556 -0.1411 -0.0983 -0.0534
11629W        W27813  16.106  17.487   1.579  0.3422  0.0266  0.1114
11630W        W27814   7.400  10.637  14.769  0.1922 -0.0220 -0.1068
11631W        W27815  15.882   4.646   3.333 -0.1722 -0.2269 -0.2946
11632W        W27816  13.663  12.201  11.890  0.2664  0.3308  0.1598
11633W        W27817  14.228   9.637  15.699 -0.1752  0.1290  0.2296
11634W        W27818  14.768   2.530   4.687  0.0867  0.2517 -0.3035
11635W        W27819  16.155  13.098   3.608 -0.0146  0.1695 -0.1224
11636W        W27820   4.266  10.177   3.758 -0.1701  0.3244 -0.0718
11637W        W27821   0.011  17.349  15.728 -0.0780 -0.4694  0.2497
11638W        W27822   3.104  17.277   3.531  0.4883 -0.0532  0.0403
11639W        W27823  15.329   0.193  15.964 -0.0084  0.2537  0.3953
11640W        W27824   1.074   5.149   2.210  0.0511  0.0075  0.0941
11641W        W27825  17.029   1.416   3.375 -0.1314  0.0142  0.0270
11642W        W27826  17.567  13.483  16.379 -0.1499 -0.0865 -0.2020
11643W        W27827   3.541   4.529   5.405 -0.0450 -0.0769  0.3289
11644W        W27828  15.341   4.630   3.099 -0.0129 -0.0173 -0.1444
11645W        W27829   2.418  11.503   4.312 -0.2909  0.2217 -0.0779
11646W        W27830  18.170   3.606   3.891  0.1817  0.2085  0.2462
11647W        W27831  17.098  10.787  12.103  0.1664 -0.2671  0.1319
11648W        W27832   2.011   7.267  16.307  0.3588 -0.1853  0.0732
11649W        W27833   4.434  11.370  15.662 -0.2237 -0.2014 -0.4377
11650W        W27834  14.098  17.439  14.755 -0.0544 -0.2524  0.0545
11651W        W27835   3.760  14.459   1.342 -0.1964 -0.1383  0.1058
11652W        W27836  15.634   8.416  16.472 -0.0824 -0.2554 -0.1318
11653W        W27837  11.983  17.317  11.617  0.0494  0.0852 -0.2366
11654W        W27838   4.991   5.435   3.845 -0.0227  0.0676 -0.0030
11655W        W27839  17.624   2.551   0.352  0.2749  0.0253 -0.4238
11656W        W27840   1.119  13.196  12.171  0.2997 -0.2398  0.0333
11657W        W27841  15.976  17.130   3.670  0.1350 -0.2031 -0.0591
11658W        W27842   9.145  17.222  12.931 -0.0332  0.0248  0.0296
11659W        W27843   8.000   0.579  13.139  0.1261 -0.1967 -0.3055
11660W        W27844  17.111  14.630  12.653 -0.2213  0.1621 -0.0726
11661W        W27845  16.242  12.363   5.418 -0.2879  0.1160 -0.2710
11662W        W27846  17.939  13.773  15.138 -0.0265 -0.0096 -0.0027
11663W        W27847   4.257   0.160   0.756 -0.0665 -0.1629  0.2812
11664W        W27848  16.156   6.336  12.490  0.2952  0.1825 -0.0835
11665W        W27849   7.368   7.044  12.729  0.1579 -0.0866 -0.2366
11666W        W27850  10.785  13.649   4.271  0.0877 -0.2254  0.0508
11667W        W27851  10.160   7.427  14.744  0.1515  0.0580  0.2427
11668W        W27852  15.611  11.948   4.764  0.2427 -0.2270 -0.0345
11669W        W27853  11.845   7.088   2.559  0.0358  0.0706  0.0191
11670W        W27854  12.889   5.442   0.124 -0.2144  0.2496 -0.1379
11671W        W27855  14.989  10.959  13.321 -0.3327  0.0014 -0.0471
11672W        W27856  12.898  10.563   1.340 -0.3611  0.2034  0.0706
11673W        W27857  17.745   3.585  13.579  0.2012  0.0136  0.1750
11674W        W27858  12.626   4.707  12.468 -0.3208  0.0219  0.0377
11675W        W27859  15.276   1.071  14.658 -0.0960  0.1606 -0.4191
11676W        W27860   0.713   2.388   0.336 -0.2142 -0.3312  0.0411
11677W        W27861   9.626   9.233   3.365  0.2558 -0.1647  0.1684
11678W        W27862  14.038  16.784   6.390 -0.1365  0.2379 -0.0459
11679W        W27863  11.922   3.194   3.240  0.3933  0.1595  0.1798
11680W        W27864   8.495  18.013  13.449 -0.0734  0.0689  0.0753
11681W        W27865  10.965   5.054   4.085 -0.0156 -0.3231 -0.1144
11682W        W27866   1.843   6.484  13.124  0.0532 -0.1159  0.0684
11683W        W27867   0.570  16.899   1.999  0.1349 -0.0589  0.1980
11684W        W27868   4.254   9.804   6.370  0.1905 -0.0961 -0.0198
11685W        W27869   3.492  13.821   3.346 -0.3268 -0.0975  0.3193
11686W        W27870  16.484   3.150   2.685 -0.0737  0.0790 -0.1173
11687W        W27871  11.022   0.845   1.453  0.0766 -0.0115 -0.2882
11688W        W27872   4.906  17.864  14.296  0.4515  0.0069 -0.0639
11689W        W27873  16.502   6.347   2.444 -0.1059  0.0625 -0.1269
11690W        W27874  12.486   8.973  16.247 -0.1520  0.3090 -0.0246
11691W        W27875   2.283   2.959   4.022  0.0985 -0.4014 -0.1125
11692W        W27876  12.945  16.489   4.291 -0.1554 -0.1525 -0.0243
11693W        W27877   9.127  10.384   1.715  0.1313  0.3857 -0.0139
11694W        W27878   2.005  15.543  15.459 -0.1337 -0.0883 -0.0260
11695W        W27879   4.988   1.500  12.505 -0.0233  0.3455  0.3970
11696W        W27880   8.005   3.038   3.453  0.0634  0.1481  0.0498
11697W        W27881   8.069  15.340  16.028  0.0345  0.3024  0.0192
11698W        W27882   6.699  16.277   3.536  0.0328 -0.0986  0.0077
11699W        W27883   1.006  17.406  15.800 -0.1977  0.1146 -0.0384
11700W        W27884   9.360   0.530   1.323  0.2094  0.2699 -0.0090
11701W        W27885   2.772   0.591  16.083  0.0775  0.1001  0.0652
11702W        W27886   0.159   6.648  10.701 -0.2285  0.0915 -0.0491
11703W        W27887   2.549   8.522  13.987  0.2233 -0.1128  0.3151
11704W        W27888   3.875  17.854  14.395  0.0687 -0.4541  0.0215
11705W        W27889   5.574   8.405  16.345 -0.2598 -0.1737  0.1885
11706W        W27890   0.585  11.611   2.820 -0.1282  0.1966  0.2399
11707W        W27891   8.676   8.334   0.540 -0.0176  0.0201  0.3191
11708W        W27892   5.942   7.887   3.487  0.0003  0.0950 -0.1068
11709W        W27893  16.805   2.007  14.818  0.1238 -0.1193  0.2728
11710W        W27894  15.363  10.792  13.007 -0.1398  0.1826  0.0059
11711W        W27895   5.485  13.276   1.642  0.1236  0.2327  0.2033
11712W        W27896   0.460   5.034  16.591  0.1698  0.2687 -0.0357
11713W        W27897  14.595  12.884   4.391 -0.0088 -0.2547 -0.2737
11714W        W27898   4.427  17.800  11.579  0.0247  0.0042 -0.1225
11715W        W27899  16.237   5.278  15.250  0.0128  0.0825 -0.0439
11716W        W27900  13.511   1.309  15.592 -0.1557  0.3045 -0.1660
11717W        W27901   5.910   6.863   4.777 -0.1541  0.0719  0.0347
11718W        W27902  15.641   2.256   1.406  0.2628  0.2627  0.2952
11719W        W27903   0.596   1.850  11.477  0.1440  0.1318  0.1737
11720W        W27904  10.118   3.725  13.716 -0.0170  0.3518  0.2467
11721W        W27905   5.671   3.640  12.157 -0.2675 -0.1014  0.2191
11722W        W27906  17.951   1.703   2.214 -0.1097  0.0075 -0.2376
11723W        W27907   8.414   7.369  12.546  0.0274  0.3689 -0.3201
11724W        W27908  13.611  16.285   5.748  0.1188  0.1380  0.0234
11725W        W27909   7.016   7.361  15.949  0.1747  0.2088 -0.2505
11726W        W27910   8.593  11.460   0.569  0.0597 -0.3214 -0.0600
11727W        W27911  14.757   2.331  15.578 -0.0167 -0.1042  0.1423
11728W        W27912  16.960  10.762  13.587 -0.2164 -0.1588  0.3692
11729W        W27913   6.744  17.312   2.547  0.3549 -0.1173  0.0391
11730W        W27914   4.125  11.963  13.687  0.1469  0.2401 -0.3850
11731W        W27915  11.027  10.379   2.826  0.1706 -0.1562 -0.0675
11732W        W27916  16.241   9.774   3.233 -0.0059 -0.1580 -0.0610
11733W        W27917  14.739   5.833  15.026 -0.1056  0.3328  0.1808
11734W        W27918  11.141  15.288   1.171 -0.0011 -0.0079  0.2643
11735W        W27919   2.197  14.017  15.749 -0.0052  0.3523 -0.1238
11736W        W27920  14.175   4.549   3.988  0.0486  0.0458 -0.0726
11737W        W27921  13.411  13.572   0.470 -0.0917 -0.0988  0.1615
11738W        W27922   9.574   0.130   0.461 -0.1936  0.1919  0.0266
11739W        W27923  14.256   4.293  16.164 -0.2464  0.2627 -0.4895
11740W        W27924   7.845   0.122  14.618 -0.0610  0.1248 -0.2744
11741W        W27925   4.664  11.908  13.676  0.0159  0.1043 -0.0080
11742W        W27926  10.424   6.414  14.748  0.2534 -0.0295  0.0219
11743W        W27927  14.686  10.739   4.454 -0.2475  0.3535  0.3549
11744W        W27928   1.580   0.362  15.346 -0.0941  0.3494  0.0233
11745W        W27929   0.412   1.545  11.089  0.2214  0.1920 -0.1377
11746W        W27930  13.355  10.162  14.696  0.0123 -0.0670  0.2544
11747W        W27931  10.715  11.715   1.498 -0.1660 -0.3044 -0.0755
11748W        W27932   6.828   5.428  12.895 -0.0749  0.4163  0.1080
11749W        W27933   0.089   9.035  15.302 -0.1606 -0.1493 -0.0253
11750W        W27934  11.277  15.482   2.096  0.3092  0.2008 -0.1147
11751W        W27935   9.547   3.011  13.658 -0.0166  0.0549 -0.0027
11752W        W27936   6.277   5.034  14.985  0.0518 -0.2232 -0.2920
11753W        W27937   6.447  13.562   2.513  0.0304  0.1350  0.0718
11754W        W27938  11.310  13.256   3.607  0.2814 -0.3244 -0.1697
11755W        W27939   5.656   9.722  13.701 -0.2023  0.4109 -0.0135
11756W        W27940   1.842  16.766  11.575 -0.0499  0.3992  0.0152
11757W        W27941  15.956   7.621   3.447 -0.0047  0.0302 -0.1004
11758W        W27942   8.082  14.091   4.008  0.0045  0.1272 -0.2930
11759W        W27943   2.129  15.828   1.709 -0.3358  0.1831  0.1156
11760W        W27944   2.939   2.567  11.892  0.1561 -0.1252 -0.0815
11761W        W27945   6.869   7.803   5.775  0.0598  0.0147  0.0333
11762W        W27946   5.295  14.755  14.737  0.2712  0.1444  0.0159
11763W        W27947   7.703   7.635   1.194 -0.3079  0.0334 -0.1853
11764W        W27948   3.724   1.320   0.294  0.1354 -0.3349 -0.2297
11765W        W27949   2.550  16.946   0.112  0.2065 -0.1461 -0.1458
11766W        W27950   1.869   4.435  15.338  0.0332  0.2756 -0.3445
11767W        W27951   2.288  14.424  13.986 -0.1469  0.3217  0.0881
11768W        W27952  12.883  12.584  14.332 -0.0655 -0.1400 -0.1783
11769W        W27953  11.346  17.188   0.469 -0.0304 -0.1590 -0.0047
11770W        W27954  15.851   1.836  12.802  0.2798 -0.0199 -0.0134
11771W        W27955  13.517   3.812   1.511  0.2159 -0.1462  0.0464
11772W        W27956   7.529   2.937  13.908 -0.0875  0.2230 -0.0059
11773W        W27957  11.576   7.465   0.252 -0.1283  0.2807 -0.2816
11774W        W27958  15.406  14.557   1.058  0.4799 -0.1278  0.0423
11775W        W27959  10.184   1.730  15.594 -0.1338 -0.1978  0.0688
11776W        W27960   9.958   5.059   6.387 -0.2517 -0.1350 -0.2290
11777W        W27961   6.835  12.283   2.387 -0.0063 -0.1650  0.3342
11778W        W27962  16.174  18.115   4.310  0.0115  0.1585 -0.2484
11779W        W27963   9.732   9.074   1.509 -0.0560 -0.5367 -0.2356
11780W        W27964   5.388   5.320   1.945 -0.1429 -0.0469 -0.2003
11781W        W27965   0.795   4.206  12.341  0.0391 -0.1239 -0.0504
11782W        W27966   4.841   9.553   0.832  0.3950  0.1706 -0.1804
11783W        W27967   5.608   2.550   5.474 -0.0481 -0.2225  0.1831
11784W        W27968   4.412   5.489   4.676  0.2210 -0.1666 -0.1297
11785W        W27969  17.116   1.355   5.113  0.0316  0.1456 -0.1927
11786W        W27970  13.672  10.298   0.356  0.2428 -0.1935  0.4438
11787W        W27971  15.244  14.829   0.662  0.0914  0.0581 -0.3278
11788W        W27972   9.905   5.963  12.815  0.1081  0.1143  0.0306
11789W        W27973  13.956   5.113  10.742 -0.0337 -0.1428  0.6094
11790W        W27974  14.540  11.442   0.748 -0.0161  0.0547  0.0562
11791W        W27975   0.618   8.152   2.703 -0.1906 -0.1150 -0.1738
11792W        W27976  13.902  16.112   2.276  0.0642  0.1312 -0.1648
11793W        W27977   7.247  11.790  14.035  0.0203 -0.0079  0.0526
11794W        W27978   5.490   1.549   3.199 -0.1400  0.2413  0.0738
11795W        W27979   2.622  10.802   0.399 -0.1660  0.0390 -0.0280
11796W        W27980  17.288  12.481  14.867  0.0141  0.1095 -0.0546
11797W        W27981   3.010   5.995   2.031  0.0691  0.1540 -0.0580
11798W        W27982   4.168   9.607   3.093 -0.1798 -0.0489  0.0431
11799W        W27983   3.703   9.234   3.313  0.2880 -0.0108  0.0866
11800W        W27984   0.848  17.801  15.505 -0.3079 -0.1764  0.0662
11801W        W27985  11.103   7.671  13.627  0.0117 -0.2107  0.1703
11802W        W27986   8.663   9.234   2.401 -0.2393  0.1283 -0.0020
11803W        W27987  14.368   3.524   3.096  0.0915  0.0518  0.0376
11804W        W27988  13.490   3.239   4.762 -0.1377 -0.1008 -0.0053
11805W        W27989  11.561   4.153   2.206  0.0626  0.3891  0.3158
11806W        W27990   2.037   1.237   4.142 -0.1217 -0.3424  0.0851
11807W        W27991   9.792  11.818  13.450 -0.0955  0.2307 -0.1033
11808W        W27992   8.188  13.481   4.026 -0.0590 -0.2526  0.0974
11809W        W27993  16.973   1.703   2.650 -0.2660  0.1735  0.0215
11810W        W27994  13.388  13.984  15.054  0.3163 -0.0108  0.1517
11811W        W27995  15.945   6.260  15.581 -0.0512  0.1549  0.2135
11812W        W27996  16.913   2.152   4.181  0.2201  0.1616  0.2791
11813W        W27997   3.066  12.557   5.206 -0.0024 -0.0374  0.0890
11814W        W27998  15.442   4.539  12.165 -0.1736  0.2119 -0.0321
11815W        W27999  15.446  15.948   4.572 -0.2162 -0.2872  0.1292
11816W        W28000  16.935   9.354  12.845 -0.1376  0.0744 -0.5631
11817W        W28001   4.152  13.302  13.628  0.1633  0.2367 -0.0919
11818W        W28002  10.478   6.028   3.994  0.0179  0.1443 -0.3110
11819W        W28003  15.116  13.966  15.857  0.1195 -0.0535 -0.0825
11820W        W28004  12.288  15.766   3.190 -0.1821  0.1469 -0.0316
11821W        W28005  15.653  17.128  16.144 -0.1939  0.0321 -0.0951
11822W        W28006  14.382   2.053  13.559  0.1934 -0.0593 -0.0929
11823W        W28007  14.612   5.710  11.436 -0.2099 -0.1444 -0.0132
11824W        W28008   6.056   6.485   1.806  0.3554  0.0733 -0.0156
11825W        W28009   4.654   0.535   1.678  0.3024  0.2285  0.0922
11826W        W28010   4.517   7.652   2.311 -0.0669 -0.1537  0.1827
11827W        W28011   0.603   6.905  11.989  0.1293  0.0313 -0.1656
11828W        W28012   4.308   7.434  16.567 -0.0072  0.2029 -0.1447
11829W        W28013   9.209   7.358   2.620  0.0010 -0.2955  0.0881
11830W        W28014   8.151  12.065  14.312  0.0132 -0.0154  0.0165
11831W        W28015  17.985   2.101   0.518 -0.0582 -0.3038 -0.1911
11832W        W28016  12.240  17.371  15.762  0.0765 -0.0739 -0.1597
11833W        W28017   6.638   8.741  14.278 -0.0872  0.0220 -0.3931
11834W        W28018   9.909   4.311  14.948  0.0495 -0.0163 -0.2145
11835W        W28019   7.709  10.362   5.628 -0.3366 -0.0056 -0.4662
11836W        W28020   8.690   6.953   4.375 -0.2702  0.1513  0.2741
11837W        W28021  17.187   4.929   0.005 -0.1185  0.3112  0.0063
11838W        W28022  17.824   9.079  14.421 -0.0049 -0.0904  0.1198
11839W        W28023  17.790   8.146  13.937  0.0533  0.0173 -0.2587
11840W        W28024   8.839   5.706  14.679 -0.1368  0.2697 -0.1646
11841W        W28025   5.398  15.180  13.162  0.0220 -0.1278  0.1061
11842W        W28026  17.848  16.927   3.110 -0.1052  0.2138  0.1949
11843W        W28027  17.588   4.719   2.700 -0.0141  0.4239 -0.0329
11844W        W28028   8.534  16.224   3.907 -0.0609 -0.0986  0.0475
11845W        W28029  14.824  16.200   3.155 -0.0993 -0.2801  0.0331
11846W        W28030  12.758  14.628   2.265 -0.0304 -0.1203  0.1713
11847W        W28031   3.931  13.320   4.518  0.1599 -0.0516 -0.0512
11848W        W28032   2.419   1.145   4.423 -0.0803 -0.0003  0.3562
11849W        W28033  10.194   6.903  14.661 -0.1891 -0.3419 -0.0234
11850W        W28034  16.400   1.706  14.079  0.0393  0.0416  0.1295
11851W        W28035  15.895  13.629   0.802 -0.3005  0.1324  0.1996
11852W        W28036   8.062  17.481  12.831 -0.4934 -0.0085  0.0525
11853W        W28037  16.927   1.132  15.821 -0.1980  0.0087  0.1449
11854W        W28038  17.747  14.169  14.801 -0.0221  0.0955 -0.2606
11855W        W28039   7.009   2.098   1.878 -0.0751 -0.0213 -0.2350
11856W        W28040   6.626   5.307   0.369  0.2589 -0.1346 -0.3552
11857W        W28041   2.948  15.411   0.268  0.0184  0.4340  0.1523
11858W        W28042   8.680  12.261  16.463 -0.5002  0.0162  0.1234
11859W        W28043   3.673   0.103  16.415  0.0739  0.1144 -0.0839
11860W        W28044   2.688  15.984   2.555 -0.0252  0.0383  0.1934
11861W        W28045   2.852  12.099  13.667  0.0124  0.2409  0.1939
11862W        W28046   2.712  11.488  15.899 -0.0362 -0.0234  0.0347
11863W        W28047   3.747  15.251   2.389 -0.2002 -0.4392  0.1528
11864W        W28048   4.527  11.582   5.068  0.0487 -0.0156  0.0026
11865W        W28049  11.848  16.988  13.161  0.2944 -0.1221 -0.0516
11866W        W28050   4.355   9.097  15.015  0.2083  0.2864 -0.0457
11867W        W28051  13.069  17.539   0.455  0.0532 -0.1836 -0.1559
11868W        W28052  14.109   0.423   1.227 -0.0552 -0.0114 -0.0465
11869W        W28053  16.675   9.948   3.412  0.0050  0.4146 -0.1730
11870W        W28054  15.388  12.463   5.196  0.1740  0.3496  0.2964
11871W        W28055  13.147   3.875  11.641  0.6071  0.1610 -0.1981
11872W        W28056   2.461   8.938   3.414  0.2602  0.1702 -0.4206
11873W        W28057   0.657   2.401   1.630  0.0319 -0.0113 -0.2822
11874W        W28058   2.245  15.814   2.318  0.1378  0.1147 -0.0915
11875W        W28059   6.668   3.162   0.667 -0.0160 -0.2624  0.1663
11876W        W28060  11.217   0.178   4.695 -0.1488  0.1868 -0.1143
11877W        W28061   7.622   2.921   6.305  0.0544 -0.1222  0.3303
11878W        W28062   4.867  13.807  14.413 -0.2203  0.5735 -0.0909
11879W        W28063   9.481   9.496   0.681  0.1598  0.2514 -0.1978
11880W        W28064   0.968   9.909   5.295 -0.0755 -0.0497 -0.1153
11881W        W28065   8.990  11.308   5.236 -0.0390 -0.0842 -0.2152
11882W        W28066   2.426  13.241  15.272 -0.4912  0.0995  0.2815
11883W        W28067   4.323   2.801   5.048 -0.2684  0.0351 -0.1780
11884W        W28068   3.796   5.021  10.605  0.0612 -0.3424 -0.1896
11885W        W28069   5.908  15.714  15.397  0.4193  0.3319  0.1362
11886W        W28070  15.239   2.364  12.204  0.2836 -0.2978 -0.2427
11887W        W28071   6.416   7.739   3.520  0.4231 -0.0890  0.0299
11888W        W28072   8.018   6.966  14.781  0.1209  0.0808  0.0325
11889W        W28073   2.980   9.413  14.402 -0.0632  0.2008 -0.3287
11890W        W28074   9.583  16.810   0.770 -0.2981 -0.0572 -0.1143
11891W        W28075   1.751   8.941  13.962 -0.0019 -0.0976  0.0804
11892W        W28076   8.213   3.952   5.061  0.0254  0.1087  0.2488
11893W        W28077   2.952  16.294   5.703  0.2885  0.3500 -0.2123
11894W        W28078   2.116  13.700   5.736 -0.2939 -0.1953  0.0575
11895W        W28079   2.402  17.159  13.251 -0.0137 -0.0278  0.0680
11896W        W28080  12.545  13.204   4.172  0.3897 -0.0961 -0.1542
11897W        W28081   3.291  11.094  12.992 -0.2247  0.0885 -0.1232
11898W        W28082  16.514  12.587   2.870  0.1003 -0.1032  0.4432
11899W        W28083   3.712   3.891  14.541 -0.2529  0.2350 -0.0477
11900W        W28084  10.542   3.131   2.391  0.0686  0.2178 -0.1392
11901W        W28085   5.297   1.737  15.326  0.1517 -0.1247  0.2838
11902W        W28086  12.235   0.487   5.038  0.0218  0.0625  0.0768
11903W        W28087  17.715  11.913   4.647  0.1603  0.1209 -0.0808
11904W        W28088  11.571  16.093   1.509 -0.1202 -0.0430 -0.1036
11905W        W28089  17.070  10.871   3.361 -0.1323 -0.0518  0.2831
11906W        W28090   4.054  17.872  16.565  0.1393 -0.2019  0.0691
11907W        W28091  15.928  13.305   4.615  0.3335  0.0636  0.1937
11908W        W28092  11.599   3.267  12.630  0.2470 -0.0738  0.1188
11909W        W28093  13.357   6.289   4.228 -0.2709  0.0483  0.1112
11910W        W28094  16.085   6.898  13.449  0.2928 -0.0677  0.2592
11911W        W28095  11.773  13.208   2.875 -0.3835 -0.0631 -0.1628
11912W        W28096   9.114   4.024  11.784 -0.1334 -0.2589 -0.0003
11913W        W28097   6.453  16.629   6.832  0.2808 -0.0882 -0.1509
11914W        W28098   4.918   3.381  14.568 -0.4507  0.0313  0.0192
11915W        W28099  11.515  16.194  15.555  0.1261  0.0323  0.1536
11916W        W28100   9.343  14.982  13.578 -0.1679 -0.0956 -0.1652
11917W        W28101  10.200  15.158  12.315 -0.3970  0.0070  0.1383
11918W        W28102  16.365  12.295  11.636  0.0909  0.1523 -0.1145
11919W        W28103   0.573  11.022   5.681 -0.1250 -0.2562 -0.0366
11920W        W28104   0.397  17.715  12.582  0.1169 -0.2247  0.0208
11921W        W28105  10.459  13.134   2.635 -0.0366 -0.0006 -0.0888
11922W        W28106   9.713  11.120  12.010 -0.1432 -0.1601 -0.3363
11923W        W28107   3.294   8.830   5.281  0.0108  0.1655  0.1091
11924W        W28108  13.076  11.141  16.381  0.3017 -0.1141 -0.0244
11925W        W28109  15.631   6.035   2.985  0.1352  0.0655 -0.1525
11926W        W28110  18.112   4.198   4.345 -0.1394 -0.0925  0.0914
11927W        W28111   2.424  10.839   3.704  0.1012  0.0975 -0.2150
11928W        W28112  10.051  17.549  14.844  0.0824 -0.1200  0.0427
11929W        W28113  13.234   9.724  14.514 -0.1730 -0.0452  0.1645
11930W        W28114   2.810   5.965   3.735 -0.1541  0.0428  0.0767
11931W        W28115   3.444   7.425  13.161 -0.0813 -0.2253 -0.0916
11932W        W28116  15.279   5.863  12.970 -0.2407 -0.1208 -0.0912
11933W        W28117  12.962  12.258   4.126  0.2778  0.0398  0.0005
11934W        W28118   8.975   8.523  12.023 -0.1552 -0.0951  0.2812
11935W        W28119   1.396  12.224   1.441 -0.1560  0.2472  0.0246
11936W        W28120   5.901  15.765   3.459  0.0374  0.1345  0.3539
11937W        W28121   6.573   5.629   5.589  0.0027 -0.0833  0.0123
11938W        W28122  16.285   5.711   2.420  0.1662  0.1562  0.0579
11939W        W28123  14.162  13.276   3.638 -0.1644  0.0115  0.0213
11940W        W28124  11.388   3.923   3.785 -0.0991  0.1037 -0.0455
11941W        W28125  14.072  14.122   0.040 -0.1013  0.0755 -0.0866
11942W        W28126  12.779   9.354  14.575 -0.0968 -0.0251 -0.1049
11943W        W28127   4.915   6.803  13.599 -0.0302  0.0437  0.2217
11944W        W28128   4.554  10.837  14.701 -0.1647 -0.0795  0.0456
11945W        W28129  12.462  10.019   4.001  0.1142 -0.3475 -0.2191
11946W        W28130  15.451   0.760   3.016 -0.2403 -0.0012 -0.0397
11947W        W28131   3.246  15.757   3.493  0.0308 -0.2829  0.2663
11948W        W28132  16.198  15.483  14.530 -0.1944 -0.1849 -0.2433
11949W        W28133  15.371   5.766  10.742  0.1193 -0.2061 -0.0411
11950W        W28134  16.958   2.030   1.695  0.0707 -0.4225 -0.0390
11951W        W28135  17.625  10.918   2.485  0.2903 -0.2998  0.1827
11952W        W28136   8.894  12.640  16.248 -0.0604  0.1057 -0.0346
11953W        W28137   0.779   9.429  12.032  0.1858 -0.2720 -0.5188
11954W        W28138   3.231  14.589   1.783 -0.0966 -0.2227  0.1959
11955W        W28139   1.073  15.649   2.989 -0.0156  0.0946 -0.5116
11956W        W28140  17.667  17.989   3.945 -0.2764 -0.3667 -0.1257
11957W        W28141   4.977   3.176   1.437 -0.1756 -0.1159 -0.0624
11958W        W28142   2.446   9.762   1.396 -0.1158 -0.2024 -0.1262
11959W        W28143  16.764   2.144   2.665  0.1453 -0.2221 -0.0186
11960W        W28144   2.071   6.170   5.294 -0.1150  0.0810 -0.0970
11961W        W28145  10.172   8.460  12.741  0.1859  0.2055 -0.0392
11962W        W28146  14.064  12.254   1.164  0.2433  0.0832  0.0410
11963W        W28147  12.889   4.557   4.412  0.2181  0.0198  0.2592
11964W        W28148   9.712   3.730   0.089 -0.1984  0.2370  0.1653
11965W        W28149  15.028   3.977  13.942 -0.0359  0.2914 -0.0208
11966W        W28150  10.182   8.526  15.226 -0.3666 -0.1568  0.0325
11967W        W28151   9.499  18.089  15.223  0.1442 -0.0877  0.1023
11968W        W28152  10.167   2.310  12.526  0.0050  0.0151  0.1708
11969W        W28153   1.415   5.947  16.373 -0.0201 -0.1717  0.1834
11970W        W28154  15.219   4.585  14.574 -0.0021  0.0944 -0.0703
11971W        W28155  11.054  13.807  13.689 -0.0823 -0.0901 -0.4533
11972W        W28156  12.971   0.958  16.630  0.1714 -0.2836 -0.0984
11973W        W28157  15.949  11.213  12.750 -0.3819 -0.4264 -0.0017
11974W        W28158   5.979   2.421   3.632  0.0164 -0.0764 -0.0749
11975W        W28159   2.206   0.145   3.294  0.1369  0.2275 -0.0205
11976W        W28160  14.031  14.572  12.659 -0.2189  0.2339 -0.0720
11977W        W28161   6.662   3.771   5.670 -0.0697 -0.1055  0.2851
11978W        W28162   1.157   9.449  15.319 -0.0921 -0.1887  0.1551
11979W        W28163   3.797   1.726   1.485  0.3902  0.0771  0.3508
11980W        W28164  16.377  17.346   2.975  0.1979 -0.0435 -0.1913
11981W        W28165   6.050  10.374  12.969  0.1233 -0.2771 -0.1369
11982W        W28166   3.991   2.340  13.882  0.1534  0.2806  0.2832
11983W        W28167   0.598   9.701   3.344  0.2033  0.1165  0.0419
11984W        W28168  13.039   7.453   1.557  0.0229 -0.0777  0.5965
11985W        W28169   6.827  14.186   1.856 -0.1416  0.0036 -0.3906
11986W        W28170   3.382  14.229   2.349 -0.2511 -0.1387 -0.0494
11987W        W28171   3.950   8.499   5.529  0.1823  0.0955 -0.2673
11988W        W28172   7.797  12.522  15.040  0.1654  0.2061 -0.2440
11989W        W28173   7.232   5.416  11.829  0.3908  0.4781 -0.2149
11990W        W28174  12.271  10.985  14.589  0.3695 -0.1678  0.0886
11991W        W28175  13.198   4.556   1.998  0.1348 -0.1141  0.0346
11992W        W28176   3.523   4.217   1.400 -0.2111 -0.1833  0.2889
11993W        W28177   9.851   4.048   5.686  0.0507 -0.3499 -0.2160
11994W        W28178   9.677   7.473   5.764  0.0010  0.1528 -0.0282
11995W        W28179   9.702  13.434  13.864  0.2556  0.1369  0.2414
11996W        W28180   4.059   0.907  14.270 -0.0856 -0.1583  0.3806
11997W        W28181   9.708   9.277   2.535  0.2347 -0.3887  0.2333
11998W        W28182   8.819  12.292  12.132  0.3028 -0.1635 -0.0524
11999W        W28183   1.382  14.337   0.061  0.1016 -0.0461  0.1758
12000W        W28184  12.033   3.700   3.645 -0.1281 -0.0806  0.0192
12001W        W28185  17.875   7.326   4.025 -0.2638  0.3711 -0.1581
12002W        W28186   4.402  10.746   2.607  0.0480  0.0846  0.2717
12003W        W28187  12.745   7.513  12.740  0.3176  0.2405 -0.2394
12004W        W28188  17.338   1.414   0.523  0.1618 -0.1073 -0.1271
12005W        W28189   3.816   1.030   4.610  0.1280 -0.0661  0.1237
12006W        W28190   8.431  16.619   4.870  0.1716  0.5145  0.4350
12007W        W28191   6.586  11.400  14.211  0.1165 -0.2619  0.3568
12008W        W28192  15.048   1.496   3.714 -0.3610 -0.0140 -0.0169
12009W        W28193  10.924   4.819  13.091 -0.2601 -0.2216  0.2178
12010W        W28194   5.466  14.703  15.210  0.0244  0.2003 -0.0880
12011W        W28195   5.786  13.278  14.175  0.2090 -0.1805 -0.1063
12012W        W28196   2.273  18.046  14.072  0.0044 -0.0115 -0.0075
12013W        W28197  15.383  11.995  14.505 -0.0906 -0.2972 -0.0758
12014W        W28198  12.391   9.996   2.399  0.3465  0.0954  0.0631
12015W        W28199  14.281   8.997  14.753 -0.4141  0.0892  0.3099
12016W        W28200  13.612   9.357   4.644  0.1348  0.0277  0.0394
12017W        W28201   0.455   1.844  13.140 -0.0580  0.0502 -0.0191
12018W        W28202   9.000  14.557   2.449  0.0567 -0.1462  0.0210
12019W        W28203  13.015   7.671   0.630 -0.0791  0.1541  0.0669
12020W        W28204   6.192  13.220   3.460  0.2836  0.1888  0.1299
12021W        W28205   9.971   7.068   4.680 -0.0381  0.0827 -0.1018
12022W        W28206  11.060  16.500   2.173 -0.4565  0.1849  0.3205
12023W        W28207   9.330   7.907  16.454 -0.1348  0.0674  0.0239
12024W        W28208   7.345   4.208   2.353  0.2917 -0.0999  0.0696
12025W        W28209  16.115  12.006  15.159  0.2442  0.2843 -0.0777
12026W        W28210  10.141   8.387   3.439 -0.1198 -0.1514  0.4824
12027W        W28211  13.300   7.144   4.754  0.1335  0.1962 -0.0964
12028W        W28212   6.432   4.522   4.424  0.1336  0.0553  0.0523
12029W        W28213  10.120   6.715  15.227 -0.1667  0.1099 -0.3433
12030W        W28214   6.482   8.191  13.895 -0.1304  0.3341 -0.1594
12031W        W28215  15.381  15.466   1.476 -0.0396 -0.0683 -0.0759
12032W        W28216   5.340  12.153   3.364  0.2776 -0.0997 -0.0707
12033W        W28217  10.940  16.619   3.553  0.2705  0.0721  0.0518
12034W        W28218  11.335  14.841   6.154 -0.0912  0.1243 -0.0384
12035W        W28219  14.529   2.462   2.167  0.0108 -0.0639 -0.1775
12036W        W28220   6.248  17.069  15.342 -0.3706  0.0010 -0.4469
12037W        W28221   6.347   4.872   4.839 -0.2873  0.1377 -0.2302
12038W        W28222   3.427   7.168   0.024 -0.0377 -0.2487 -0.0537
12039W        W28223  11.647  14.813  13.456 -0.1060 -0.0591 -0.0945
12040W        W28224   8.599   1.651   5.253  0.0500 -0.4317  0.1807
12041W        W28225  10.335  13.531  15.225 -0.1412  0.0346 -0.3540
12042W        W28226  10.255   9.376   3.895  0.2510 -0.0207 -0.1542
12043W        W28227  11.421  11.364  15.460  0.1362 -0.2840 -0.2608
12044W        W28228  15.875  15.268  16.049  0.0131 -0.1222  0.0641
12045W        W28229  10.785   2.335   3.225  0.1559 -0.1904 -0.1308
12046W        W28230  13.532  15.907  14.770  0.0272 -0.0087 -0.0080
12047W        W28231   0.629  10.355   2.624 -0.0438 -0.0159  0.0410
12048W        W28232   5.674  10.433  14.699 -0.1443  0.1491  0.1219
12049W        W28233  15.459   6.757  10.885  0.2391 -0.0459 -0.1391
12050W        W28234  12.037   7.955  16.172 -0.0165 -0.0912  0.0538
12051W        W28235   4.178  14.807   5.431  0.0559 -0.2469 -0.1672
12052W        W28236   1.624  16.892   2.861 -0.2249 -0.0251 -0.3273
12053W        W28237   2.460   9.907   2.247  0.2547  0.3927 -0.1028
12054W        W28238  13.356   5.697  10.755  0.2873  0.1014  0.4045
12055W        W28239  15.385   0.184   1.311 -0.0540  0.0313  0.2465
12056W        W28240   6.105  10.504   3.649  0.0853 -0.0141 -0.5520
12057W        W28241  11.226   3.133  12.275 -0.1720 -0.0077 -0.0484
12058W        W28242   9.661   1.493   0.910 -0.0569  0.0119 -0.1479
12059W        W28243   1.260   0.668   5.341 -0.0477  0.0949 -0.3562
12060W        W28244   2.320   9.782   4.471 -0.1801 -0.4560  0.0998
12061W        W28245   3.263  16.574  13.702  0.1280 -0.1275  0.0167
12062W        W28246   2.095  12.644   2.065  0.1886  0.1425  0.1809
12063W        W28247   3.234   2.670  12.272 -0.0496 -0.4069 -0.4005
12064W        W28248  14.522  10.743   2.492  0.1249  0.2994 -0.1153
12065W        W28249  15.544  16.995  13.856 -0.2406 -0.2550 -0.3407
12066W        W28250   3.141  10.457   4.934  0.0849 -0.1273 -0.4525
12067W        W28251   4.858  16.725  15.361 -0.2587  0.2564 -0.1700
12068W        W28252   6.729   2.535  16.622  0.1142 -0.0242 -0.1425
12069W        W28253   3.004   0.351   1.061  0.0055  0.1346 -0.0714
12070W        W28254   5.119  10.637   2.188 -0.2532  0.0682 -0.2286
12071W        W28255   7.540  10.040  12.084  0.0823 -0.2421  0.2919
12072W        W28256   5.422  11.705  12.573  0.0418  0.0575  0.2306
12073W        W28257  10.413  10.334  12.328  0.0971 -0.0727 -0.2586
12074W        W28258  15.737  14.359   3.865 -0.1140 -0.1613 -0.1205
12075W        W28259  16.249   3.789   0.278  0.1301 -0.0469  0.0840
12076W        W28260   2.854   9.543   1.236 -0.4067  0.3004 -0.1051
12077W        W28261   0.123   8.425  11.470 -0.1561  0.0909 -0.1066
12078W        W28262   3.463   8.242   0.343 -0.1983 -0.1262  0.3225
12079W        W28263  11.756  14.185   2.343 -0.2811  0.1115 -0.1112
12080W        W28264  17.528   8.144  11.614  0.1386 -0.0594 -0.1233
12081W        W28265   3.184   2.060  14.038 -0.3486  0.0982 -0.1928
12082W        W28266  12.916   8.614   0.796 -0.3061 -0.0575 -0.0762
12083W        W28267   4.038   0.064   3.267  0.1245 -0.0802 -0.0776
12084W        W28268   6.207   9.175   2.777 -0.1307  0.2241 -0.1835
12085W        W28269  13.214   1.469   2.317 -0.2592  0.1782 -0.2322
12086W        W28270   5.340   9.888  12.976  0.1226  0.0568 -0.1819
12087W        W28271   0.496   4.424  11.960  0.1857  0.0065  0.0918
12088W        W28272   5.532   6.656  15.111 -0.0341 -0.2009 -0.1304
12089W        W28273  14.819  12.455   1.615  0.0332  0.0372 -0.2760
12090W        W28274   5.779  10.215   4.749  0.1241  0.1769  0.0635
12091W        W28275  11.949   4.525  16.432  0.1732  0.0850 -0.0817
12092W        W28276   9.351   0.064   2.502 -0.0021  0.1286 -0.0837
12093W        W28277   3.631  13.197  12.490 -0.3747 -0.3898 -0.0128
12094W        W28278  13.139  14.442   0.938 -0.2308  0.0388 -0.2424
12095W        W28279   2.891  11.811  14.121 -0.1527 -0.1161 -0.0452
12096W        W28280  14.551   6.416   4.434  0.1324  0.1697 -0.4315
12097W        W28281  11.933  13.321  13.533 -0.3833  0.0371 -0.0001
12098W        W28282   2.188   4.720  15.084 -0.2155  0.1076 -0.1756
12099W        W28283   1.466  14.166   4.819 -0.0688 -0.0138  0.1743
12100W        W28284   3.339   5.537  10.012 -0.1280  0.2707  0.0806
12101W        W28285   4.718   7.996  14.463 -0.0842 -0.1360  0.0103
12102W        W28286   3.289  15.135   0.617 -0.1128 -0.1608 -0.0101
12103W        W28287   8.353   2.543  11.361  0.0117  0.0465 -0.2409
12104W        W28288  11.015  15.694  14.269  0.0360  0.2998 -0.0551
12105W        W28289   9.754   7.492   4.410  0.0019 -0.0997 -0.2752
12106W        W28290  12.962  15.580  11.555  0.0770 -0.1414  0.1454
12107W        W28291   4.813  17.761   4.210  0.0195  0.1338  0.0279
12108W        W28292   0.599  10.141  11.485  0.0982  0.2731 -0.1245
12109W        W28293  14.004   4.720  14.040 -0.0239 -0.1226  0.0206
12110W        W28294   1.299   5.397  11.201  0.1931  0.2972  0.3952
12111W        W28295   1.383  17.295   3.135 -0.2427  0.1483  0.1701
12112W        W28296   7.602   5.099  11.704 -0.0553 -0.1261  0.2528
12113W        W28297  16.362  17.388   2.058 -0.2559  0.1481  0.0832
12114W        W28298  10.441   3.869  13.339 -0.1041  0.1809 -0.4277
12115W        W28299  15.743   3.506   3.746 -0.1780  0.1032 -0.0938
12116W        W28300   3.877   9.200   4.698 -0.1466  0.1564 -0.1756
12117W        W28301  13.522  17.631  10.696 -0.2507  0.1761 -0.2091
12118W        W28302   4.975  13.285  13.735 -0.0818  0.1648 -0.2467
12119W        W28303  10.620   5.865  14.228  0.3467 -0.0625 -0.0975
12120W        W28304   6.198   4.351   0.337  0.0612 -0.0692 -0.0122
12121W        W28305  11.168  14.579   3.683  0.0671 -0.3267 -0.0092
12122W        W28306  13.536   8.697   1.923 -0.0261 -0.0398  0.0568
12123W        W28307  13.596  13.094  11.700 -0.1115  0.0587  0.3239
12124W        W28308   9.395   3.739  12.096 -0.1641  0.1485 -0.0977
12125W        W28309   5.315  17.319  14.838 -0.0271  0.0569  0.0730
12126W        W28310   7.136  11.052   2.712  0.1120 -0.0547  0.0318
12127W        W28311   6.537  10.744   3.985 -0.3560 -0.0891 -0.1481
12128W        W28312   2.661  12.718   1.853  0.2157  0.0059 -0.0824
12129W        W28313  11.183   0.175   5.252  0.2581  0.1401  0.0883
12130W        W28314  17.807  16.071   3.681 -0.1263 -0.0394 -0.0776
12131W        W28315  14.844  15.237  12.715  0.1391 -0.1731 -0.0167
12132W        W28316   3.670  17.082   4.182 -0.1092  0.1617  0.1439
12133W        W28317   9.624   4.836   2.612 -0.3734 -0.2031  0.5035
12134W        W28318  11.839  12.083  14.427 -0.0386  0.1528  0.0834
12135W        W28319  11.007   5.882   0.539  0.1948  0.0456 -0.0392
12136W        W28320  12.592  13.024   0.178 -0.1765 -0.2863 -0.1367
12137W        W28321   2.160   5.257  15.965 -0.1671  0.1231 -0.0955
12138W        W28322  12.642  11.920   1.539 -0.0798  0.1654 -0.1499
12139W        W28323   7.896   1.697  16.374 -0.1905  0.0410 -0.0618
12140W        W28324   3.953   1.791   0.261 -0.0855 -0.1344 -0.0575
12141W        W28325  11.365  14.758   1.098 -0.1583 -0.0107  0.1976
12142W        W28326   0.554   1.638  13.653 -0.4635  0.5165  0.0086
12143W        W28327   0.239  14.213  15.890  0.2105 -0.1259  0.2167
12144W        W28328  15.703  15.182  13.351  0.0524 -0.2209 -0.1678
12145W        W28329  13.516   8.711  15.413 -0.0560 -0.2474  0.0796
12146W        W28330   2.824   4.675  14.202 -0.2183 -0.1124  0.1519
12147W        W28331  16.578   4.177   0.491  0.0234  0.1552 -0.0019
12148W        W28332   9.941   9.914   4.730 -0.1182  0.1167  0.3859
12149W        W28333  18.033  13.855  14.069 -0.2053  0.2804  0.0647
12150W        W28334   3.737   6.521  11.333 -0.0558  0.1329  0.0526
12151W        W28335   9.392  11.813   5.296 -0.0172 -0.0294  0.0921
12152W        W28336  11.119  10.065   3.787  0.0012 -0.1977  0.0660
12153W        W28337   7.319   0.379  14.868  0.3749  0.0003  0.0921
12154W        W28338   9.572  12.706  15.559 -0.0154  0.1845  0.1755
12155W        W28339  16.201  14.617   3.091  0.2812 -0.1836  0.1854
12156W        W28340   8.108  17.549   1.794  0.0406 -0.1614  0.0917
12157W        W28341  16.681   5.636  13.719  0.1360  0.1234  0.1615
12158W        W28342  15.160   8.640  12.053  0.1574 -0.1117 -0.0325
12159W        W28343   9.559   3.147   3.796 -0.0746 -0.1224 -0.2054
12160W        W28344  15.139  14.688   2.688 -0.0243  0.1873 -0.1387
12161W        W28345  16.117   6.907  16.584 -0.2091 -0.1441  0.1405
12162W        W28346   7.554   0.012   5.695 -0.4873  0.2051 -0.0058
12163W        W28347  14.776   3.130  10.848  0.1503 -0.0256  0.1550
12164W        W28348   9.812  12.035   5.499  0.2113  0.4044 -0.0924
12165W        W28349  13.069  13.449  16.633  0.2549  0.0758  0.0178
12166W        W28350   8.283   0.635   5.672 -0.1198  0.0458  0.0680
12167W        W28351   5.607   5.459   0.459 -0.1762 -0.2545 -0.3758
12168W        W28352  15.690  13.880   4.075  0.0678  0.0972 -0.0849
12169W        W28353   5.657   0.140  14.099  0.1484  0.3051 -0.0763
12170W        W28354  11.646   3.832   0.352 -0.4989 -0.1204  0.3002
12171W        W28355   5.683   8.338  12.398 -0.0585 -0.1198 -0.1381
12172W        W28356   5.495   9.328   1.232 -0.0954 -0.1947 -0.0800
12173W        W28357  13.914  12.731   1.287  0.0805 -0.1817 -0.0719
12174W        W28358   1.067   4.251  15.645 -0.1998  0.0437 -0.0748
12175W        W28359   1.581   6.294   2.911 -0.2356 -0.0118  0.0974
12176W        W28360  13.729   6.921  16.589  0.2708  0.1385 -0.0564
12177W        W28361  12.041  12.477   2.254 -0.3272 -0.2419 -0.0117
12178W        W28362  13.187  10.318  15.562 -0.0507 -0.0103 -0.1517
12179W        W28363   4.441  10.010  15.202 -0.0377  0.0773 -0.0332
12180W        W28364   0.400   1.993   3.296  0.1271 -0.0113  0.2520
12181W        W28365  12.316   0.769  13.681 -0.1078 -0.2131 -0.0804
12182W        W28366   9.870   4.863   2.139  0.0303 -0.2323 -0.1431
12183W        W28367   8.624   4.298   4.245 -0.4310  0.0309  0.0107
12184W        W28368  15.478  17.469   3.181 -0.1248 -0.0571  0.0100
12185W        W28369   4.039   7.844  15.586  0.1039 -0.0303 -0.0666
12186W        W28370   1.460  10.345   4.580  0.1087 -0.1197 -0.0664
12187W        W28371  12.751   8.450  15.031 -0.0148 -0.1786  0.0339
12188W        W28372  13.256   9.851  13.927 -0.2202  0.2480 -0.0558
12189W        W28373  10.302   0.484  11.752 -0.0171 -0.1723 -0.1621
12190W        W28374   2.608  13.494   5.128 -0.0122 -0.4474 -0.0894
12191W        W28375   0.849   3.702   4.239  0.0598 -0.0744  0.2342
12192W        W28376  11.943  12.070   5.364  0.1364 -0.1388  0.0785
12193W        W28377  17.753   1.325   5.077  0.2183  0.0854  0.1820
12194W        W28378   6.808   4.138  10.713 -0.1141 -0.0765  0.4797
12195W        W28379   3.484   2.332  12.995  0.1210  0.1457 -0.1109
12196W        W28380   5.209  13.519   0.126 -0.2594 -0.0346  0.0908
12197W        W28381   4.264   5.059   5.659 -0.3602  0.0441 -0.1320
12198W        W28382   5.283  14.417  11.811  0.2981 -0.2390 -0.1215
12199W        W28383   3.726   1.649   0.962  0.0162  0.0729 -0.0101
12200W        W28384  14.433   6.295  14.926  0.2392 -0.2566  0.0265
12201W        W28385   2.625  15.343   6.282  0.1810 -0.1155  0.2824
12202W        W28386   2.653  13.536  14.873 -0.0215  0.0402  0.3996
12203W        W28387  10.393  17.821   3.462 -0.2921 -0.4097 -0.0240
12204W        W28388   2.669   7.759  13.676 -0.1612 -0.0339  0.0160
12205W        W28389   4.785  15.507   4.795 -0.0963  0.0551  0.2084
12206W        W28390   7.626  10.688  12.092  0.0728 -0.2482 -0.1682
12207W        W28391   7.839  17.144   0.593 -0.1698 -0.4579  0.1271
12208W        W28392  17.159   6.736  12.405 -0.2928  0.0497  0.2313
12209W        W28393   5.343   7.304  16.370 -0.1556 -0.1685  0.0364
12210W        W28394  11.348   6.547   6.296 -0.0552 -0.4652 -0.1978
12211W        W28395  13.890   4.428   5.930  0.0681 -0.0540 -0.0294
12212W        W28396   2.204   0.237   0.503 -0.1131 -0.1300  0.1855
12213W        W28397  15.552   7.156  14.132  0.1076 -0.2129  0.1153
12214W        W28398  11.127  17.848  15.731  0.0536 -0.0415  0.0543
12215W        W28399   1.525  11.084  12.825 -0.0573 -0.0026  0.1038
12216W        W28400  13.102   7.354  11.308 -0.1222  0.2052 -0.1804
12217W        W28401  13.140   6.107  11.663  0.0640 -0.3711 -0.1433
12218W        W28402  16.668  14.955  15.073 -0.3143 -0.3205 -0.1862
12219W        W28403   2.454   6.554   2.475  0.0244 -0.0231 -0.0043
12220W        W28404  10.721  14.856  14.372 -0.0405  0.1026  0.2344
12221W        W28405  10.977   4.974   2.561  0.1927  0.2987 -0.0060
12222W        W28406   6.283  14.735  13.503  0.0071  0.2690 -0.1463
12223W        W28407   6.342  14.455  16.652  0.0604 -0.0037  0.1213
12224W        W28408  16.746   5.160   3.468  0.3400  0.2160 -0.0373
12225W        W28409   5.136   0.719   5.176 -0.1221  0.2306  0.1542
12226W        W28410   1.675   3.687   0.264  0.1819 -0.4417  0.0810
12227W        W28411  13.290   0.874  13.628 -0.2693 -0.4000 -0.3470
12228W        W28412  12.988   3.674   0.721 -0.0844 -0.0372 -0.3439
12229W        W28413   7.015   0.398   4.418 -0.3281  0.1828 -0.0641
12230W        W28414  17.153   0.919   0.762  0.1002 -0.0189  0.0861
12231W        W28415   3.698  16.388   1.637 -0.2203 -0.1521 -0.1744
12232W        W28416  13.942   1.385  13.013  0.1895  0.1598  0.0758
12233W        W28417  12.587   5.550   3.051 -0.0778  0.0836  0.1603
12234W        W28418   8.957  13.321   3.667  0.0188 -0.1606  0.2148
12235W        W28419  10.168   1.009   4.237 -0.4941 -0.5866  0.1285
12236W        W28420   8.454  16.783   3.817 -0.1268 -0.0519  0.2162
12237W        W28421   3.312  14.294   3.673 -0.3672  0.4050 -0.0522
12238W        W28422  13.334  11.457  13.703 -0.0847 -0.1316  0.2292
12239W        W28423   0.363  15.588  16.008  0.1069 -0.0867  0.1525
12240W        W28424   9.166  12.720   5.823  0.0500  0.2394  0.1885
12241W        W28425  12.066  17.564   4.696  0.1859 -0.1203  0.2878
12242W        W28426  10.422  11.312  15.002 -0.0243 -0.2335  0.0327
12243W        W28427   6.586   2.889   2.549  0.2283 -0.0400  0.0175
12244W        W28428   3.454  14.290   0.012 -0.1858  0.5073 -0.0225
12245W        W28429  10.168  12.349   0.064 -0.3522  0.0431 -0.1126
12246W        W28430   5.544   0.124   1.864 -0.4156 -0.0418  0.1208
12247W        W28431  12.814   4.853   2.190 -0.0051 -0.2426 -0.0492
12248W        W28432  15.996   7.229  15.601 -0.1537  0.2464  0.1535
12249W        W28433  10.980   8.726   3.525 -0.0652  0.2390 -0.1735
12250W        W28434   6.113   4.781   3.234  0.2815  0.1363  0.2179
12251W        W28435  14.022  12.490   2.825 -0.0983 -0.0631  0.0977
12252W        W28436  18.064  16.800   6.290 -0.2031 -0.1481  0.1772
12253W        W28437  16.232   5.503  10.396 -0.0356  0.2002  0.2709
12254W        W28438  17.224   6.538  10.461 -0.1264  0.0817  0.0994
12255W        W28439   2.329  16.942  16.245  0.2274 -0.0329 -0.0229
12256W        W28440   6.318  14.056  15.314 -0.0369  0.3427  0.2631
12257W        W28441   3.091   0.203  15.149 -0.0909  0.1648 -0.1577
12258W        W28442  17.866   4.950  15.953  0.1509 -0.2263  0.2454
12259W        W28443  16.405   0.043  15.085  0.0610  0.2019 -0.1658
12260W        W28444   5.039   5.202   4.842 -0.0433 -0.0379 -0.0316
12261W        W28445  16.841   1.581   1.817  0.0886  0.0828 -0.1486
12262W        W28446   9.329  11.393   5.630  0.0529  0.0029  0.0618
12263W        W28447  13.532   4.173  14.217  0.2267 -0.2920  0.0294
12264W        W28448  11.918   4.233   3.022 -0.3287  0.2969 -0.0700
12265W        W28449  13.118   4.810   2.577  0.0477  0.0506 -0.0926
12266W        W28450   9.117  17.622   0.699  0.2279  0.1765 -0.0905
12267W        W28451  11.745  12.236  13.756 -0.3328  0.0801  0.2045
12268W        W28452   7.678  10.533   3.029 -0.1560  0.1995  0.0081
12269W        W28453   1.345  12.008   0.018 -0.0046  0.1547  0.3062
12270W        W28454   1.599  13.798   4.559  0.0307  0.0082  0.0508
12271W        W28455   8.077  15.171   3.905  0.2275 -0.2353  0.3019
12272W        W28456   6.449   9.454   3.077  0.1859 -0.0641  0.0792
12273W        W28457   4.665  14.509  13.182  0.0250  0.2496  0.0156
12274W        W28458   1.908  13.627  14.375  0.0429 -0.1267 -0.0321
12275W        W28459   6.683  11.773  15.404 -0.1507 -0.0750  0.0900
12276W        W28460  13.421  13.785   2.572 -0.0989 -0.3248  0.4146
12277W        W28461  10.313  10.592   5.363  0.0195 -0.2379  0.0767
12278W        W28462   5.069   9.167  16.577  0.2416 -0.0782  0.0056
12279W        W28463  18.028   3.611  14.377 -0.2322 -0.0165  0.2586
12280W        W28464   6.452   5.598  16.678 -0.0771  0.2288  0.1841
12281W        W28465  13.399  14.973   0.690  0.0553 -0.0522 -0.1475
12282W        W28466   8.505  16.530  15.502  0.1323 -0.2089 -0.1709
12283W        W28467  12.060  10.603   5.254  0.2039 -0.0447 -0.3391
12284W        W28468   6.895  11.395   0.802  0.0072 -0.1913  0.0313
12285W        W28469   2.529   1.650  12.842  0.2170 -0.0636 -0.0148
12286W        W28470   0.896   8.683  15.793 -0.0370 -0.0496  0.0795
12287W        W28471   9.643   5.869  13.356  0.4156  0.2287  0.0106
12288W        W28472   3.182  13.626  15.022  0.0316 -0.0381 -0.0481
12289W        W28473  12.400  11.856  12.139  0.1239 -0.1351 -0.4991
12290W        W28474   5.534  16.628  15.822 -0.0720 -0.0367 -0.0451
12291W        W28475  14.374   1.928  14.077  0.2265 -0.1330  0.0103
12292W        W28476  14.337  12.059   2.454  0.1226 -0.0724  0.0696
12293W        W28477   2.302  16.290  12.255 -0.2088  0.2597  0.3882
12294W        W28478   4.446  15.463  13.834 -0.0924 -0.1270 -0.1004
12295W        W28479  14.216   0.227   2.292  0.2237 -0.0273 -0.2969
12296W        W28480   4.226  14.633   4.149  0.1431 -0.0044  0.0339
12297W        W28481  16.615   7.060  10.972  0.1524  0.0503  0.0269
12298W        W28482  14.278  12.231  13.126 -0.1942 -0.0847 -0.1175
12299W        W28483  17.288  12.930  15.086  0.1430  0.1258  0.3478
12300W        W28484   6.744   9.053  16.129 -0.2689  0.1328 -0.0099
12301W        W28485   9.498  10.604  15.822  0.1726  0.1429 -0.2369
12302W        W28486   9.698  15.160  16.491 -0.1899 -0.0482  0.1295
12303W        W28487  14.776  17.815  16.375  0.1904 -0.2878 -0.0650
12304W        W28488   3.920  11.826   2.605 -0.2501  0.1032 -0.0955
12305W        W28489  14.875  11.809   5.295 -0.0924 -0.0320  0.1488
12306W        W28490  15.314  13.278  11.457 -0.1622  0.1129  0.1720
12307W        W28491   0.043  14.744  15.103 -0.1541 -0.2867 -0.0259
12308W        W28492  13.708  12.974   2.147  0.0672 -0.2006 -0.1593
12309W        W28493   0.749   5.401  10.662  0.0233  0.0830 -0.2235
12310W        W28494  10.136  13.305   1.211  0.1039  0.0979 -0.0210
12311W        W28495   3.322   0.613  11.636 -0.0124  0.0874 -0.3006
12312W        W28496   0.653   2.042  11.888  0.0975 -0.4912 -0.2384
12313W        W28497   9.117   5.991   2.931  0.2492  0.0601  0.1561
12314W        W28498  11.131  14.167  12.694 -0.0146 -0.2093 -0.1251
12315W        W28499   1.840  11.652   6.135 -0.1492 -0.1882 -0.0125
12316W        W28500  14.624   6.354   5.950  0.0270 -0.2664 -0.0153
12317W        W28501   6.213  15.124  14.708  0.1024  0.0797 -0.1451
12318W        W28502   1.798  10.485   4.961  0.1798 -0.2695  0.1513
12319W        W28503   7.247  12.788   0.671  0.0295 -0.0368  0.0250
12320W        W28504   1.422   0.328  14.858  0.2162  0.1614  0.3344
12321W        W28505  12.019   5.561   3.747  0.0708 -0.1666  0.1416
12322W        W28506  16.349   7.257   4.900  0.0024 -0.3096 -0.1638
12323W        W28507   3.145  14.343  12.107  0.0733 -0.2508  0.1707
12324W        W28508   9.461   1.680  11.888  0.0719 -0.0250 -0.3543
12325W        W28509   7.110   2.086  13.899 -0.0716 -0.2102  0.0637
12326W        W28510   9.496   7.140   1.669  0.1041 -0.2123  0.1275
12327W        W28511  15.583   1.356  16.380  0.0787 -0.0481 -0.1792
12328W        W28512   8.612  17.650  15.692  0.0584 -0.0404  0.2566
12329W        W28513  14.175   3.947   5.071  0.2432 -0.2868 -0.1181
12330W        W28514   2.334   2.988   0.186  0.1698  0.1294 -0.1476
12331W        W28515   2.958  11.944  15.817  0.2917 -0.0419  0.2057
12332W        W28516  13.259  16.065   2.841 -0.1401  0.3573 -0.0219
12333W        W28517   0.734  16.024   0.206 -0.0162 -0.0681 -0.0295
12334W        W28518   6.764   3.631   0.457  0.0765 -0.1605 -0.0056
12335W        W28519   4.540  16.340  12.957  0.0325  0.0266  0.2033
12336W        W28520   1.271   4.293  12.206 -0.0717 -0.3155  0.3289
12337W        W28521   3.082   6.563  14.171  0.1511  0.2288  0.1469
12338W        W28522   8.686   0.833   2.256  0.2514 -0.1499 -0.0988
12339W        W28523  17.417   4.338   1.890 -0.0754 -0.4861  0.1452
12340W        W28524   1.323  15.422   3.473  0.0098  0.1275 -0.2179
12341W        W28525  17.907  12.688  15.784  0.1736 -0.0244  0.1232
12342W        W28526   1.748  10.683  16.352  0.2635 -0.2098 -0.1273
12343W        W28527   0.824  10.546   0.238 -0.1786 -0.2379  0.1053
12344W        W28528   2.679   7.813   0.221 -0.1779  0.2490  0.3151
12345W        W28529  16.101  11.576  16.153 -0.1814  0.0857 -0.3028
12346W        W28530  13.990   6.491   3.991 -0.1819 -0.0066 -0.2392
12347W        W28531  15.667  13.278   1.902 -0.0734  0.2944  0.0515
12348W        W28532   4.980   6.975   3.519  0.1816  0.1123 -0.1286
12349W        W28533  15.009  14.800   4.958  0.2298  0.3191  0.0492
12350W        W28534  13.558   2.888   0.164 -0.0301  0.0668  0.0830
12351W        W28535   4.056  13.724   4.827 -0.2642  0.0101  0.0778
12352W        W28536  10.891  13.101   6.595 -0.0557  0.1899 -0.1820
12353W        W28537   3.402   4.075  15.552 -0.1170 -0.3281 -0.0958
12354W        W28538   8.595   2.107  11.338  0.0743  0.1169 -0.4240
12355W        W28539  14.880   0.702  10.808  0.1854 -0.3082  0.2076
12356W        W28540   1.578   1.722   2.520 -0.2762 -0.1927 -0.1915
12357W        W28541   4.450   6.419   3.206  0.1372  0.0392  0.0268
12358W        W28542  15.713  12.168   0.560 -0.1287  0.1460  0.2602
12359W        W28543  12.512   5.739   0.876 -0.1264 -0.1244 -0.0426
12360W        W28544  12.852   6.372  13.161 -0.0291  0.2216 -0.0767
12361W        W28545   9.453  16.372   0.435 -0.0635  0.0155 -0.1106
12362W        W28546   9.645  14.361   4.978 -0.0815  0.0792  0.1357
12363W        W28547   5.003   2.297   4.892 -0.2452 -0.1391 -0.0461
12364W        W28548   5.899   3.229   4.157  0.4066 -0.1699 -0.1197
12365W        W28549  16.321   2.682  11.854  0.2353  0.1070 -0.1222
12366W        W28550   6.960   9.318   0.888  0.1680  0.2643  0.1216
12367W        W28551   5.907   4.797  15.216 -0.1564 -0.0600 -0.1086
12368W        W28552   5.784  11.791  12.937 -0.0520 -0.0731 -0.1774
12369W        W28553   3.835   1.110  12.198  0.3710  0.0591 -0.3333
12370W        W28554  10.433   7.977   3.595  0.1038  0.0253 -0.1197
12371W        W28555   8.034  10.837   1.498  0.1268  0.2085 -0.1900
12372W        W28556   9.219  12.369  14.624  0.2375  0.3447  0.1326
12373W        W28557  16.268   7.976  16.415  0.0720 -0.0872 -0.1503
12374W        W28558   1.694  13.531   1.273  0.0861  0.0571  0.3447
12375W        W28559   3.805  13.939  15.585 -0.1503  0.1517 -0.0271
12376W        W28560  12.949  17.473   5.219 -0.3920 -0.0234  0.1915
12377W        W28561  10.415  16.377   2.733 -0.1977  0.0061 -0.5590
12378W        W28562   1.918   9.020   3.283 -0.2767  0.2132 -0.0582
12379W        W28563  11.955  16.737  12.226  0.1279  0.1178 -0.1859
12380W        W28564   5.776   0.221  16.350 -0.3122 -0.3410 -0.0334
12381W        W28565   6.686   5.907  15.552 -0.1272  0.0563 -0.1837
12382W        W28566   4.894   8.038  13.703 -0.1243  0.1670 -0.1335
12383W        W28567   2.100   1.007  15.103 -0.0577  0.0341 -0.0899
12384W        W28568   0.811   8.217  14.646  0.1781  0.2246  0.1704
12385W        W28569   5.747   0.133   6.414  0.1684  0.3008 -0.0075
12386W        W28570   3.380   9.696   5.834 -0.1991  0.3010  0.1666
12387W        W28571  11.661   6.038   3.112  0.0120  0.1791 -0.3600
12388W        W28572   9.015   5.969   4.027  0.2534  0.0903 -0.0639
12389W        W28573  13.030   8.081   2.751  0.0815 -0.0123 -0.0921
12390W        W28574  13.818  15.482   5.427 -0.1474  0.1395  0.2364
12391W        W28575   9.187   2.740  11.932  0.0441 -0.1479 -0.1173
12392W        W28576   7.310   3.061   5.360  0.0330  0.1142 -0.3094
12393W        W28577   7.203   3.852   5.337  0.0023  0.1458 -0.2420
12394W        W28578   2.436  13.756  15.417 -0.0672 -0.0981  0.3501
12395W        W28579  14.973  15.838   4.090  0.2640  0.0104 -0.2459
12396W        W28580   6.490  14.222  16.211 -0.0993  0.0822  0.0484
12397W        W28581   6.279  17.253   2.431  0.1949 -0.0194  0.0509
12398W        W28582  11.950  15.913   3.589 -0.0338 -0.0216 -0.0673
12399W        W28583   8.393  10.961   4.605  0.1976  0.2004 -0.1266
12400W        W28584  14.036   5.241  13.427  0.1332  0.0020 -0.1690
12401W        W28585   8.828  17.668   2.418 -0.1213 -0.0231 -0.1413
12402W        W28586  10.521  10.535   0.148  0.3594 -0.2934  0.0605
12403W        W28587   6.261   5.437   3.667  0.0894 -0.0008 -0.1212
12404W        W28588   9.596   5.650  11.966 -0.0568  0.3282 -0.0850
12405W        W28589  11.155   4.482   4.713 -0.0486  0.4594 -0.0466
12406W        W28590  10.139  11.481   1.533  0.0999  0.5189  0.1175
12407W        W28591  14.945  14.629   0.286  0.4333 -0.1073 -0.2471
12408W        W28592   0.514   7.451  12.714  0.1717 -0.1275  0.0121
12409W        W28593   0.348   6.770   3.188  0.0109  0.4657 -0.0905
12410W        W28594  16.506   2.207   4.499 -0.0830  0.1839  0.1378
12411W        W28595   6.284  18.056  16.382 -0.1428 -0.0617 -0.1390
12412W        W28596   0.091  11.819   4.512 -0.0940  0.0505 -0.1549
12413W        W28597  17.420  15.468   5.154 -0.1970 -0.3585 -0.0770
12414W        W28598  13.198   3.446  15.539 -0.3345  0.4333  0.1237
12415W        W28599   0.493   4.298  11.447 -0.2054  0.2212  0.1724
12416W        W28600  17.240   2.357  16.085  0.2926  0.4495  0.1583
12417W        W28601  10.720   2.114   1.641 -0.0744 -0.1441 -0.2867
12418W        W28602  12.777   6.400   4.547  0.0768  0.1498 -0.1112
12419W        W28603  15.720  14.625  12.069 -0.1021  0.1437 -0.0539
12420W        W28604   7.911   4.873   5.424  0.1753 -0.1109 -0.0534
12421W        W28605  14.905  15.467  14.385 -0.1259  0.0391  0.4419
12422W        W28606  16.934   5.638   5.563 -0.1683 -0.1861 -0.2209
12423W        W28607   3.253   4.807  15.016  0.1369 -0.0990  0.1561
12424W        W28608  14.513   1.944   2.671 -0.2554 -0.4355  0.0885
12425W        W28609  14.505  11.524   1.853  0.1932  0.3342 -0.0179
12426W        W28610  16.256   8.729  13.760 -0.0028 -0.0197  0.0773
12427W        W28611   1.307  10.160  16.342  0.0297  0.0229 -0.3572
12428W        W28612  14.168   9.639   4.025  0.0517 -0.2017 -0.0278
12429W        W28613  14.395  11.639  12.069 -0.0566  0.0545 -0.1752
12430W        W28614   0.594  15.578   0.425 -0.1663  0.1566 -0.0714
12431W        W28615   8.606   6.257   2.150 -0.0460 -0.0983 -0.2967
12432W        W28616   2.360  10.634   6.565  0.0986  0.1248 -0.0291
12433W        W28617  17.201  17.142   4.556  0.2252  0.1686  0.1887
12434W        W28618  16.581   9.334  15.409 -0.0251  0.0253  0.0436
12435W        W28619  17.694   7.462  12.857 -0.1046  0.1162 -0.2797
12436W        W28620   1.495  13.434  13.684  0.2048  0.2716  0.1299
12437W        W28621   4.527   6.337   4.345 -0.0584 -0.0440 -0.0785
12438W        W28622   3.025  17.587  14.041 -0.4409  0.0575 -0.2165
12439W        W28623   1.525   4.071  10.767  0.2821 -0.2181  0.0590
12440W        W28624   6.568   7.251   2.790  0.0370  0.0210  0.2017
12441W        W28625   7.640   3.214  13.031  0.2599  0.1077  0.0379
12442W        W28626   9.686   3.333   1.427 -0.1640 -0.2744  0.0478
12443W        W28627   1.464  11.060  12.345  0.1467  0.2943 -0.0492
12444W        W28628  12.014   9.400   3.619 -0.0662 -0.0995  0.0736
12445W        W28629  12.995  12.684   5.517  0.0119 -0.3024 -0.4684
12446W        W28630  13.997  15.712   6.333 -0.3678 -0.1854 -0.2708
12447W        W28631  17.897   2.815  11.568 -0.2432  0.2696  0.1487
12448W        W28632  10.699   3.458   0.710  0.0719  0.0098  0.0227
12449W        W28633   4.876  10.252   5.670  0.0142  0.0169 -0.0707
12450W        W28634   8.474   0.556   4.214 -0.0105 -0.2431 -0.1281
12451W        W28635  17.085   7.104   5.077 -0.0448  0.3362 -0.1704
12452W        W28636  15.734  11.740  14.849  0.1241  0.1790 -0.0451
12453W        W28637  10.361  17.255   5.268  0.1704 -0.1125  0.1836
12454W        W28638  13.122  11.538   3.493 -0.3105  0.5307  0.0645
12455W        W28639   4.307   5.727   2.753 -0.1997 -0.1653 -0.0046
12456W        W28640   4.492   8.343  15.782  0.1035 -0.2911 -0.0821
12457W        W28641  12.717  16.927  13.674  0.0965 -0.2231 -0.1564
12458W        W28642   9.693   2.585  11.931 -0.0616 -0.2539  0.0631
12459W        W28643   9.677   0.420   0.069 -0.0550  0.1248  0.1602
12460W        W28644  17.792  15.288  12.080 -0.2104  0.0574  0.1306
12461W        W28645   5.413   8.347  15.865  0.0052 -0.1294  0.0910
12462W        W28646  10.214   7.045   0.924  0.1411  0.1632 -0.0502
12463W        W28647   8.809  13.024   4.261 -0.1579 -0.1843 -0.0446
12464W        W28648  17.993  12.609  16.262  0.1557  0.1565 -0.0555
12465W        W28649   8.532  12.555  12.982 -0.2209  0.2041 -0.2012
12466W        W28650  16.365  14.115   5.151  0.1890 -0.1778  0.1247
12467W        W28651   3.733  10.776   3.271 -0.0540 -0.5175 -0.3094
12468W        W28652   2.222   3.374  13.780  0.0753  0.0546  0.1824
12469W        W28653   9.066   4.073   3.011 -0.1803 -0.0287 -0.0038
12470W        W28654   3.998  10.245   0.616 -0.1794 -0.0011 -0.0649
12471W        W28655  11.972   9.018   3.249  0.0185  0.1024  0.1446
12472W        W28656   0.946   1.465   1.085  0.1062  0.0149  0.2527
12473W        W28657   4.947   4.030  15.812  0.2105 -0.2645  0.2886
12474W        W28658   1.451  14.232   0.648  0.1984  0.0939 -0.0969
12475W        W28659   1.279   5.660   1.356 -0.4922 -0.2444  0.0112
12476W        W28660  17.111   9.555   3.602 -0.2280 -0.2538  0.0882
12477W        W28661  14.577  11.057  15.589  0.0136 -0.1319 -0.5027
12478W        W28662   2.816   3.551  11.988  0.0710  0.3577 -0.0898
12479W        W28663   5.784  11.036  12.152  0.1396  0.0536  0.1281
12480W        W28664   2.672  16.281   1.553  0.1709 -0.0606 -0.2092
12481W        W28665  16.592   2.474  14.789  0.3118 -0.3980 -0.0133
12482W        W28666  11.164   1.712  16.312 -0.1280  0.1099 -0.2660
12483W        W28667  16.697  16.115  16.478 -0.0446 -0.1132 -0.2161
12484W        W28668   7.566   3.385  14.641  0.1280  0.0043 -0.0949
12485W        W28669  15.879  16.997   2.199 -0.1749  0.0240  0.1481
12486W        W28670  11.722   7.336  12.415 -0.2710 -0.2406  0.1144
12487W        W28671   3.378   1.260  11.629  0.1452  0.0826 -0.0736
12488W        W28672  11.489  16.326   3.631 -0.0511 -0.0352  0.0301
12489W        W28673   5.148   3.812   0.447  0.2788  0.1758  0.2238
12490W        W28674   1.676   2.024   3.189  0.0360  0.0767  0.1214
12491W        W28675  17.689   9.589   5.717  0.1823  0.4846  0.0848
12492W        W28676   8.863   0.320   2.541 -0.2868  0.4281 -0.1781
12493W        W28677   5.330   4.583  12.951  0.3263 -0.1119  0.1097
12494W        W28678   6.389  13.958   4.041 -0.0520 -0.1676  0.0989
12495W        W28679   4.487   7.286   1.963 -0.0378  0.2370  0.0641
12496W        W28680   8.083   4.277  15.507  0.1923 -0.0918 -0.0406
12497W        W28681  11.264  16.022   2.941 -0.0092  0.0945  0.1892
12498W        W28682  10.904  14.741   1.790 -0.0548 -0.2654  0.1362
12499W        W28683   0.981  16.133  13.743  0.0675  0.2249 -0.0503
12500W        W28684  12.028   7.479   0.483 -0.2810  0.0565  0.1872
12501W        W28685   1.613  12.046  16.279  0.2095  0.1373 -0.1678
12502W        W28686  18.017   8.709  14.629 -0.0870  0.1375 -0.0025
12503W        W28687  11.969  13.933   5.789  0.0051  0.3497 -0.0941
12504W        W28688   6.072   0.170   5.787 -0.1684  0.0312 -0.1772
12505W        W28689  11.382  14.699   1.578  0.3567  0.2015  0.0730
12506W        W28690   1.922  12.456  16.346  0.1871  0.2038  0.0872
12507W        W28691   4.841  15.324   5.685  0.3159  0.3945  0.1903
12508W        W28692   4.051   1.415  11.287 -0.1564  0.2181 -0.0810
12509W        W28693  16.936   6.231   2.647 -0.1862  0.2497  0.0944
12510W        W28694  13.595   3.911   2.505 -0.2109  0.3151 -0.1272
12511W        W28695  11.545  11.618  14.506  0.1260 -0.1191  0.2044
12512W        W28696   5.692   9.114   4.409  0.1271 -0.1632  0.1946
12513W        W28697  17.781   0.228  12.393  0.0891  0.0278 -0.0907
12514W        W28698   7.318  17.339  16.014 -0.0422  0.1468  0.1353
12515W        W28699  10.773  11.506   5.240  0.0766  0.0649 -0.1583
12516W        W28700   9.487   5.965  12.368  0.1662  0.2196  0.1836
12517W        W28701  12.428  15.956   2.358  0.0470  0.0010  0.1438
12518W        W28702  11.622   3.531   3.415  0.0490 -0.1120 -0.0855
12519W        W28703   7.010   6.708  14.767 -0.1529 -0.3935  0.1081
12520W        W28704  17.242   4.096  13.442  0.2740 -0.2299 -0.0751
12521W        W28705  15.943   9.146   0.925 -0.0696  0.6461  0.0218
12522W        W28706   7.646   4.349   2.840 -0.1794 -0.4210 -0.0728
12523W        W28707  11.432  12.068   5.685  0.1870  0.2088 -0.0730
12524W        W28708  12.557   6.542   4.148  0.1644 -0.0252 -0.0948
12525W        W28709   2.749  16.599  14.936  0.0653 -0.2124 -0.2479
12526W        W28710  12.881   4.625   1.523 -0.2181  0.1797 -0.2081
12527W        W28711   2.822   2.818  15.918 -0.0980  0.4009 -0.5439
12528W        W28712  12.043   7.662  12.026 -0.0061  0.0501  0.1500
12529W        W28713   9.829   2.074   5.167  0.0437 -0.2347 -0.1153
12530W        W28714   2.557   6.024   2.275  0.1429  0.0683 -0.1325
12531W        W28715   1.308   6.045   5.444  0.3905  0.2697 -0.1120
12532W        W28716   7.087   7.741   4.010  0.1219 -0.2420 -0.0354
12533W        W28717  14.337  16.557  16.268  0.0245 -0.1038  0.0949
12534W        W28718  13.492  14.905   3.422  0.0333  0.0703  0.1903
12535W        W28719   6.789   7.191  14.699  0.0090 -0.2957  0.3073
12536W        W28720   3.483  17.252  12.544  0.2668  0.0095  0.0126
12537W        W28721   8.328  14.552   4.043  0.1613  0.2049 -0.0521
12538W        W28722   8.078  10.621  11.786 -0.1570  0.0263 -0.2306
12539W        W28723   5.504  13.172  12.914 -0.0085 -0.1817  0.0041
12540W        W28724  17.392   0.036  15.707  0.2515  0.2559 -0.1811
12541W        W28725   1.388   4.231  15.245  0.4201 -0.2419  0.0227
12542W        W28726   8.891   8.037  12.006 -0.2223  0.0825 -0.0071
12543W        W28727  11.947   9.216   4.176 -0.1333  0.2397 -0.0088
12544W        W28728  11.029   6.959  11.128  0.1692  0.1467 -0.1763
12545W        W28729   2.174  17.754   0.221 -0.0790  0.2236 -0.2979
12546W        W28730  10.127   9.203  11.904  0.1117 -0.1773 -0.1362
12547W        W28731  17.064  10.795   5.826  0.1996  0.0449 -0.0118
12548W        W28732   8.875   9.403   3.707 -0.1020  0.0310 -0.0106
12549W        W28733   0.639   8.082   3.751 -0.2175  0.1282  0.0034
12550W        W28734   5.304   3.489   1.170 -0.0024 -0.1942 -0.3230
12551W        W28735   0.795  17.976   4.302 -0.3090 -0.2375 -0.1758
12552W        W28736   3.690   5.998   2.558  0.0110 -0.2216  0.0519
12553W        W28737  16.648  10.004   0.495  0.1908  0.1832 -0.2664
12554W        W28738  17.554   9.382   3.742  0.1655  0.1596 -0.3384
12555W        W28739   0.174  13.954   1.528  0.1234  0.1011  0.3846
12556W        W28740   9.357  10.760   2.607  0.0289 -0.2162 -0.2215
12557W        W28741  16.491  15.900   0.694  0.0346  0.3106 -0.2015
12558W        W28742   7.996  16.082  14.538  0.1391 -0.0632 -0.0659
12559W        W28743   0.408  17.597  11.552  0.2131 -0.4178  0.1314
12560W        W28744  15.522   6.872   5.566  0.2527  0.1280 -0.2696
12561W        W28745   0.764  10.138   0.498  0.1472 -0.1036  0.4989
12562W        W28746   5.459  11.129  14.769 -0.0805  0.2721  0.1953
12563W        W28747   0.174  10.239  12.816 -0.1434  0.0307 -0.0436
12564W        W28748  16.649   9.482  11.781 -0.2009  0.3170 -0.4380
12565W        W28749  12.065   2.725   0.949 -0.2974  0.2277  0.0534
12566W        W28750   7.968  10.715   4.581  0.0546 -0.1418  0.0429
12567W        W28751   7.342   9.737  11.009 -0.2107  0.1034  0.1479
12568W        W28752   8.847   2.539   3.543  0.0699 -0.0979  0.0009
12569W        W28753  16.225  17.210  16.369  0.2926 -0.1351 -0.2367
12570W        W28754  14.510   9.898  16.134 -0.0146 -0.1053  0.1089
12571W        W28755   2.967  10.426   2.968 -0.1656  0.0148 -0.0521
12572W        W28756  10.006   3.637  15.509  0.5225  0.2499 -0.1721
12573W        W28757   8.955   8.576   1.842 -0.1752 -0.3546  0.1448
12574W        W28758   7.148  12.388  15.944 -0.2383 -0.0647 -0.1049
12575W        W28759   9.061   0.753   4.983  0.3286  0.0217  0.1240
12576W        W28760  16.665  11.666   4.927  0.0999 -0.0391  0.2406
12577W        W28761   4.622   3.744  14.278 -0.0051 -0.2187 -0.0142
12578W        W28762   9.215  10.555   6.277  0.0071  0.1929 -0.1739
12579W        W28763   3.917  10.328  10.987 -0.2767 -0.0916 -0.0821
12580W        W28764   6.430  17.992  13.228 -0.0286  0.5095  0.1257
12581W        W28765  12.738   5.612  12.766  0.1695 -0.3552 -0.0843
12582W        W28766   5.636   7.109   4.383 -0.1308  0.0409  0.1926
12583W        W28767  14.582  13.585  13.177  0.0771  0.0384  0.2537
12584W        W28768  15.844  16.214   5.146  0.1624 -0.0065  0.0819
12585W        W28769  15.964   5.584  16.330 -0.3048 -0.0676 -0.1423
12586W        W28770   5.572   1.996   4.492 -0.1201  0.1024  0.1396
12587W        W28771   8.700   5.423  16.458  0.0540 -0.0486 -0.0031
12588W        W28772   9.414   7.983  11.874  0.2822 -0.0903 -0.1927
12589W        W28773   0.269  11.720  13.734  0.0778 -0.1183 -0.0539
12590W        W28774   0.503   6.809   3.892 -0.0906 -0.2000  0.3318
12591W        W28775  16.502   0.018   3.639  0.0665 -0.2320  0.2957
12592W        W28776   4.711   2.845  12.531  0.1619  0.2405 -0.2355
12593W        W28777   5.762   3.261   3.619 -0.0320 -0.1527  0.2132
12594W        W28778  12.475  15.540  14.628  0.0305  0.0343  0.3322
12595W        W28779   8.311   8.519  10.662  0.3644  0.0467 -0.1344
12596W        W28780  17.007   4.200   0.716 -0.1934 -0.1273 -0.1066
12597W        W28781   9.640  13.708  12.054  0.1210  0.1611  0.1499
12598W        W28782   0.116  13.006   5.401 -0.0499  0.2051 -0.2839
12599W        W28783  11.680   6.115   4.960 -0.0630  0.2171 -0.2427
12600W        W28784  11.465  16.265   6.119 -0.0034  0.3003 -0.0646
12601W        W28785  16.590   9.871   1.232  0.0354 -0.0302 -0.0930
12602W        W28786   0.733   0.023  14.855  0.0678 -0.1183 -0.1723
12603W        W28787  13.048  12.832  11.759 -0.0145  0.0694  0.0033
12604W        W28788   5.845  11.899   1.926 -0.1731 -0.1192  0.2277
12605W        W28789  11.072   8.118  12.285  0.1847  0.1277 -0.2192
12606W        W28790  10.469  15.747  11.961  0.0246  0.2415  0.1584
12607W        W28791   9.324  17.904   4.613 -0.0107  0.0680  0.0069
12608W        W28792  11.641   5.882  14.920 -0.0816  0.1171  0.0063
12609W        W28793   7.400  10.443   4.311 -0.0003 -0.2221 -0.1514
12610W        W28794  16.327   2.944   1.967 -0.0667 -0.1939  0.0392
12611W        W28795   1.671  12.379  15.387  0.0650 -0.1755  0.1167
12612W        W28796   4.838   6.440   5.970  0.3274  0.0752 -0.0807
12613W        W28797   2.465   0.676   2.285  0.2558 -0.2264  0.0789
12614W        W28798  14.010  10.897   2.508 -0.0370 -0.2034  0.0317
12615W        W28799  13.237  15.903   5.794  0.4833 -0.0414 -0.0333
12616W        W28800  12.433  14.296   4.213 -0.1257  0.1232  0.2061
12617W        W28801   8.010   1.992   5.591 -0.0272  0.1493 -0.1601
12618W        W28802   5.186  16.457   3.610  0.2851  0.0483  0.0903
12619W        W28803   2.216   1.413   4.885 -0.1582  0.4824  0.0088
12620W        W28804  12.009  15.653   1.040  0.0089  0.3436  0.0802
12621W        W28805  11.094   2.563  12.806  0.0267 -0.0105  0.0151
12622W        W28806  16.782   6.145  12.406 -0.0490  0.0838  0.0574
12623W        W28807   5.842   9.215   3.761  0.0565  0.0076  0.0223
12624W        W28808   4.594   5.883   4.424 -0.2450 -0.0764  0.2963
12625W        W28809   5.674  16.270  11.435 -0.1697  0.1739  0.1443
12626W        W28810   5.030  13.104   1.460 -0.0853 -0.0943 -0.0369
12627W        W28811   4.902  13.115  16.619  0.0623 -0.0921  0.1765
12628W        W28812  18.017  14.940   0.478 -0.1288  0.1526 -0.2420
12629W        W28813   8.549  14.855   0.510 -0.1622 -0.0080 -0.3291
12630W        W28814   8.663  13.243   0.921 -0.0969  0.0076 -0.2364
12631W        W28815   4.351  13.026   2.829  0.1592 -0.3996 -0.0387
12632W        W28816   5.134   2.529   1.095  0.1104 -0.1225 -0.0858
12633W        W28817   7.106   1.711  12.325 -0.0625  0.0964  0.0910
12634W        W28818   5.938  10.109   3.908 -0.1421  0.1743  0.3076
12635W        W28819   6.549  18.164  14.170  0.0629 -0.0186 -0.0046
12636W        W28820   9.816  10.326  15.022 -0.0351 -0.7130 -0.3697
12637W        W28821   5.778   2.349  13.245  0.4873 -0.0606 -0.0435
12638W        W28822   5.360   4.436   1.590  0.0979  0.3177 -0.1977
12639W        W28823   4.185   0.387  13.185  0.0743 -0.0743 -0.0704
12640W        W28824  11.004   8.226  14.240  0.2060 -0.2447 -0.1205
12641W        W28825  12.829   8.911  14.140 -0.0445 -0.1264 -0.1312
12642W        W28826   5.752   4.083  13.073  0.0822  0.0646  0.2744
12643W        W28827   4.385  14.124   4.903 -0.2434  0.0522  0.1987
12644W        W28828   6.531   5.572  15.170  0.3855  0.1133  0.2448
12645W        W28829   2.837   7.167   4.463 -0.0906 -0.0541  0.1267
12646W        W28830  15.215  17.652   1.553 -0.1185  0.0348 -0.2342
12647W        W28831   2.801   1.413   4.743 -0.2965  0.4056  0.2198
12648W        W28832   6.843  14.347  12.884  0.0586  0.0714  0.3178
12649W        W28833  17.503   8.552  11.362  0.1253  0.0676 -0.0046
12650W        W28834   7.378   1.218  13.203  0.0149  0.1731 -0.2333
12651W        W28835   2.971   7.396  15.795 -0.0718  0.0949 -0.0419
12652W        W28836   7.449   4.374  13.669  0.4280 -0.1199  0.0993
12653W        W28837   7.298  17.172  12.189  0.2612 -0.0423 -0.3255
12654W        W28838  11.901   0.682  13.360  0.0056 -0.0337 -0.0067
12655W        W28839   4.925  16.192   0.082 -0.0191  0.1783 -0.4591
12656W        W28840   8.216   2.998   5.180 -0.0651  0.0617  0.0596
12657W        W28841   5.081   9.557   1.291  0.0450  0.0860  0.2377
12658W        W28842  14.044   3.361  13.454  0.1936  0.0249  0.3672
12659W        W28843   2.808  17.989  15.488 -0.1378 -0.1210 -0.0222
12660W        W28844   8.541  10.331  15.816 -0.3380 -0.0939 -0.1448
12661W        W28845   4.574  13.434   0.283  0.0465  0.1477 -0.1202
12662W        W28846   9.310   9.623   6.264  0.1251 -0.0484  0.0934
12663W        W28847   1.937   8.341  15.714 -0.0498 -0.1592 -0.2443
12664W        W28848   6.855  11.477   5.283  0.0818 -0.0299 -0.1831
12665W        W28849  15.447  12.474   3.780  0.4029  0.0215 -0.0224
12666W        W28850  12.675  16.209   0.370 -0.1566  0.1835  0.0770
12667W        W28851   3.642   0.016  12.558  0.1806 -0.2612  0.0736
12668W        W28852   1.626  12.893  12.576 -0.0421 -0.1626 -0.1802
12669W        W28853   7.798  12.355  11.835  0.1057 -0.0310  0.0038
12670W        W28854   2.239   4.472   2.565  0.0440  0.1621 -0.5937
12671W        W28855  17.345  16.978  14.919  0.2738  0.1176  0.0258
12672W        W28856  10.026   2.112   3.160 -0.1538 -0.1675 -0.3078
12673W        W28857   2.920   3.571  13.056 -0.0884 -0.1948 -0.0936
12674W        W28858  15.728  15.265   2.421  0.0887  0.0469  0.1669
12675W        W28859  12.686   0.579   2.809  0.1184  0.0051  0.0233
12676W        W28860  13.599   6.527  15.835 -0.2522 -0.0022  0.2726
12677W        W28861  10.907  14.616  13.253 -0.1872  0.0860 -0.0943
12678W        W28862   7.764   7.038   2.913 -0.0265  0.0931  0.3697
12679W        W28863  13.672   2.673   3.299 -0.1419 -0.1229 -0.0129
12680W        W28864  11.202  15.663  16.323 -0.0151 -0.1836  0.0076
12681W        W28865   6.832  14.966  12.111 -0.1022 -0.1725 -0.1776
12682W        W28866  13.349  12.361   1.794 -0.2069  0.0182  0.0105
12683W        W28867   9.734   5.453  12.971  0.0430  0.0580 -0.3417
12684W        W28868  12.079  16.784   2.969  0.1022  0.1409  0.0694
12685W        W28869   1.414   0.406  15.916  0.1732  0.1510 -0.7578
12686W        W28870  14.944   1.151   2.422 -0.2632 -0.4240 -0.3220
12687W        W28871  14.965   0.078  14.527  0.1012 -0.2648  0.0043
12688W        W28872  16.870   8.860  14.060  0.2681 -0.0981  0.0123
12689W        W28873   7.080   1.383   0.426  0.0272  0.1893 -0.0072
12690W        W28874   0.620  14.132  15.531  0.1546  0.2248  0.2262
12691W        W28875   4.689  15.688   6.626 -0.1086  0.2583 -0.0901
12692W        W28876   8.786   4.801  14.013  0.0238  0.0007  0.1668
12693W        W28877   6.614  12.557  16.164  0.0597  0.0288  0.1114
12694W        W28878  14.263  13.895  13.584  0.0541  0.0689  0.0935
12695W        W28879   5.642   6.892   5.767  0.1427  0.1301 -0.1327
12696W        W28880   0.945   1.516  15.825 -0.2519  0.0835  0.1011
12697W        W28881   8.209   8.418   0.761 -0.1284 -0.1325  0.1632
12698W        W28882   8.059  12.855   3.481  0.1619 -0.0804 -0.0328
12699W        W28883   5.711  10.083  12.721 -0.1946  0.0447 -0.1707
12700W        W28884   7.541   6.512  12.106  0.1907  0.2340  0.0320
12701W        W28885   3.520  13.608   4.639 -0.2279  0.1036 -0.1727
12702W        W28886  17.875   8.950   1.162 -0.1419 -0.1756 -0.2462
12703W        W28887   8.644   7.034  11.565  0.0741 -0.0807  0.1831
12704W        W28888  16.515   2.260  14.001  0.2915 -0.1253  0.1054
12705W        W28889  16.245   3.414  15.025  0.1525 -0.1311  0.2655
12706W        W28890   0.743   1.162  15.116  0.2902  0.3389 -0.1431
12707W        W28891   3.920   7.181  13.073  0.0522 -0.2547  0.0694
12708W        W28892   0.471   5.101  13.303  0.4052  0.0115 -0.2790
12709W        W28893  14.947   2.807  12.128 -0.1558  0.1938 -0.0774
12710W        W28894  15.264  14.357   0.541 -0.0170 -0.0367  0.2238
12711W        W28895   6.141   6.724   4.193  0.1351 -0.4289 -0.0860
12712W        W28896   2.900   4.301   3.048 -0.0990  0.1184  0.0114
12713W        W28897   2.752  14.105  13.624 -0.0145 -0.0307  0.0711
12714W        W28898   6.272   8.759   1.220  0.0422  0.0398  0.0052
12715W        W28899  18.022  13.375  15.565 -0.1021 -0.4056 -0.1135
12716W        W28900   4.350   2.288   0.332  0.3025  0.0801  0.0798
12717W        W28901   6.249  15.455  15.082 -0.1308 -0.0907 -0.0697
12718W        W28902  14.718   0.124  12.743  0.1363 -0.1658 -0.5999
12719W        W28903  13.751   1.418   0.986  0.1241 -0.2175  0.0742
12720W        W28904  15.407  17.265   5.363  0.2875 -0.1132 -0.2594
12721W        W28905   1.175  18.127  11.572 -0.0548 -0.2993 -0.0279
12722W        W28906  15.027   1.700   4.644  0.1874 -0.2378 -0.2724
12723W        W28907   7.234   4.692  15.956 -0.2856 -0.0030 -0.0774
12724W        W28908  12.783  13.474  15.272  0.1039 -0.0110 -0.1056
12725W        W28909   1.136  10.971   3.330  0.1937 -0.1322  0.0267
12726W        W28910   1.889  16.380   0.591 -0.3292 -0.0779  0.0169
12727W        W28911  13.314   2.451  16.615  0.0302 -0.3441  0.0334
12728W        W28912   8.354  13.360   1.737  0.0996  0.2265  0.1339
12729W        W28913  11.737  13.476   0.218  0.0822  0.0395 -0.1330
12730W        W28914   0.121  14.672   5.865 -0.1079 -0.2139 -0.0339
12731W        W28915   2.858  17.153   1.950 -0.1621  0.1650 -0.1908
12732W        W28916   7.265  16.302  11.804  0.1257 -0.1312 -0.1528
12733W        W28917  14.201   9.380  13.638 -0.2323 -0.1374 -0.0638
12734W        W28918  16.452   4.994  10.545 -0.2380 -0.0338 -0.1923
12735W        W28919   9.241  15.197   0.044 -0.3409 -0.0013  0.0186
12736W        W28920  18.004  17.733   4.183  0.2407  0.0291 -0.1982
12737W        W28921   7.813   4.546  15.146  0.0122  0.0750  0.0072
12738W        W28922  15.224   4.696   2.435 -0.1541 -0.2388 -0.0789
12739W        W28923   3.964  12.659  14.207 -0.0646 -0.1586 -0.2423
12740W        W28924  14.889  12.647   6.364 -0.0745  0.0297  0.2779
12741W        W28925   9.279  18.122  15.705  0.0776  0.4328  0.0313
12742W        W28926  15.912   8.298  13.700 -0.1178  0.2727 -0.0258
12743W        W28927   0.052   1.710  12.230  0.1245  0.0251 -0.1425
12744W        W28928  15.546  12.398  14.796 -0.0483  0.1588  0.2548
12745W        W28929   1.552  14.570   1.046 -0.0360 -0.3145  0.0502
12746W        W28930   4.747  15.508   4.036  0.1446 -0.0472 -0.0382
12747W        W28931  11.999   7.225   1.647 -0.4294  0.0172 -0.1336
12748W        W28932   8.985  16.797   3.521  0.2120 -0.0234 -0.2627
12749W        W28933   2.036   4.926   2.250  0.1319 -0.1218 -0.2884
12750W        W28934   3.543   5.914   2.092  0.3255 -0.0239 -0.1550
12751W        W28935   2.933   0.432  11.922 -0.3925  0.4451 -0.1163
12752W        W28936   1.009  13.015   0.904 -0.0392  0.0061  0.1267
12753W        W28937  10.190   9.309   2.676  0.0962  0.2598 -0.2248
12754W        W28938  16.226  15.905   0.242 -0.0052  0.0147  0.0127
12755W        W28939  16.516  15.614   2.097  0.0932  0.0742 -0.1128
12756W        W28940   7.300   5.234  16.176 -0.2020  0.0142 -0.0365
12757W        W28941   3.905  13.016   3.947  0.2134  0.0600  0.2640
12758W        W28942  18.152   4.143  16.374 -0.1594  0.4629  0.1724
12759W        W28943   3.093  11.449   2.933  0.5677  0.1629 -0.1147
12760W        W28944  16.318   3.117   0.318 -0.5227  0.4663  0.2491
12761W        W28945   0.185  16.390   4.944  0.1059 -0.1307  0.0021
12762W        W28946   4.689   1.954  10.798 -0.1682  0.1837 -0.2556
12763W        W28947  10.138   5.775  14.301 -0.0803  0.0773 -0.0186
12764W        W28948  14.313   5.342   5.025  0.0831 -0.0193  0.0561
12765W        W28949  14.002   3.981   2.139 -0.0700  0.3067 -0.1383
12766W        W28950  16.730   8.506   2.141  0.0190  0.0672  0.0698
12767W        W28951   2.598  13.229   1.828 -0.0310 -0.1741 -0.0338
12768W        W28952  13.370   8.966   4.524  0.0475  0.1643 -0.0966
12769W        W28953   0.866  16.347  14.828  0.1095 -0.0962 -0.0020
12770W        W28954  16.899   4.334   0.190 -0.1689  0.0515 -0.1315
12771W        W28955  15.818  16.741  15.819 -0.2905 -0.0436 -0.1671
12772W        W28956   4.425  13.451  14.006 -0.1203  0.4287  0.0804
12773W        W28957   3.144  16.700   3.586 -0.3141  0.0970 -0.1079
12774W        W28958  17.686   5.992  14.773  0.4336  0.0383  0.2930
12775W        W28959   8.022  16.943   4.443  0.0291 -0.0422 -0.1477
12776W        W28960  16.245  10.051  15.754 -0.0562 -0.4657  0.1994
12777W        W28961  13.381  10.697   4.857 -0.0713  0.0808 -0.0447
12778W        W28962  11.599  10.236  14.269 -0.0145 -0.3709  0.0984
12779W        W28963  15.664   1.898   3.936 -0.3814 -0.1230 -0.2142
12780W        W28964  11.169   3.256  15.665  0.0256 -0.4157  0.2368
12781W        W28965  11.124   9.270   4.241 -0.1621  0.0591  0.2244
12782W        W28966  14.241  17.637  16.386 -0.2227 -0.0708  0.2958
12783W        W28967  16.384   4.548  15.660  0.1121  0.2668 -0.0821
12784W        W28968   3.931   9.996  15.034 -0.1972 -0.0997 -0.1171
12785W        W28969   3.610  17.916   0.098 -0.0222  0.0017  0.0313
12786W        W28970  15.165   1.545  12.137  0.1236  0.3315 -0.0207
12787W        W28971   8.177  15.129   2.178  0.1003 -0.1952 -0.2690
12788W        W28972  17.378   5.339   2.537  0.1458  0.1271  0.1521
12789W        W28973   9.040   7.399   0.526  0.1488 -0.2314 -0.2865
12790W        W28974   0.124  10.175   3.875 -0.0408  0.1279 -0.4258
12791W        W28975  15.846   6.871  11.673  0.0750 -0.0333  0.0101
12792W        W28976  12.801  15.270  15.566 -0.1139 -0.0786  0.0422
12793W        W28977  12.872  16.663  15.294  0.0790  0.1815  0.0129
12794W        W28978  15.685   1.434  12.110  0.2552 -0.0337  0.1708
12795W        W28979  16.042   2.841  14.741  0.3528 -0.0474 -0.1998
12796W        W28980  17.729  13.490   3.702 -0.0356  0.0241 -0.1741
12797W        W28981  15.555   2.933  14.589  0.0492  0.2292  0.0454
12798W        W28982   0.366  10.444   3.078 -0.0607  0.1113  0.0927
12799W        W28983   8.341  17.920   4.977 -0.0933 -0.1943 -0.0157
12800W        W28984  15.778   2.640   1.086 -0.1417  0.2456  0.3722
12801W        W28985  10.227  10.966  11.928 -0.2957  0.0894  0.0144
12802W        W28986   6.350  17.531  12.025  0.1293 -0.1857 -0.0130
12803W        W28987  11.627   0.460   2.248 -0.0392  0.0176 -0.1765
12804W        W28988  17.882  11.642  11.989 -0.1090 -0.0436 -0.0865
12805W        W28989   5.977  14.381  13.187  0.1458  0.2841 -0.3666
12806W        W28990  17.153  12.469   4.194 -0.4007 -0.0332  0.2260
12807W        W28991   8.345  10.614   2.277  0.0365  0.0217 -0.2691
12808W        W28992   9.278  13.684   0.531 -0.0465  0.1252  0.0111
12809W        W28993  17.075  14.983  14.174 -0.1067 -0.2352 -0.3312
12810W        W28994   5.539  17.729   5.382 -0.0189 -0.0264 -0.1016
12811W        W28995   5.226  14.431   4.819 -0.1173 -0.2270  0.0951
12812W        W28996   4.048  10.914  12.195 -0.1566  0.1017  0.2697
12813W        W28997   3.928   5.145  12.596 -0.0319  0.2348 -0.0781
12814W        W28998  14.174   3.185  11.443 -0.2658  0.0427  0.0223
12815W        W28999   8.215   0.966  13.942 -0.0406 -0.3419 -0.0676
12816W        W29000   4.632   9.078  15.413 -0.0704 -0.0741 -0.0462
12817W        W29001   9.097  10.126  13.790 -0.2295 -0.3626  0.1784
12818W        W29002   2.186   3.074   2.549 -0.1767  0.1184 -0.0550
12819W        W29003   0.268   1.898  15.316  0.0609 -0.1450  0.1860
12820W        W29004  13.073   8.214  13.949 -0.2017  0.0158 -0.3528
12821W        W29005   7.252   8.287  16.393  0.2959 -0.1664 -0.0396
12822W        W29006  12.371   2.220  12.057 -0.1510  0.0452 -0.1999
12823W        W29007   2.318   0.647  14.783  0.3100  0.1121  0.0489
12824W        W29008  11.414   8.790   1.105  0.0809 -0.1282  0.0168
12825W        W29009   2.993  13.004   1.400 -0.2176 -0.2067 -0.0475
12826W        W29010   1.426  11.220  15.976  0.3330  0.0147  0.3582
12827W        W29011  14.442  18.073   1.072  0.1641  0.1851 -0.1254
12828W        W29012   4.800   0.019  11.735  0.2943  0.5227  0.0021
12829W        W29013   9.793   0.309  13.247  0.0035  0.0075 -0.1963
12830W        W29014   0.107   6.747   0.501  0.0676 -0.1024 -0.0576
12831W        W29015   3.427   7.301   5.355  0.1723  0.0611  0.1939
12832W        W29016  12.663   1.370   3.727  0.0712 -0.4533 -0.0537
12833W        W29017   1.127  15.200  13.408  0.3111  0.0022  0.2174
12834W        W29018   5.680  17.614   0.229 -0.0203  0.1354 -0.1476
12835W        W29019   1.071   5.208   3.745 -0.4187  0.5387 -0.0584
12836W        W29020   1.357  11.704  14.885  0.2118 -0.0062 -0.0917
12837W        W29021  12.924   1.550   2.754  0.5215  0.1910  0.2627
12838W        W29022  11.314  16.905   3.434 -0.0615 -0.0928  0.0428
12839W        W29023   1.548  11.493   0.822 -0.1384 -0.2788 -0.1149
12840W        W29024   1.004  16.178  14.246  0.0600 -0.0093 -0.0101
12841W        W29025   4.307  13.504  11.971 -0.0648 -0.0333 -0.3798
12842W        W29026   0.285   8.534  12.884  0.2702 -0.1197  0.1385
12843W        W29027  11.754   3.930   5.354  0.1966 -0.2697  0.0537
12844W        W29028   5.408  17.549   2.043  0.1087 -0.1530 -0.0338
12845W        W29029  11.635   9.597  11.495 -0.1216  0.0492 -0.1031
12846W        W29030   0.857   9.697   1.814 -0.0688 -0.3003 -0.0640
12847W        W29031   8.037  17.777  14.378  0.0976 -0.2715 -0.0333
12848W        W29032  17.637   6.355  14.426 -0.1273  0.2975 -0.0994
12849W        W29033  18.096  16.537   0.443  0.1315  0.0509 -0.1139
12850W        W29034   4.560  16.508   5.601 -0.4033  0.2945  0.1920
12851W        W29035   6.616  12.505   4.309 -0.2888 -0.1626  0.3451
12852W        W29036   4.170   3.574  15.152 -0.0748  0.1564  0.0880
12853W        W29037   5.562  16.171  14.289 -0.1706  0.0045 -0.0330
12854W        W29038   4.103   1.766  14.444 -0.2404  0.1156 -0.0771
12855W        W29039  17.154   6.559   0.113  0.0246  0.0211 -0.4177
12856W        W29040  17.650   5.136   0.248 -0.1813 -0.1609  0.0456
12857W        W29041  12.512  13.725   0.721 -0.1424  0.2565 -0.3565
12858W        W29042  11.050   9.175   1.902 -0.2617  0.0394 -0.3793
12859W        W29043   3.816   3.542  11.649 -0.0518  0.4086 -0.0962
12860W        W29044  16.123   7.486   1.953  0.0929 -0.1553 -0.1446
12861W        W29045   4.094   4.537  16.318 -0.0742 -0.4144  0.2724
12862W        W29046  13.176  17.182  13.494 -0.1939  0.1300  0.0178
12863W        W29047  13.193   8.336   1.785 -0.3303  0.0034 -0.2825
12864W        W29048   5.187   0.419  14.668 -0.0192  0.0168 -0.0285
12865W        W29049  17.847  13.314   4.448 -0.0366  0.1223 -0.1999
12866W        W29050   6.919   3.210   4.688  0.1517 -0.0237 -0.1345
12867W        W29051  10.028  12.431  15.707 -0.1764  0.0444  0.2366
12868W        W29052  13.381   7.934  14.912  0.0395 -0.1547  0.0674
12869W        W29053   9.717   5.458   4.225 -0.0330 -0.0634  0.2239
12870W        W29054  11.624  16.783   6.223  0.3218 -0.2629  0.2547
12871W        W29055  12.805  10.681   3.199 -0.0980 -0.0225  0.0884
12872W        W29056   5.243  10.586   3.247  0.1736  0.2115  0.4026
12873W        W29057  17.389   7.962  13.718 -0.0344 -0.3645  0.1040
12874W        W29058  16.801   7.747   1.371  0.3551  0.2079  0.0812
12875W        W29059  17.735  12.325   5.288 -0.1315 -0.0178  0.0721
12876W        W29060  11.203   0.641  12.895  0.0281 -0.1489 -0.2817
12877W        W29061   6.407  11.548   4.259 -0.1994  0.2290  0.0334
12878W        W29062   1.722   9.597   4.092 -0.2658 -0.0035 -0.1216
12879W        W29063   9.060   1.859  13.080 -0.0581 -0.0092  0.1354
12880W        W29064  14.840  11.518  12.599 -0.0005 -0.0863 -0.1082
12881W        W29065  16.075   7.862   4.284  0.2853  0.4406 -0.0197
12882W        W29066  17.360  17.602  13.705  0.3193 -0.0064  0.0779
12883W        W29067   1.901  15.129   5.564  0.0147  0.3744  0.3979
12884W        W29068   6.088   2.983   2.609  0.0249  0.0163  0.1004
12885W        W29069   5.045  11.272  14.247 -0.1144 -0.2622  0.1334
12886W        W29070   8.391   7.838   2.766 -0.0285  0.3391  0.1360
12887W        W29071  10.549  13.185   0.940  0.0794 -0.1286 -0.1190
12888W        W29072  16.129   8.661  12.023 -0.1901 -0.1515 -0.1848
12889W        W29073  14.393   4.401  10.059  0.1188  0.2623 -0.0072
12890W        W29074  14.596  12.616  15.946 -0.0225  0.1010 -0.0115
12891W        W29075   8.489   1.812  15.432  0.0787  0.3366  0.1045
12892W        W29076  17.849   6.446  12.095  0.0879 -0.0234 -0.2281
12893W        W29077  16.004  13.869   3.693 -0.1014 -0.0255  0.1575
12894W        W29078   9.473   9.786  11.588 -0.0430  0.2524  0.2713
12895W        W29079  11.615  13.867  15.727 -0.0686 -0.2031  0.0859
12896W        W29080   3.193   8.166   5.975  0.1354 -0.3204  0.1794
12897W        W29081  14.841  12.102  15.924  0.0118  0.0675  0.3627
12898W        W29082  11.998   0.277  10.688 -0.1823  0.0537  0.1880
12899W        W29083   6.339  17.703   5.274  0.0779 -0.0566 -0.0658
12900W        W29084   6.352  16.254   2.266  0.0700  0.0341 -0.1214
12901W        W29085  14.198   1.902  14.874  0.0050 -0.2086 -0.2614
12902W        W29086   8.784  12.928   4.778 -0.0681  0.1902  0.2038
12903W        W29087   5.119   2.002  13.716  0.1834 -0.1364  0.3428
12904W        W29088   9.029   5.885  12.596  0.3010 -0.1160 -0.2239
12905W        W29089   8.825   1.313   3.573 -0.0173  0.0513 -0.1218
12906W        W29090  17.786  13.837   5.037 -0.3072  0.2188 -0.0786
12907W        W29091   8.692   8.450   4.822 -0.1401  0.0812 -0.1013
12908W        W29092  13.842   8.892  16.398 -0.0485 -0.1614  0.0551
12909W        W29093  10.379   3.028   0.715  0.2405 -0.1115 -0.2840
12910W        W29094   5.224  14.308  13.742  0.1461 -0.0729 -0.2205
12911W        W29095  13.004  18.128   4.092  0.0523  0.2186  0.2061
12912W        W29096   0.360   5.097  10.758 -0.2399 -0.2660  0.2130
12913W        W29097   7.670   9.227  14.820  0.1363  0.2023  0.2569
12914W        W29098   2.825   1.663   0.399 -0.2296 -0.1798  0.0243
12915W        W29099  12.779   9.274   5.243 -0.0457 -0.0482  0.2617
12916W        W29100  11.808   9.544   1.566  0.0158 -0.0543 -0.2319
12917W        W29101   6.823   1.758  15.826  0.0217  0.1413 -0.0265
12918W        W29102  11.483   0.247  12.928  0.0173 -0.0742 -0.3579
12919W        W29103  11.723  13.782  16.559  0.1810  0.0816  0.3166
12920W        W29104  13.297  14.871  16.553  0.2351 -0.0836  0.2164
12921W        W29105   8.012  12.217  12.419  0.0215 -0.1227 -0.0243
12922W        W29106   5.499  15.102   4.434 -0.2384  0.4602 -0.1160
12923W        W29107   0.869   7.859  14.259  0.0067 -0.0079  0.1285
12924W        W29108  10.170  17.495  14.234 -0.3100 -0.0802  0.0124
12925W        W29109  10.827  15.037  15.781  0.4497 -0.1894  0.2045
12926W        W29110   9.731  11.066  15.958 -0.1939 -0.0228  0.1407
12927W        W29111   0.412  17.383   3.154 -0.2050  0.2703  0.1695
12928W        W29112   3.087  12.244  14.497 -0.2657  0.0883 -0.0907
12929W        W29113   5.862  10.617  13.383 -0.0660  0.0768  0.0620
12930W        W29114   8.303   0.212   0.562  0.2904 -0.2278 -0.4550
12931W        W29115  10.401   4.805   5.576  0.1425 -0.1110  0.2297
12932W        W29116   4.460   9.825   2.766 -0.0048  0.1078  0.1414
12933W        W29117   7.074   3.892  11.850  0.1455  0.0977  0.1975
12934W        W29118   8.350   1.093   5.408  0.2229  0.1898  0.1317
12935W        W29119   5.438  12.915   1.270  0.1718  0.1526 -0.0246
12936W        W29120   4.334  10.234  15.662  0.1695  0.0436  0.3473
12937W        W29121  10.294  12.155  14.775 -0.0951 -0.0033 -0.3818
12938W        W29122  15.899   6.201   2.195  0.1724  0.0371  0.0575
12939W        W29123   4.090   7.880   4.018  0.1084 -0.0758 -0.0838
12940W        W29124   6.862   8.651   1.316  0.6625 -0.2842 -0.1827
12941W        W29125   5.406  10.296   5.528 -0.0305  0.1751  0.1681
12942W        W29126   5.670   7.759   1.287 -0.3157  0.0833 -0.0662
12943W        W29127   9.313   7.902   5.733 -0.0439  0.0103  0.0320
12944W        W29128  13.646   1.139   5.152  0.1293 -0.0364  0.2373
12945W        W29129   2.428  16.903   2.240 -0.1761  0.1340  0.2592
12946W        W29130  11.463   0.920   5.817  0.3540 -0.0345 -0.0736
12947W        W29131   6.791   5.941  15.015 -0.1746 -0.0511  0.0371
12948W        W29132   0.339  12.283  12.837 -0.0630  0.1250 -0.1535
12949W        W29133   4.968  11.095   2.032  0.0991  0.0297 -0.2256
12950W        W29134  11.829   0.881   3.949  0.1745  0.0325 -0.3977
12951W        W29135   9.049   3.465   2.034  0.0036 -0.2279  0.0562
12952W        W29136   5.150  11.475   0.132  0.0938  0.1021  0.1272
12953W        W29137   2.328  17.591   1.489 -0.0324  0.1367  0.1829
12954W        W29138   2.900   5.591  13.296  0.0667 -0.2607 -0.1743
12955W        W29139  10.800   3.054  13.136  0.0654 -0.0252  0.2758
12956W        W29140   9.330   8.635  15.718 -0.0526  0.0212 -0.1696
12957W        W29141  12.120   7.267  16.115 -0.1759 -0.0926 -0.3781
12958W        W29142   8.167  16.759   0.435  0.2336  0.1283 -0.1766
12959W        W29143  10.697  17.715   2.995  0.1659 -0.0048 -0.3582
12960W        W29144   8.677  12.616   5.539 -0.0862  0.1389  0.2325
12961W        W29145   9.180  15.091   4.649  0.0660  0.0347  0.3012
12962W        W29146   7.415   0.795   4.396 -0.4177  0.0358 -0.1630
12963W        W29147   2.135  16.270   2.468  0.1326  0.1185 -0.0759
12964W        W29148  13.999   2.336   3.781  0.3066 -0.0380 -0.2174
12965W        W29149   1.688   1.118  14.848 -0.1581  0.0956 -0.1814
12966W        W29150   0.317   8.608   3.207 -0.0567 -0.1736  0.0560
12967W        W29151  13.573  17.478   1.182 -0.1271  0.0609 -0.2637
12968W        W29152   2.877  13.475   3.781 -0.1868  0.0883  0.1847
12969W        W29153   0.860   5.333   1.471  0.4060  0.2001  0.0070
12970W        W29154   3.040  11.678   2.384  0.0048  0.1816 -0.1021
12971W        W29155   9.626   0.725   5.568  0.1433  0.2432 -0.2900
12972W        W29156   7.038   6.465   2.685  0.0807 -0.2481  0.0412
12973W        W29157  11.150   8.457  16.400  0.4303 -0.0072 -0.0132
12974W        W29158  15.449  13.940   0.703  0.0987 -0.0945 -0.0374
12975W        W29159  14.964  10.184  11.761 -0.2194 -0.0766  0.0181
12976W        W29160   7.242  17.015  12.837 -0.0500 -0.3225  0.2333
12977W        W29161  10.989   2.770  16.648 -0.2569  0.0472  0.1618
12978W        W29162  11.342   9.973   2.601 -0.1652  0.1531  0.0224
12979W        W29163   1.243  17.588  15.097 -0.2760  0.1410 -0.1719
12980W        W29164   3.417   9.988   2.151 -0.1332  0.0766 -0.2665
12981W        W29165  16.185  10.347   0.242  0.2407  0.3253  0.1013
12982W        W29166   8.042  15.675  11.648 -0.1552  0.2740  0.1588
12983W        W29167  16.942  11.189  13.142  0.1744 -0.0157 -0.1455
12984W        W29168   6.404   0.250  14.545  0.1099 -0.3435  0.2330
12985W        W29169   9.370  14.528  14.942 -0.0597  0.0436  0.3272
12986W        W29170  16.449   9.508  11.295  0.0168  0.3058 -0.2991
12987W        W29171  13.765   1.067   5.607  0.1451 -0.0007  0.0678
12988W        W29172  13.402  16.495  11.690  0.1049 -0.0399  0.1484
12989W        W29173   1.062   6.259   3.327 -0.2356 -0.0340 -0.1871
12990W        W29174   2.870   1.801   5.565  0.1872  0.4869 -0.1235
12991W        W29175   7.859  15.057   3.268  0.1803  0.0300  0.0788
12992W        W29176   2.252  13.042  15.731  0.0714  0.3015 -0.1239
12993W        W29177  11.575   0.837   2.675 -0.1709  0.0659 -0.0283
12994W        W29178   1.496   8.580  15.405  0.0695 -0.1306  0.0622
12995W        W29179  11.016   0.134  12.807  0.0717 -0.0719 -0.2893
12996W        W29180   1.785   9.338   3.664 -0.2033  0.6319  0.2587
12997W        W29181   3.128  17.339   2.953  0.1914 -0.1200  0.1890
12998W        W29182   8.867   0.343   4.025 -0.0549  0.3604  0.1079
12999W        W29183  14.364   8.062   2.380  0.0511  0.0441  0.0013
13000W        W29184   4.787   9.251  13.779  0.0747 -0.0352 -0.1866
13001W        W29185  13.740   3.382   1.265  0.0274 -0.2652  0.1455
13002W        W29186  16.118  14.141  14.836 -0.1257  0.6318  0.0952
13003W        W29187  17.467   7.144  14.346 -0.0233  0.2105 -0.0305
13004W        W29188   3.616   8.951   2.739  0.0271  0.1148  0.0105
13005W        W29189  13.872   7.451   1.845 -0.3999  0.0325 -0.0042
13006W        W29190   9.363   5.025   1.808 -0.2340 -0.1217  0.4540
13007W        W29191  15.531  13.645  15.984  0.4414  0.0459 -0.0575
13008W        W29192   7.111   9.041   0.403 -0.3341 -0.0588  0.1640
13009W        W29193  12.154  15.884  16.450 -0.1681 -0.0299  0.0523
13010W        W29194  16.843  10.469   3.359  0.0526 -0.0011 -0.1226
13011W        W29195  12.277   9.907   2.966 -0.2253  0.2803  0.0111
13012W        W29196   4.126  15.376  12.628 -0.0403 -0.0905 -0.0980
13013W        W29197   9.925  16.936  11.542 -0.0347 -0.0680 -0.0965
13014W        W29198  15.517   5.779  11.297 -0.3483  0.1012  0.2982
13015W        W29199  15.889  10.598   3.559  0.0022  0.2341 -0.0312
13016W        W29200   4.347   7.828  11.991  0.0729  0.0777  0.2090
13017W        W29201   6.952  12.252   1.290 -0.0864  0.1087 -0.0815
13018W        W29202  10.999   9.080  15.711  0.0352  0.2402 -0.2410
13019W        W29203  10.096   0.086   5.243 -0.1731  0.3415  0.0640
13020W        W29204   3.970   2.745   2.668 -0.2608  0.2305  0.1416
13021W        W29205   5.215  17.815   1.045  0.0844  0.1442  0.0404
13022W        W29206  16.627   2.773   3.938  0.0771  0.2580  0.2994
13023W        W29207  17.560   1.631  16.409  0.1481 -0.2013 -0.2073
13024W        W29208  11.512   8.313  14.140 -0.1373  0.0541  0.1851
13025W        W29209  10.659   9.491  16.655 -0.2222  0.0920  0.1231
13026W        W29210  13.449  14.463   5.385 -0.1393  0.1756  0.0323
13027W        W29211   5.954  11.765  16.288 -0.0198 -0.2343  0.1839
13028W        W29212  14.266   8.115  11.726  0.1693  0.2787  0.1513
13029W        W29213   2.265   6.678  13.636  0.0045  0.0005 -0.3431
13030W        W29214   7.821   3.249   5.326 -0.0079 -0.0628 -0.0327
13031W        W29215   0.917   5.566  11.582  0.0122  0.5144  0.3207
13032W        W29216  16.088   2.250  12.673  0.0552 -0.1535  0.3072
13033W        W29217  17.018   5.295   0.272  0.1451 -0.0839 -0.1486
13034W        W29218  17.826  10.362   1.374 -0.0170  0.0635 -0.1466
13035W        W29219   7.938   0.612   3.031 -0.2881 -0.0192  0.2652
13036W        W29220   0.846  15.400  16.134  0.0231  0.0930 -0.2102
13037W        W29221  15.525  16.421  14.740  0.3035 -0.0015  0.0567
13038W        W29222  18.055  13.483  12.495 -0.1729 -0.0079  0.0641
13039W        W29223  11.991  16.480  15.320  0.0980  0.1594  0.0449
13040W        W29224   8.287   5.914  12.298  0.0694 -0.0070 -0.0010
13041W        W29225   8.721  17.263  14.905  0.0348  0.0056 -0.2508
13042W        W29226  12.310  17.513  14.660 -0.2843  0.3647 -0.0698
13043W        W29227  10.097  11.762   2.785 -0.1748 -0.2226  0.2701
13044W        W29228   3.760   2.332  12.354  0.0511  0.0627  0.0338
13045W        W29229   5.308  17.945  13.959  0.1712 -0.0585  0.1298
13046W        W29230   3.541  17.895  16.174  0.0791  0.2385  0.0163
13047W        W29231   9.846  15.922   0.420  0.0731  0.3088  0.0193
13048W        W29232  14.572   5.875  15.682 -0.0982 -0.0200  0.0386
13049W        W29233   4.027  12.736   4.944  0.0206  0.0298 -0.0642
13050W        W29234   5.567  17.928   2.519 -0.2128  0.2708  0.2411
13051W        W29235   3.199  12.049  12.873  0.2676  0.1426  0.0242
13052W        W29236   9.160  10.301   2.699  0.2572 -0.0865  0.2808
13053W        W29237  12.228  17.295  15.209  0.2130 -0.1018 -0.1844
13054W        W29238   4.333   9.042  12.862  0.1814 -0.0042 -0.0029
13055W        W29239   6.256  12.790  16.384 -0.0991 -0.1711  0.0092
13056W        W29240   5.030   9.181  14.244  0.1051 -0.0064 -0.1693
13057W        W29241   7.654  14.960   3.730 -0.1843  0.0383 -0.2336
13058W        W29242   2.954   4.207  13.679  0.2070  0.0941  0.3285
13059W        W29243   9.731  12.655  13.073 -0.1214  0.3331  0.0130
13060W        W29244  13.136  10.358   2.765 -0.1379  0.0577  0.2327
13061W        W29245   0.427  13.452   1.484 -0.0768 -0.0799  0.1142
13062W        W29246   9.652   5.487   1.960  0.2188 -0.1815  0.1090
13063W        W29247   2.166   4.636   0.999 -0.0564 -0.4236 -0.0195
13064W        W29248  16.037  14.509   2.356 -0.0009  0.1435 -0.4802
13065W        W29249   2.403  12.676  15.334  0.0331 -0.1238 -0.2493
13066W        W29250   7.008   5.757  13.787 -0.0270  0.0140  0.2159
13067W        W29251   0.483  13.450   0.144 -0.3114  0.0854 -0.0764
13068W        W29252  14.583  15.350  14.811 -0.0868  0.2383 -0.0232
13069W        W29253  16.067  13.351   1.248  0.1933 -0.0382  0.0122
13070W        W29254  10.650  15.177   1.747 -0.3002 -0.0136  0.0727
13071W        W29255   6.221  12.741   4.007 -0.1106  0.1601 -0.0972
13072W        W29256   6.538   8.241   3.390  0.1946  0.0620  0.0628
13073W        W29257   8.179  12.015   3.761 -0.1538  0.2770  0.1087
13074W        W29258  12.666   6.215  13.769 -0.1242 -0.0674 -0.0363
13075W        W29259  14.648  16.148  12.571  0.0860 -0.2545 -0.1328
13076W        W29260   4.894   6.701   0.030 -0.0074  0.4177  0.0688
13077W        W29261   3.006  11.610  14.957  0.0441 -0.4215 -0.0212
13078W        W29262   1.790  13.984  14.710  0.1912 -0.0528  0.0377
13079W        W29263  11.940  18.120  14.365 -0.1270 -0.0611  0.1491
13080W        W29264  12.047   7.699  13.917 -0.1602 -0.1761 -0.0661
13081W        W29265   1.587  14.203   2.025  0.0081  0.4404  0.0918
13082W        W29266  14.135  18.138   4.822  0.0263  0.2697  0.0305
13083W        W29267  13.805  11.248   0.179  0.1966 -0.1432 -0.0352
13084W        W29268   5.630  15.641  14.397  0.1050  0.0639  0.0277
13085W        W29269  11.132  13.758  14.167 -0.1397 -0.2472  0.0173
13086W        W29270  12.694  10.869  16.228  0.1985  0.2116  0.3109
13087W        W29271   2.592  11.399  14.655 -0.0144 -0.2324 -0.1217
13088W        W29272   0.810  13.536   2.979  0.0115 -0.0090 -0.0890
13089W        W29273   7.083   8.176   6.096  0.0967  0.2189 -0.0447
13090W        W29274  11.773   7.411   2.131  0.1453 -0.1486 -0.2329
13091W        W29275   5.911  15.221  15.416  0.0710 -0.1829  0.1354
13092W        W29276   9.802  11.082  12.586  0.2201 -0.1228 -0.1113
13093W        W29277  11.952  11.839  15.403 -0.0812 -0.1289 -0.2183
13094W        W29278   9.813   5.086  15.861  0.1967  0.1417 -0.0744
13095W        W29279  10.820  15.585   2.062  0.4029  0.0056  0.0850
13096W        W29280  10.702   1.321  11.906  0.0324 -0.2352 -0.1291
13097W        W29281  13.743   7.941  11.814 -0.0727  0.1393  0.2638
13098W        W29282  14.711  13.096  11.973  0.0324  0.2430 -0.0704
13099W        W29283  14.276  12.442   1.552 -0.0932  0.1291 -0.1034
13100W        W29284   8.471  16.370   0.221  0.0569 -0.0604 -0.1391
13101W        W29285  14.122   2.770   2.272  0.0829 -0.1495 -0.0825
13102W        W29286   9.588   1.988   1.188 -0.1195 -0.1656 -0.0826
13103W        W29287  15.981  11.919  16.462  0.2412 -0.1901 -0.2701
13104W        W29288  10.614   2.918   4.124  0.0395 -0.0353  0.1566
13105W        W29289   5.380  15.667   1.614  0.2309 -0.2985  0.0925
13106W        W29290   0.231   5.461   4.639 -0.2011 -0.1545 -0.1227
13107W        W29291   6.227   8.969  15.671  0.2444  0.0360  0.1569
13108W        W29292  13.531   6.814   3.866  0.1900 -0.0783 -0.1524
13109W        W29293   4.409   4.069  13.890  0.2684  0.0738  0.2431
13110W        W29294  17.761   1.648   3.953  0.0388  0.2226  0.2163
13111W        W29295  14.076  15.177   0.007  0.1920 -0.1790 -0.2837
13112W        W29296  15.755  12.576   5.594  0.1639  0.2150 -0.0357
13113W        W29297  10.649   7.570  12.456  0.0931 -0.1419  0.0038
13114W        W29298   7.185  14.218  12.237  0.1208  0.1582 -0.0258
13115W        W29299   8.869  14.318   2.036 -0.4781 -0.2912  0.1978
13116W        W29300   4.253   1.792  16.505 -0.0055 -0.0984 -0.0283
13117W        W29301  11.584  16.068   2.481  0.0088 -0.0807 -0.0122
13118W        W29302   3.074   6.446  15.980  0.0197  0.1569 -0.1619
13119W        W29303   0.250   5.085   3.657  0.0564 -0.1163 -0.0860
13120W        W29304   5.411  10.030   4.395 -0.1217  0.1792 -0.2887
13121W        W29305   3.263   5.061   2.464  0.0308 -0.3910  0.3774
13122W        W29306   7.772   6.771   4.684  0.0203 -0.0473  0.0050
13123W        W29307  16.855  12.400   1.440  0.4385  0.1629 -0.0828
13124W        W29308   3.363  16.797  11.136 -0.0944  0.2390 -0.2078
13125W        W29309  18.120   9.810  15.843 -0.0934  0.1392  0.0659
13126W        W29310  17.663  12.937  15.407  0.1521 -0.1739  0.1649
13127W        W29311  13.201   1.428   5.170 -0.1594 -0.1125  0.2899
13128W        W29312   6.345   9.178  13.676  0.0966 -0.3809  0.0123
13129W        W29313  15.588   9.718   1.773  0.0900 -0.0872 -0.0271
13130W        W29314   7.998   7.440   2.210  0.0379  0.0206  0.2153
13131W        W29315   3.175  14.248   1.287 -0.4178 -0.0570 -0.0024
13132W        W29316  15.619   4.221  11.744 -0.0473  0.0310  0.1893
13133W        W29317  12.885   5.782   3.555 -0.0784  0.0973  0.1210
13134W        W29318   6.039   9.680   0.658 -0.1488  0.1613 -0.1553
13135W        W29319  11.421   1.734   5.211 -0.4461  0.3320  0.0017
13136W        W29320  14.259  15.447  11.808  0.0025 -0.2429 -0.1427
13137W        W29321   4.012   3.598  13.597 -0.3002 -0.0590  0.2052
13138W        W29322   9.446  15.347  15.753  0.0678 -0.3102  0.2692
13139W        W29323   9.000   2.404  16.023 -0.2175 -0.1740 -0.2231
13140W        W29324   2.310  13.007   3.114 -0.1315  0.0257  0.2531
13141W        W29325  10.625   8.201   0.732  0.1349  0.1462 -0.2071
13142W        W29326   5.801  12.239   5.216 -0.0411 -0.0730 -0.0423
13143W        W29327  15.121   0.019  15.584  0.0358  0.2365  0.0750
13144W        W29328  14.612   3.417   2.263  0.1611 -0.0213 -0.4434
13145W        W29329  12.459  17.780  12.197 -0.2146  0.2386 -0.2512
13146W        W29330   2.059   1.642  12.611  0.0339 -0.0851 -0.1938
13147W        W29331  14.429   3.647  12.231  0.1195 -0.0227  0.0604
13148W        W29332  14.394   7.556   3.649  0.0007 -0.1207  0.0610
13149W        W29333  16.701   0.059  12.751  0.2554 -0.0505  0.3208
13150W        W29334   4.099   2.170  13.440 -0.4877 -0.1931  0.3881
13151W        W29335   1.119  14.708   0.290 -0.0793 -0.3107 -0.0283
13152W        W29336  10.684   8.226   4.165  0.0336 -0.0197  0.0006
13153W        W29337   7.591   3.457   5.669 -0.1393 -0.0307 -0.0631
13154W        W29338   6.381   4.337  14.343 -0.0136 -0.0724 -0.0329
13155W        W29339  15.766   8.027   4.680  0.2866 -0.1060  0.1464
13156W        W29340   2.520   5.432  12.355  0.1768 -0.2838 -0.3152
13157W        W29341   2.252   9.757  13.802 -0.1304  0.1057  0.1194
13158W        W29342   4.334   0.343   1.987  0.0108  0.0785 -0.1363
13159W        W29343   4.952   4.589   5.680 -0.2017 -0.1440 -0.2693
13160W        W29344  12.056   1.868   1.191 -0.2925  0.3388  0.0876
13161W        W29345  10.879  12.388   2.877 -0.0042  0.0666 -0.0125
13162W        W29346   5.606  13.578  12.151 -0.0875  0.0834 -0.1066
13163W        W29347   5.035   9.022   2.202 -0.1027 -0.2391  0.2851
13164W        W29348  17.073   6.949   0.911  0.1384 -0.1405 -0.2885
13165W        W29349   1.233   0.093  13.333 -0.2781 -0.2431  0.0632
13166W        W29350   3.382   8.942   4.408 -0.2233  0.0974 -0.0485
13167W        W29351   0.463   1.393  12.490  0.1193 -0.1617  0.0315
13168W        W29352  11.476   3.671  15.726 -0.1127  0.0566  0.2281
13169W        W29353   7.504  13.515   1.181  0.2731 -0.1942 -0.2063
13170W        W29354   9.651   4.150  11.744  0.2171 -0.3027  0.0259
13171W        W29355  16.771   7.912   2.899 -0.1168  0.1679  0.3905
13172W        W29356   7.458   3.624  15.033 -0.1976  0.1199  0.0654
13173W        W29357  12.319   8.144  14.868 -0.2031  0.4247 -0.0476
13174W        W29358  10.114   5.664   2.945 -0.0764 -0.0380 -0.0406
13175W        W29359  16.118  12.705  13.450  0.1195  0.0479  0.0357
13176W        W29360   9.840   7.054  14.981  0.5015  0.1645 -0.1676
13177W        W29361   2.146  16.969  11.950 -0.2665 -0.3627  0.1937
13178W        W29362   3.887  10.474  15.438 -0.3442  0.3711  0.0880
13179W        W29363   7.606   1.658   5.738  0.0271  0.0181  0.1244
13180W        W29364  13.828   8.909   0.724  0.1621 -0.2559 -0.0417
13181W        W29365   3.760   4.573  15.245  0.2939  0.3870  0.0985
13182W        W29366   4.437  13.916  14.178  0.0877  0.1624 -0.0172
13183W        W29367   3.799  13.181   4.980  0.0286 -0.1407 -0.0064
13184W        W29368   3.562  11.048  13.809 -0.0079 -0.0780 -0.1083
13185W        W29369   0.634  16.659   0.870 -0.2109 -0.0623  0.1296
13186W        W29370   9.199   9.086   0.470  0.1968 -0.3918  0.0260
13187W        W29371  15.424  17.529  13.200  0.2602 -0.4183 -0.1623
13188W        W29372   1.305   7.111   3.991 -0.0925  0.0330  0.0966
13189W        W29373   2.920  12.321  13.184 -0.1787  0.0424  0.0177
13190W        W29374  11.980  12.640  11.989 -0.0688 -0.2592  0.0987
13191W        W29375  18.145   6.506  15.292 -0.1934 -0.3152 -0.2389
13192W        W29376   3.302  16.103  12.711 -0.5546 -0.0869 -0.1656
13193W        W29377  14.307  14.401  11.815 -0.0571 -0.2513 -0.1361
13194W        W29378  15.948   9.182  13.745 -0.2605  0.0197 -0.0146
13195W        W29379  16.948   9.351  14.915  0.1208  0.0934  0.1020
13196W        W29380   4.255  17.226  12.730  0.0617 -0.0740 -0.2077
13197W        W29381  15.655   1.805  15.506  0.0154 -0.0066 -0.1839
13198W        W29382  12.011   5.551   5.750  0.0968 -0.1082  0.1459
13199W        W29383  16.861  11.772   3.248 -0.2412  0.2603  0.3315
13200W        W29384  13.775  16.161   2.737 -0.1223  0.3286 -0.0986
13201W        W29385  11.076   1.065   1.915 -0.0902  0.0407  0.1271
13202W        W29386  11.439   2.263  13.030  0.0269  0.1193 -0.1492
13203W        W29387   3.158  15.471   5.075  0.0677  0.1220  0.3067
13204W        W29388  17.541   2.253  15.014  0.1150 -0.2912  0.2579
13205W        W29389  17.926  17.479   0.707 -0.2745  0.3104 -0.0788
13206W        W29390  12.920   9.838   4.712 -0.1385 -0.0045  0.1540
13207W        W29391   4.731  14.051  14.925 -0.0000 -0.1465 -0.3815
13208W        W29392   0.864   7.441   0.944  0.2487 -0.2650  0.2714
13209W        W29393  16.607   5.243  14.020 -0.2354 -0.0929  0.2893
13210W        W29394   0.271   1.927  13.964 -0.0981  0.1164  0.4519
13211W        W29395   6.456  15.610   4.899  0.2450 -0.1080  0.0600
13212W        W29396   9.909  15.559   4.498  0.1145  0.2355  0.1482
13213W        W29397  14.533   6.641   2.129 -0.0154  0.1389  0.0686
13214W        W29398   1.790  11.814   5.640  0.2381 -0.3298  0.0242
13215W        W29399  12.088  12.450   1.404  0.0712 -0.3063  0.0488
13216W        W29400  10.830  13.488   2.682  0.0204  0.1300  0.1237
13217W        W29401  10.422   8.033  16.349 -0.2750 -0.0582  0.1006
13218W        W29402   0.501  16.703   4.558  0.2659 -0.1201 -0.3264
13219W        W29403  14.118   1.617   0.703  0.0110 -0.5017 -0.0873
13220W        W29404   5.457   5.950  14.404  0.0544 -0.3270 -0.5824
13221W        W29405  14.031   0.890   0.308 -0.2688 -0.2344 -0.4338
13222W        W29406   4.776   0.172  14.701  0.3249 -0.0010 -0.0659
13223W        W29407   7.669  14.773   2.277  0.2675 -0.2325  0.0963
13224W        W29408   9.905  16.429   0.704 -0.1910 -0.0888 -0.2686
13225W        W29409   4.857   3.057   0.786 -0.3737 -0.1274  0.1488
13226W        W29410   0.031  17.710   5.386  0.1586 -0.0857 -0.0705
13227W        W29411  15.625  10.576   1.134  0.2542 -0.1127  0.5054
13228W        W29412   0.428   8.217   1.327 -0.2424  0.1507  0.1953
13229W        W29413   1.167   4.259   4.869  0.0948 -0.2580 -0.2457
13230W        W29414   4.252  13.462   5.276  0.0608 -0.2795 -0.1711
13231W        W29415  14.319   4.080   1.080 -0.3020 -0.6281 -0.0212
13232W        W29416   0.934  17.942  10.132  0.2899 -0.1276  0.1822
13233W        W29417  15.805   5.056   1.770 -0.1439  0.2265 -0.0646
13234W        W29418  12.628  14.131  12.427  0.1228 -0.1077  0.3272
13235W        W29419  10.158  12.322   4.571 -0.2993 -0.2676 -0.0893
13236W        W29420   8.730   9.766  16.575  0.2873  0.1248  0.1848
13237W        W29421   8.689   6.808  16.367  0.0029  0.0227 -0.0708
13238W        W29422  10.255   9.791   5.171  0.0398  0.0075 -0.0652
13239W        W29423  13.136   6.684  10.899  0.2627 -0.1205  0.0045
13240W        W29424   8.946   9.804  14.626 -0.0653 -0.0770  0.2784
13241W        W29425   6.947   5.346   5.498  0.0098  0.0931  0.0710
13242W        W29426  13.967  17.347   0.081  0.1385 -0.1184 -0.2493
13243W        W29427  13.432  17.768   0.786 -0.3086  0.1109 -0.0045
13244W        W29428  11.834  12.735   0.796  0.1110 -0.1479 -0.0919
13245W        W29429  13.304   0.089   0.893  0.0345  0.2491 -0.1579
13246W        W29430   6.650  13.131  13.970  0.0784 -0.2957  0.2200
13247W        W29431  10.509  17.951   1.969 -0.0509  0.2310  0.1698
13248W        W29432  10.577  17.725  14.474  0.3087  0.1659  0.1871
13249W        W29433   1.402  13.887   1.528  0.1266  0.0696 -0.0588
13250W        W29434  13.869  13.152  14.324 -0.3197  0.0081 -0.0854
13251W        W29435  15.891   1.244   5.875 -0.0037  0.1069  0.1359
13252W        W29436   3.569   4.990   4.066 -0.0132  0.2780  0.2820
13253W        W29437  17.634   4.446  14.668  0.0399 -0.3384  0.2161
13254W        W29438   3.419  13.687   0.926 -0.1185  0.0205 -0.0692
13255W        W29439   6.833   7.448   5.135 -0.1708  0.2686  0.1706
13256W        W29440  17.464  16.887   2.057  0.1310  0.0463 -0.0571
13257W        W29441  10.555   9.133  14.712  0.2457  0.2658  0.4011
13258W        W29442   5.219  10.388  14.069  0.3073  0.2669  0.0889
13259W        W29443   3.855   9.249  13.697  0.0183  0.0841 -0.1403
13260W        W29444  10.361   1.345   1.430 -0.1144 -0.0862 -0.0220
13261W        W29445   1.720  17.829   2.467  0.1133 -0.1519 -0.1212
13262W        W29446   6.373   7.252   3.304 -0.1724 -0.0242 -0.2547
13263W        W29447   0.158   5.715  12.223  0.4958 -0.1914 -0.1861
13264W        W29448   6.139  16.651   0.530 -0.3003 -0.4421 -0.0595
13265W        W29449   9.403  17.623  13.700  0.0866  0.1502  0.0857
13266W        W29450  10.748  15.774   3.442 -0.0452  0.1661 -0.1070
13267W        W29451  17.914   6.279  10.892  0.0870  0.3653  0.1108
13268W        W29452  17.602   2.566  11.959 -0.2906  0.3774 -0.1551
13269W        W29453   0.181  12.720   1.306  0.1763  0.0055 -0.1222
13270W        W29454   3.387   5.807   0.409 -0.1456 -0.0633 -0.0837
13271W        W29455  13.464   1.048   2.394  0.3269 -0.0230  0.1410
13272W        W29456  16.729  10.489  13.952 -0.1906 -0.2548 -0.1176
13273W        W29457  16.834   3.555   3.297 -0.0748 -0.0857  0.1005
13274W        W29458  17.325   4.795  16.096 -0.1790  0.1909  0.1616
13275W        W29459   8.348   7.365  15.300 -0.1389 -0.0957  0.2093
13276W        W29460   3.648   4.551   4.390  0.1343  0.1606 -0.1939
13277W        W29461   5.664   0.177   2.883 -0.3283 -0.0900  0.0627
13278W        W29462  17.119  12.932   5.837  0.1863  0.2864 -0.0154
13279W        W29463   2.942   8.610  15.446 -0.1842  0.1713 -0.1811
13280W        W29464  11.443   9.161  13.553  0.0218 -0.1930  0.1176
13281W        W29465   6.658   8.066  14.372  0.4118  0.1043  0.0355
13282W        W29466   2.022   9.455   1.181  0.0706  0.4010 -0.2327
13283W        W29467   8.145   5.484  13.002  0.2840  0.2877  0.4186
13284W        W29468   9.569  16.814  14.771 -0.1752  0.1019 -0.0318
13285W        W29469   2.733   3.621  15.558  0.1638 -0.2886 -0.3239
13286W        W29470   1.852   6.936   0.616 -0.0935  0.0291  0.0212
13287W        W29471  14.794   1.836  11.356 -0.0974  0.2760  0.3263
13288W        W29472   7.099   9.906  15.174  0.1883  0.1873 -0.1062
13289W        W29473  13.650   8.268  15.630  0.0603  0.0407 -0.3249
13290W        W29474   4.581   4.031  11.697  0.3837 -0.0555  0.2326
13291W        W29475  15.567  13.682  11.561 -0.0349 -0.0692  0.1479
13292W        W29476  14.431  14.905  13.395  0.1066 -0.0156  0.1777
13293W        W29477   2.949   9.566  13.862  0.0492 -0.0817 -0.0722
13294W        W29478   1.675   5.457  10.831  0.1080  0.1748 -0.1067
13295W        W29479   6.235  17.730  12.896  0.1545  0.0643 -0.0581
13296W        W29480  10.900  17.836  13.319  0.0589 -0.0747 -0.3156
13297W        W29481   5.870  15.910  14.876  0.0846 -0.0119  0.2213
13298W        W29482  11.980  12.331  16.308 -0.1158 -0.0064 -0.1034
13299W        W29483  12.526   4.308   0.505  0.2146 -0.0059  0.0022
13300W        W29484  17.772   5.255  12.983  0.0502 -0.0357 -0.1190
13301W        W29485  11.597  17.261  11.934 -0.0263  0.3728 -0.2834
13302W        W29486   7.430   5.403  11.310  0.1970 -0.1135 -0.0065
13303W        W29487   9.958  10.657  12.215  0.1348 -0.0149  0.0087
13304W        W29488   3.124   4.376  15.922 -0.3432  0.1949  0.2385
13305W        W29489  11.001   3.384   2.421 -0.1881  0.1076  0.1739
13306W        W29490   8.366   3.240   4.761 -0.0983  0.2053 -0.0869
13307W        W29491   6.488   6.247   5.198  0.2323  0.2364  0.3042
13308W        W29492  11.395  12.886   1.027 -0.1823  0.1498 -0.0398
13309W        W29493   8.201   6.058  13.367 -0.2860 -0.1345 -0.2922
13310W        W29494   2.735   1.750   3.675  0.0330  0.2178 -0.1503
13311W        W29495   1.369  16.191  15.111  0.1154  0.1310 -0.0785
13312W        W29496   5.984   3.090  16.443  0.0115 -0.0717  0.0991
13313W        W29497   2.769  11.371  15.270  0.1330  0.1997 -0.3670
13314W        W29498  13.074   7.947  12.029 -0.1125  0.0584 -0.0919
13315W        W29499  12.581   3.408  15.921  0.2716 -0.3355  0.0040
13316W        W29500  10.382  17.623   1.567 -0.1468  0.0685  0.1819
13317W        W29501   2.349  16.142   4.720 -0.2566  0.0503  0.0250
13318W        W29502   2.667   0.077  15.046  0.0659  0.1869  0.0714
13319W        W29503   6.629   9.746  15.319 -0.0755 -0.1567 -0.2320
13320W        W29504   3.753   0.572  16.165 -0.2404 -0.0024  0.0087
13321W        W29505  16.541   2.286  12.852  0.0430  0.0431 -0.3110
13322W        W29506   0.031   9.607   1.889 -0.0875  0.4824 -0.1129
13323W        W29507   2.596   7.720  14.832  0.1614  0.0431  0.1520
13324W        W29508   5.003  11.253  12.620 -0.0348  0.1220 -0.2670
13325W        W29509   0.966   2.506  11.099  0.0011 -0.3070  0.2666
13326W        W29510  12.970   3.387  12.243 -0.0519  0.1133  0.0584
13327W        W29511  10.482   2.649  16.560  0.1969  0.0218 -0.1616
13328W        W29512   6.014   1.111  15.792 -0.1990 -0.2582 -0.1537
13329W        W29513  16.536  10.687  16.524  0.1003 -0.2211  0.0961
13330W        W29514  16.835  17.754  14.552  0.0369 -0.0399 -0.0145
13331W        W29515  13.511  13.795  16.619  0.1463  0.0809 -0.1948
13332W        W29516  12.293   2.782   5.585 -0.1125 -0.0319 -0.1289
13333W        W29517  12.627  12.039   0.112 -0.0249  0.0732 -0.1842
13334W        W29518   9.305   7.447  14.222 -0.0096  0.0874 -0.1331
13335W        W29519  12.702  13.664   2.551  0.2706  0.1563  0.1116
13336W        W29520  14.094  15.460   1.430 -0.3332  0.0542 -0.2578
13337W        W29521  14.264   7.582  13.431 -0.0702  0.1976 -0.2722
13338W        W29522   5.899   1.886  12.584  0.2927 -0.1296  0.2177
13339W        W29523   6.076   6.989  13.296 -0.1180  0.4593  0.0357
13340W        W29524   5.139   0.887   0.800  0.0427  0.0635 -0.0623
13341W        W29525   4.447  11.172   0.713 -0.0356 -0.1193  0.3557
13342W        W29526   7.188   8.470   4.593 -0.0614  0.2097 -0.1300
13343W        W29527  13.376  17.284  11.535 -0.1179 -0.1652  0.0465
13344W        W29528  11.540   5.594  14.376 -0.1584 -0.1649  0.0274
13345W        W29529  13.142  10.391  13.737  0.2588  0.1688 -0.1235
13346W        W29530  10.240   3.784   3.083  0.2797  0.1342 -0.0657
13347W        W29531  12.926  15.834  12.893 -0.1591  0.5147 -0.2069
13348W        W29532  16.937  14.855   5.562  0.1204  0.0285 -0.1101
13349W        W29533  16.701   7.519  11.123 -0.0921 -0.1766 -0.2523
13350W        W29534  10.682   6.884  13.425  0.2282 -0.2479  0.0989
13351W        W29535   1.792   2.636  15.763  0.0143  0.1237  0.1897
13352W        W29536  11.004   0.641   3.945  0.5015  0.0140 -0.2536
13353W        W29537  15.590   0.003   6.078 -0.0829  0.0831 -0.3723
13354W        W29538   6.113  10.158  12.425 -0.1342 -0.0706  0.0026
13355W        W29539   0.458   0.826   4.262 -0.1305 -0.2850 -0.1329
13356W        W29540   2.474   6.498   3.242  0.3620  0.0467  0.0212
13357W        W29541   7.598   3.298  13.528 -0.0071  0.2210 -0.1224
13358W        W29542   7.746   3.123   4.443  0.0832  0.1282 -0.1009
13359W        W29543   0.260  15.480   3.230 -0.3279 -0.0607 -0.1537
13360W        W29544   1.637  17.032  12.008  0.0368  0.2791 -0.0784
13361W        W29545  10.262  16.275   0.396  0.3544 -0.3384 -0.2353
13362W        W29546  10.699   4.517  12.773  0.2628  0.0512  0.0663
13363W        W29547  10.248  12.489   1.516  0.0654 -0.5691 -0.1267
13364W        W29548   0.909  15.909  16.435 -0.0631  0.1026 -0.1397
13365W        W29549   0.094   9.430   4.564 -0.2048 -0.0348  0.0097
13366W        W29550   2.366   2.443   0.553 -0.2853 -0.0230 -0.0101
13367W        W29551  14.052   7.253  13.816 -0.2851 -0.0841  0.0664
13368W        W29552   3.992   5.608   0.727  0.0428  0.1806 -0.1888
13369W        W29553  12.262  18.151  16.369 -0.0594 -0.0613 -0.0830
13370W        W29554   6.775  10.947   1.022  0.3090  0.2427  0.3071
13371W        W29555   6.727   6.826   4.421  0.1513 -0.1095  0.0171
13372W        W29556   7.675   5.086   3.341  0.0726 -0.0332  0.0417
13373W        W29557  13.647   6.654   2.960 -0.0605 -0.0332 -0.1047
13374W        W29558   8.580   0.646   6.154  0.2106  0.0789  0.3114
13375W        W29559   2.494   3.839   2.784  0.2831 -0.0484  0.0112
13376W        W29560   9.001   1.372  14.400  0.1447  0.0221  0.1524
13377W        W29561   1.660   8.643   1.485  0.2063 -0.1303  0.1075
13378W        W29562  14.597   4.016   1.484  0.0601 -0.0995  0.0416
13379W        W29563  16.479  13.795   1.746 -0.2320  0.2340  0.1171
13380W        W29564   9.418   5.996   1.508  0.0174 -0.0255 -0.1401
13381W        W29565  11.792  13.301  13.029 -0.3002  0.2776  0.1504
13382W        W29566   2.910  17.755   3.218 -0.3395  0.0299 -0.2913
13383W        W29567  12.723   1.346   2.153 -0.2556 -0.0382  0.0850
13384W        W29568   5.885   5.540   4.946 -0.2615 -0.0938  0.2119
13385W        W29569   6.080   9.491   4.485  0.0940  0.1004  0.1236
13386W        W29570   1.212  13.905  12.768  0.1051  0.5427  0.0618
13387W        W29571   1.985  12.534   2.995 -0.2884  0.0087 -0.0139
13388W        W29572  12.090   8.335   0.766  0.3362 -0.1883  0.0964
13389W        W29573   5.955   3.366   2.029 -0.0033  0.3995  0.2036
13390W        W29574   9.874   1.769   3.611 -0.0620 -0.4687 -0.2089
13391W        W29575  13.304   7.062   4.234  0.0715  0.1631  0.0575
13392W        W29576  12.828   3.081  11.382  0.0027  0.1719  0.2035
13393W        W29577   0.626  15.986   1.658  0.2150  0.0867  0.3987
13394W        W29578   9.009  13.885   4.293 -0.0633  0.3459  0.0393
13395W        W29579  16.650  12.968   5.757  0.2238  0.0611  0.0476
13396W        W29580  10.834  15.386   2.594 -0.0245 -0.1406  0.1347
13397W        W29581   4.335   8.468   0.643 -0.1992  0.0995 -0.2126
13398W        W29582  14.865   7.949   2.227  0.2895  0.1498 -0.0522
13399W        W29583  13.526   8.071  13.618  0.2422 -0.0415 -0.1486
13400W        W29584   7.614   1.765  12.216  0.3429 -0.2758  0.0599
13401W        W29585   0.780   6.527   2.120 -0.0407  0.1850 -0.4085
13402W        W29586   0.213  17.442   4.013 -0.1674 -0.0940 -0.0964
13403W        W29587  14.605  12.937   3.487  0.2306 -0.0439 -0.0067
13404W        W29588  14.903   5.506  15.448  0.0758 -0.0713  0.1461
13405W        W29589  10.890   4.567   0.273 -0.0482 -0.3033 -0.1108
13406W        W29590   6.491   7.516   5.909 -0.1203  0.4415  0.0989
13407W        W29591   2.774  15.676  15.627 -0.2441 -0.0534 -0.1916
13408W        W29592   6.110  15.568  12.126  0.1401 -0.0371  0.2843
13409W        W29593   0.269   5.406   2.746  0.1086 -0.1040  0.2681
13410W        W29594   0.349  11.805   4.084 -0.1031 -0.1711  0.1631
13411W        W29595  15.233   6.610   1.581 -0.0759  0.1771 -0.2694
13412W        W29596   7.788  16.143   1.631  0.0349 -0.1919  0.3020
13413W        W29597   1.408   2.975  15.566  0.3726 -0.1382 -0.1739
13414W        W29598  12.727   7.835   3.154 -0.0429 -0.0499  0.0758
13415W        W29599   2.843   3.755  16.059  0.0101  0.0759 -0.0357
13416W        W29600   6.604  16.610   0.214  0.0996  0.1083 -0.0966
13417W        W29601  10.628   4.913  10.814 -0.0081  0.1628 -0.0521
13418W        W29602   2.302   8.738  12.225  0.2199 -0.0905  0.2962
13419W        W29603   6.404  14.280  13.980  0.0499 -0.2060  0.1399
13420W        W29604   0.384  10.848  15.650 -0.1490  0.2461  0.2124
13421W        W29605  14.557  14.716   5.628 -0.0271  0.0531  0.4142
13422W        W29606  12.457  17.683  15.089 -0.0977  0.0256 -0.0503
13423W        W29607  12.904   2.076  14.191 -0.0979  0.1218 -0.2370
13424W        W29608   9.071   5.921  13.550  0.2528  0.0862 -0.2239
13425W        W29609   7.891   2.704  14.171 -0.1393  0.1279 -0.0056
13426W        W29610   9.695  11.290  13.610 -0.0230  0.2682 -0.0944
13427W        W29611   1.696   9.158  11.573  0.1903  0.1578 -0.0419
13428W        W29612   5.236   5.257   0.219  0.2169  0.0363  0.2069
13429W        W29613   2.047   8.482  13.956  0.0382 -0.0406  0.0709
13430W        W29614   4.343   0.519   0.168  0.2692  0.2195  0.0197
13431W        W29615  17.228   8.501  15.966 -0.3403  0.3201  0.0711
13432W        W29616  14.346   6.442  14.444  0.0278  0.2340 -0.1354
13433W        W29617  16.342  12.398   1.155 -0.0382 -0.1819  0.0932
13434W        W29618   8.270  10.600  13.315  0.2349 -0.0594 -0.0226
13435W        W29619  14.829  17.641   0.389  0.2149  0.2772  0.1167
13436W        W29620   2.626  17.957   5.130  0.2428 -0.1048 -0.0212
13437W        W29621  10.317   0.046   4.741  0.0775 -0.1534 -0.0799
13438W        W29622   7.192  15.368   0.474  0.1062  0.1804 -0.3513
13439W        W29623   0.753   2.261   3.081  0.1228  0.1686  0.0136
13440W        W29624  16.979  14.871  13.545 -0.1654 -0.1466 -0.0135
13441W        W29625   9.699  17.867   4.126  0.0516 -0.2017  0.3714
13442W        W29626  13.104   6.038  12.820  0.0963  0.0860 -0.2476
13443W        W29627   0.343  13.770  13.170 -0.2350 -0.0484 -0.0583
13444W        W29628  11.892  12.226   4.917 -0.0459  0.3221  0.4509
13445W        W29629   0.675   5.410  11.172  0.2124  0.0858  0.1360
13446W        W29630  16.573  12.745   5.326 -0.0751  0.1892 -0.0949
13447W        W29631  17.146  14.256   0.774  0.3122 -0.1360  0.1027
13448W        W29632   5.621  11.807  11.123 -0.2177  0.2894 -0.0910
13449W        W29633  17.386  14.908   5.173 -0.4677  0.1207  0.0802
13450W        W29634   3.139   5.512   1.632  0.3072  0.2392  0.1185
13451W        W29635  15.301  16.188   2.287  0.1424  0.0914  0.1474
13452W        W29636  17.909   2.091  15.312  0.0639 -0.2739  0.0014
13453W        W29637  14.510   0.361   1.487  0.0009  0.2872  0.0155
13454W        W29638  16.888   2.375   3.342  0.3491 -0.1949 -0.0823
13455W        W29639   1.868  13.630   3.813  0.0647 -0.4833  0.3378
13456W        W29640   5.727  10.777   3.946 -0.0279  0.3845  0.0175
13457W        W29641   5.261   7.195  13.473 -0.3096 -0.1916  0.2786
13458W        W29642  13.096   2.936  13.897 -0.1201 -0.1277 -0.2872
13459W        W29643   7.543  13.821   2.408  0.1459  0.0110 -0.0685
13460W        W29644  15.214  14.816  15.978  0.0792 -0.2306 -0.1635
13461W        W29645   0.388  13.579   0.682 -0.0270 -0.1494 -0.0247
13462W        W29646   9.162   8.098  12.833  0.0162  0.2651  0.0493
13463W        W29647   0.999   3.311   2.499  0.1430  0.1774  0.0379
13464W        W29648   3.071  12.079   1.008  0.1109  0.0035  0.1234
13465W        W29649  17.659   5.240   1.550 -0.2706 -0.0583  0.2929
13466W        W29650  10.773  17.165   2.829 -0.1638  0.4960 -0.0365
13467W        W29651  12.430  15.972   4.818 -0.1994  0.2209 -0.1205
13468W        W29652   9.118  16.835   2.441  0.1678  0.2719 -0.0300
13469W        W29653  12.625   7.411  12.272 -0.1216  0.3847  0.3882
13470W        W29654   1.036   2.493  12.864  0.1922  0.3219 -0.0889
13471W        W29655   6.896   0.252   3.479 -0.0793 -0.2582  0.1573
13472W        W29656   2.863   0.276  13.610 -0.1231  0.2450 -0.1082
13473W        W29657  10.946   1.603  13.329 -0.1552  0.0339 -0.0051
13474W        W29658  17.535   9.256  15.488  0.0967 -0.0853  0.0562
13475W        W29659   6.093  10.134  14.729  0.1325 -0.2771  0.2277
13476W        W29660  14.976  10.671  15.812  0.2339 -0.1871  0.2363
13477W        W29661  13.615  12.576  16.070 -0.1134 -0.0568 -0.1325
13478W        W29662   1.959   5.603  11.852  0.0940  0.0726  0.1435
13479W        W29663  10.469  15.597   5.373  0.0282 -0.0879 -0.1284
13480W        W29664  14.544   6.196   4.964 -0.2589  0.1327  0.0921
13481W        W29665  16.612   4.505   3.821  0.0306 -0.1856  0.1399
13482W        W29666   6.326  12.168   4.124 -0.2311  0.1641  0.0733
13483W        W29667   7.713   5.684   3.688  0.1302 -0.5520  0.3336
13484W        W29668   7.128  15.795   2.779  0.2001  0.1572 -0.1588
13485W        W29669   9.724  11.529   3.527 -0.1076 -0.1061  0.2244
13486W        W29670   4.449  17.373   5.393  0.0464 -0.4062  0.3168
13487W        W29671   1.516  10.612   3.577 -0.0653 -0.2808 -0.1959
13488W        W29672  14.216   3.215   2.022  0.1451  0.0232  0.4605
13489W        W29673  10.700  14.401  14.631  0.1650 -0.0124  0.3491
13490W        W29674  16.549  13.000   2.484 -0.1872  0.2123  0.3925
13491W        W29675  17.227   0.872  14.870 -0.1711  0.0246  0.0587
13492W        W29676   8.296   9.783   3.650  0.1459  0.3516 -0.0989
13493W        W29677   3.668  16.773  13.403  0.1937 -0.1558 -0.1723
13494W        W29678  13.249   4.192   4.907  0.0943  0.1575  0.0487
13495W        W29679   2.353   6.337   0.477  0.3537 -0.2573  0.1843
13496W        W29680  14.846  11.284   3.527 -0.0967 -0.1159 -0.2241
13497W        W29681  14.667   2.420   3.073 -0.0726 -0.0219 -0.1049
13498W        W29682   7.092  16.839  14.271  0.3307  0.1630 -0.0854
13499W        W29683  10.304  14.575  15.007  0.1440 -0.0440 -0.1962
13500W        W29684  11.989  17.674  11.970  0.1358  0.3019  0.0318
13501W        W29685   2.566  11.006  16.649  0.1368 -0.1557  0.1600
13502W        W29686   9.009   4.501  12.113 -0.1489  0.1831  0.2159
13503W        W29687   5.496   1.986   1.269 -0.4154 -0.1048  0.0253
13504W        W29688  11.675   0.628  16.683 -0.1502  0.0632  0.0289
13505W        W29689  11.808   9.065  12.383 -0.0069 -0.0319 -0.4656
13506W        W29690   6.816  16.554   4.612  0.2896  0.4829 -0.0668
13507W        W29691  12.046   9.125   1.418  0.4064  0.3770  0.3078
13508W        W29692   0.001   3.545   2.704  0.0822 -0.1797  0.1141
13509W        W29693  11.212   4.765  15.623  0.1171  0.0851 -0.4873
13510W        W29694  14.109   1.676   2.644  0.1618 -0.2829 -0.0356
13511W        W29695   8.771   4.491   4.680 -0.1527 -0.4210 -0.3238
13512W        W29696   3.948  10.145   1.989  0.0083 -0.1903  0.1071
13513W        W29697   6.949   1.335   6.452 -0.3143  0.1030 -0.1676
13514W        W29698   8.684   3.848   1.968  0.1331 -0.1794 -0.0105
13515W        W29699  11.085  10.865  12.791 -0.3005 -0.3477  0.2364
13516W        W29700   3.670   8.350   3.454 -0.2558  0.2492  0.0423
13517W        W29701   9.130   8.647   4.034  0.0839  0.2787 -0.0442
13518W        W29702  13.746   6.825   2.455  0.0365  0.0314 -0.2963
13519W        W29703  12.031  16.007   5.133  0.0562 -0.0333  0.2150
13520W        W29704  14.278  12.820   3.929 -0.1491  0.4534  0.0475
13521W        W29705   1.563   8.939   1.859 -0.0688  0.2177  0.3944
13522W        W29706   5.765   4.416   2.965  0.0649  0.1196 -0.2351
13523W        W29707   4.447   1.069   2.132 -0.2543 -0.0633  0.1940
13524W        W29708   4.553   7.153  11.601  0.3751 -0.3169 -0.0206
13525W        W29709  15.398  15.758   0.420 -0.0655  0.0432  0.0718
13526W        W29710  10.160   9.061   3.468  0.1037 -0.0311 -0.0266
13527W        W29711  12.998   2.389   4.621  0.1911 -0.1718  0.0296
13528W        W29712   9.560  17.452   0.767  0.1922  0.1252 -0.0845
13529W        W29713  12.846   1.805   0.576  0.1648 -0.2137 -0.1655
13530W        W29714   6.075   5.027  12.988  0.1938 -0.0848  0.0523
13531W        W29715   4.873   5.714  15.494 -0.2329  0.4312 -0.0531
13532W        W29716   3.377   7.445   0.471 -0.0743 -0.0283  0.1876
13533W        W29717   1.445   4.457   3.289 -0.2857 -0.2319 -0.2231
13534W        W29718   4.753  11.544   6.246  0.2777 -0.2109  0.0811
13535W        W29719   4.176  15.162  14.365  0.5071  0.1173  0.2258
13536W        W29720  17.209  15.668  15.476  0.1353  0.0852 -0.0277
13537W        W29721   7.758   4.606  16.662 -0.2686  0.1719 -0.0749
13538W        W29722   7.504   6.609  16.057  0.3066  0.0488  0.1369
13539W        W29723   0.199   4.005  12.951  0.0575  0.1166  0.0728
13540W        W29724  15.437  13.403  13.457 -0.0968 -0.2100  0.2770
13541W        W29725  15.651  15.543  12.280 -0.4517 -0.0345 -0.0688
13542W        W29726  17.716  11.603  15.391  0.1518  0.2504 -0.2382
13543W        W29727   1.140  13.009   3.309 -0.0201 -0.1998 -0.1732
13544W        W29728  15.972  16.363  14.848 -0.0150 -0.3011 -0.2088
13545W        W29729   5.994   7.693  12.747  0.3003 -0.1241  0.0412
13546W        W29730   1.006  11.081  12.070 -0.0229 -0.0120 -0.3008
13547W        W29731  11.566   2.054   0.110 -0.1320 -0.2467  0.0814
13548W        W29732  14.117   0.626  12.523 -0.0532  0.3579  0.2744
13549W        W29733  17.786  17.554  16.674 -0.0476 -0.1799 -0.0459
13550W        W29734   5.761   1.323   2.019  0.1561 -0.1672  0.2101
13551W        W29735   3.127  14.787  13.790  0.3223 -0.1152  0.0949
13552W        W29736  16.949   1.530   4.694  0.0729 -0.1485  0.1040
13553W        W29737  12.846   2.470   1.347 -0.0574  0.0668  0.0623
13554W        W29738   7.044   4.970   2.004  0.1582 -0.0420 -0.0507
13555W        W29739  14.191  17.126   4.795  0.0178  0.1254  0.0347
13556W        W29740   1.839   0.192  13.366  0.2105 -0.2602 -0.0618
13557W        W29741   7.194   6.543  15.658  0.2237 -0.1772  0.0094
13558W        W29742   9.333   6.867   2.481  0.1191 -0.0948  0.0677
13559W        W29743  10.561   3.655   1.461 -0.2986  0.0014 -0.0447
13560W        W29744  13.745  13.345   1.542 -0.2929 -0.1141 -0.3304
13561W        W29745   4.499  16.201  12.464  0.0965  0.3249 -0.2646
13562W        W29746   2.375  14.681  16.572 -0.2105 -0.0748  0.1165
13563W        W29747   1.525   7.004   4.542 -0.1651 -0.1374 -0.1243
13564W        W29748   3.123  12.187   4.472 -0.0130  0.3640  0.4246
13565W        W29749   8.817   0.797  15.723 -0.0149  0.2482 -0.0748
13566W        W29750   5.770  15.415  14.910 -0.0665  0.2358 -0.0076
13567W        W29751   0.301   4.623   1.665  0.1153 -0.1112  0.1193
13568W        W29752   6.348   8.426   0.230  0.0193 -0.0312  0.0560
13569W        W29753   5.402  11.136  15.301  0.2094  0.0343  0.3069
13570W        W29754  14.325  10.754  16.665  0.2912  0.2464  0.1602
13571W        W29755  13.261  10.994   1.417  0.0906  0.2116 -0.1586
13572W        W29756   0.099  14.471  12.012  0.1124  0.0521 -0.0090
13573W        W29757   9.840   9.870   4.205 -0.2068 -0.0563  0.1141
13574W        W29758  17.879  14.584   4.373  0.0368 -0.1480 -0.2185
13575W        W29759  16.674  13.753   6.290  0.1074  0.0176 -0.1867
13576W        W29760  15.649  14.188  15.035  0.2655  0.1277  0.2041
13577W        W29761  10.998   1.210   4.614  0.0180  0.2239  0.1807
13578W        W29762  12.969  13.420  15.749  0.2166 -0.1187  0.0814
13579W        W29763   1.973   3.850  13.048  0.3205  0.1775 -0.4274
13580W        W29764  11.560   6.743   0.129  0.1335  0.0529 -0.6745
13581W        W29765  13.595   5.774   4.064  0.0361  0.3062 -0.1283
13582W        W29766  16.999  12.132  13.806 -0.2063  0.1703  0.1114
13583W        W29767  15.148  15.039  14.155  0.2029  0.2300  0.0253
13584W        W29768   1.566  13.529   0.802 -0.1279  0.4972  0.0836
13585W        W29769   0.730  11.844  13.556 -0.0337  0.1191  0.2191
13586W        W29770   5.036  12.948  13.039 -0.0283  0.0392 -0.1110
13587W        W29771   7.997  10.654  15.756 -0.0075 -0.2010  0.4769
13588W        W29772   7.050  16.823   4.291 -0.1049  0.0704  0.0053
13589W        W29773  11.629   7.468  16.292 -0.3747 -0.0923  0.3021
13590W        W29774  15.609  12.272  13.714  0.0944  0.2077  0.0381
13591W        W29775  11.102   7.680   4.760  0.0156 -0.1698  0.2594
13592W        W29776  11.598   4.618   4.403 -0.0712 -0.1027 -0.2725
13593W        W29777   9.003  18.129  11.502 -0.3149  0.3006 -0.0105
13594W        W29778   9.760   4.452  13.913 -0.2154 -0.1909  0.0619
13595W        W29779   6.178   5.885   3.509 -0.1030  0.0497 -0.2898
13596W        W29780   6.986   3.840   1.497  0.1277  0.0561 -0.1011
13597W        W29781   9.683   7.625   1.447 -0.6075 -0.0570  0.0897
13598W        W29782   2.720   7.906   0.990  0.0385 -0.0907 -0.0260
13599W        W29783   2.747   0.024  16.010 -0.1753  0.0175 -0.2332
13600W        W29784   8.602   9.503  14.707 -0.2553 -0.1205 -0.0741
13601W        W29785  15.869  12.181  15.674  0.0211  0.1078  0.2529
13602W        W29786   4.390   3.257  14.540 -0.3290  0.2059 -0.0657
13603W        W29787  16.178  16.563  12.189 -0.0577 -0.0865  0.1445
13604W        W29788  10.999   3.488   5.228 -0.1277 -0.1217  0.1917
13605W        W29789   1.070  16.406  16.300 -0.1719 -0.0844  0.1859
13606W        W29790  10.609  13.064  15.010 -0.0175  0.0436 -0.1622
13607W        W29791   6.419   7.199   2.317 -0.2643 -0.2831 -0.1738
13608W        W29792  15.575   6.168  13.847  0.0106  0.0447  0.1023
13609W        W29793   2.004   6.178  10.938  0.1299 -0.1520  0.0125
13610W        W29794   3.308   5.793   4.588  0.1220 -0.1206  0.2279
13611W        W29795  17.943   7.575  13.275 -0.1554 -0.3274 -0.1887
13612W        W29796  10.267  10.530  15.207 -0.0535 -0.4417 -0.0608
13613W        W29797  14.768  12.935  14.897 -0.3215 -0.1706  0.1091
13614W        W29798   4.443  15.053  15.586  0.1623  0.0653  0.1653
13615W        W29799   5.516  11.443  12.113  0.1870  0.0714 -0.0562
13616W        W29800   5.687  14.911  16.112  0.2836  0.3377  0.0771
13617W        W29801   8.004  10.195   0.435 -0.0193  0.1417  0.2168
13618W        W29802   6.618   2.745   4.389  0.1673 -0.3109  0.2613
13619W        W29803   5.642   3.874   1.309  0.0873  0.1941  0.4747
13620W        W29804   9.624   5.952   5.883 -0.2832  0.1327 -0.0524
13621W        W29805   0.198  11.826   2.525 -0.3122  0.1290  0.4135
13622W        W29806  10.607   7.100  13.940 -0.1076 -0.0323 -0.0704
13623W        W29807   9.692   2.346  15.486  0.2114 -0.4312  0.2361
13624W        W29808  12.757   1.242  13.092 -0.1130 -0.2678  0.1288
13625W        W29809   6.682  17.411   5.042  0.1402  0.2695  0.1177
13626W        W29810   4.636   0.605   5.783 -0.0848 -0.1527  0.1515
13627W        W29811   8.176  17.784  13.867 -0.0670 -0.1360 -0.1760
13628W        W29812   3.530  11.677  16.462  0.0318  0.0851  0.0664
13629W        W29813  13.111   8.729  11.730 -0.0834 -0.0031 -0.2148
13630W        W29814   2.511   4.636   0.433  0.0357 -0.1885 -0.1516
13631W        W29815   9.749  17.006   1.706 -0.1763  0.1073  0.1125
13632W        W29816   4.757   9.450   3.997  0.0249 -0.2199  0.0378
13633W        W29817   6.420  15.128   1.731  0.1781 -0.0931 -0.1538
13634W        W29818  16.409  18.012  11.829  0.3736 -0.2477 -0.0355
13635W        W29819  14.851  16.714   3.890 -0.0314  0.1401  0.0081
13636W        W29820   6.208   3.459   1.364  0.1271 -0.0509 -0.2944
13637W        W29821   3.620   5.948   0.848  0.0255  0.0974 -0.2985
13638W        W29822  14.052  14.879  11.728 -0.4189  0.0008 -0.2828
13639W        W29823   8.702   8.368   2.819 -0.0217  0.0054  0.2700
13640W        W29824   9.909  13.804   3.342 -0.1660 -0.2083 -0.1757
13641W        W29825   1.915   4.212   0.213 -0.1509  0.4935 -0.0187
13642W        W29826   6.758  13.547  15.996 -0.1751 -0.1405 -0.0125
13643W        W29827  16.286   2.291  12.180  0.1715  0.0762  0.1357
13644W        W29828   6.321   4.011   2.693 -0.0983  0.0194  0.0411
13645W        W29829  15.939  10.450  11.867 -0.2022 -0.0136  0.2143
13646W        W29830  10.823  12.688   4.011  0.2035 -0.2424  0.0135
13647W        W29831   7.887   8.531  12.603 -0.0461  0.0685  0.1467
13648W        W29832   3.518  12.630  15.833 -0.2328 -0.1299  0.0149
13649W        W29833   7.462   3.244  12.330  0.0300  0.0779  0.1693
13650W        W29834   9.243   6.534  12.233 -0.0901 -0.1016 -0.0725
13651W        W29835   7.242   8.130  14.394 -0.2086  0.1073 -0.3600
13652W        W29836  15.191   7.926   2.659 -0.0101  0.3016 -0.0914
13653W        W29837   5.931  15.218  14.270 -0.3512  0.0678 -0.0639
13654W        W29838  12.024  16.849  14.154 -0.1769 -0.0998 -0.0829
13655W        W29839   6.878   9.484  12.320  0.2572  0.0129  0.0965
13656W        W29840   1.239   8.622   2.085  0.3215 -0.0519 -0.4068
13657W        W29841   2.048  18.056   2.862  0.2556  0.0520 -0.0630
13658W        W29842   8.165   6.586   0.450  0.3875  0.1257  0.0307
13659W        W29843   1.086   2.124   0.119 -0.1811 -0.0067  0.0525
13660W        W29844  14.781   3.892   2.080  0.1873 -0.0270 -0.0594
13661W        W29845  12.498   5.309   5.545 -0.3324  0.3123  0.0398
13662W        W29846   2.814  14.028   0.166  0.1751  0.1531 -0.0303
13663W        W29847  13.232  17.409   3.116 -0.1215  0.0421  0.0300
13664W        W29848  10.212   1.375  12.312  0.1848  0.1053  0.1712
13665W        W29849  11.095  17.892   2.103 -0.2639 -0.0330  0.2785
13666W        W29850  10.767   4.651  14.859 -0.0463  0.2585 -0.0637
13667W        W29851   9.629  11.482   4.539  0.0657  0.0375 -0.1394
13668W        W29852  16.442  16.320  12.622 -0.1081  0.1355 -0.2293
13669W        W29853   2.406   8.607  13.492 -0.0033  0.2705 -0.1480
13670W        W29854   5.334   2.428   4.544  0.3513 -0.3135  0.0176
13671W        W29855   3.000  18.115   4.467  0.1714  0.0874  0.2725
13672W        W29856   7.198   2.086  14.930  0.0646  0.2333  0.0986
13673W        W29857   1.459  17.436   5.250 -0.0790  0.0940 -0.1627
13674W        W29858   3.666   8.371  16.533 -0.0120 -0.1844 -0.0913
13675W        W29859  16.967  16.308   2.418  0.0208  0.0275 -0.2349
13676W        W29860   6.960   0.237  12.009 -0.3140  0.2585  0.0221
13677W        W29861   4.491   6.195   2.521 -0.2074  0.2261 -0.1737
13678W        W29862  10.432   9.376   1.794  0.5091 -0.0771 -0.0320
13679W        W29863  13.972   3.844   3.272  0.0189  0.1109  0.5137
13680W        W29864  15.789   6.017  10.849 -0.4704  0.1445 -0.1480
13681W        W29865   4.146   1.559   0.656 -0.0730  0.4590 -0.1243
13682W        W29866  12.455   0.164   0.450  0.1957 -0.4298  0.0729
13683W        W29867   0.378  15.884   2.777 -0.0085 -0.0783 -0.0141
13684W        W29868   2.496  11.137  16.178  0.2669 -0.0986 -0.2958
13685W        W29869   7.295   1.645  12.936  0.3284  0.5548 -0.3133
13686W        W29870  12.143  14.961   5.752  0.2785  0.1226 -0.0401
13687W        W29871  12.863   5.814   5.424 -0.0760  0.5755  0.2196
13688W        W29872   4.923  13.569  14.874 -0.0579 -0.2508 -0.1991
13689W        W29873   7.047   9.991   1.957 -0.1608  0.0463  0.1175
13690W        W29874  15.754   3.711   2.892 -0.0625 -0.5045 -0.1359
13691W        W29875  17.067  12.718   4.649  0.0151  0.1422  0.0883
13692W        W29876  14.045   6.615  14.063 -0.4058 -0.4769  0.2511
13693W        W29877  13.452   0.140   4.107 -0.4881  0.1251  0.2391
13694W        W29878  17.882  15.851  13.233 -0.1533  0.1921  0.1071
13695W        W29879   9.415   4.226  12.228 -0.1620  0.0558 -0.0294
13696W        W29880  18.001   4.370  14.048  0.0885 -0.1968  0.0049
13697W        W29881  14.839   9.746   2.385  0.0602  0.1811  0.0008
13698W        W29882   9.692  17.893   2.884  0.0190 -0.0578  0.3024
13699W        W29883   2.363   0.780   4.064 -0.1051  0.0360  0.0423
13700W        W29884   2.033   4.926  13.349  0.0650  0.0614 -0.2728
13701W        W29885   8.864   1.105   4.304 -0.1767 -0.0205  0.1036
13702W        W29886   6.046   2.802   4.247  0.0164 -0.2519  0.1418
13703W        W29887  16.484  13.101  12.673 -0.2891  0.1276  0.3229
13704W        W29888  15.854  10.140   3.330  0.3139 -0.2976  0.3102
13705W        W29889  15.788  17.270  11.956  0.2397 -0.0786 -0.0215
13706W        W29890  13.596   5.256   3.207 -0.2743 -0.1001 -0.1266
13707W        W29891   9.127   0.801  16.117 -0.1487 -0.3178 -0.2233
13708W        W29892  14.977   2.556   2.003 -0.1545 -0.1034 -0.0190
13709W        W29893  12.520   7.426   4.978 -0.2852  0.1258  0.1512
13710W        W29894   0.792   8.435   1.899  0.0344  0.2173  0.1293
13711W        W29895   9.951   6.087   4.906 -0.1288  0.0745 -0.2228
13712W        W29896   3.342  11.731   0.696  0.0217 -0.0467  0.1404
13713W        W29897  11.845  17.185  16.065 -0.2531 -0.2350 -0.0704
13714W        W29898  16.763   7.060  15.929 -0.1004  0.1378 -0.2775
13715W        W29899   6.490  10.602   6.256  0.1172 -0.1321 -0.1139
13716W        W29900   3.315  12.646   0.108  0.2764  0.0259  0.0932
13717W        W29901   5.650  14.455   3.570  0.2169  0.2441 -0.0739
13718W        W29902   0.095  10.904   3.100  0.3453  0.0218  0.4278
13719W        W29903  13.763  12.586   4.117  0.2289 -0.1193 -0.1971
13720W        W29904   6.369   0.059   3.595  0.5021  0.2910  0.1862
13721W        W29905   9.438   9.438   2.944  0.4130 -0.0636  0.3230
13722W        W29906  14.968   3.152  10.369  0.2118 -0.0425 -0.3183
13723W        W29907   4.253  14.920  16.538 -0.1371 -0.0804 -0.0367
13724W        W29908   0.563  15.627  15.521  0.2737 -0.3036 -0.0329
13725W        W29909   0.407  17.659  13.196 -0.1572  0.1474  0.1579
13726W        W29910   3.462  10.299  14.972 -0.2062 -0.1990  0.0209
13727W        W29911   2.617   0.602  13.910  0.2804 -0.1713  0.1503
13728W        W29912   1.019   3.979   1.788 -0.2188 -0.0031  0.1195
13729W        W29913  14.746   7.754   0.210 -0.0570 -0.1085  0.0796
13730W        W29914   3.335  11.576   1.207 -0.0116  0.1676  0.2651
13731W        W29915   6.324   9.404  13.134  0.2595 -0.0230 -0.0690
13732W        W29916   7.716  12.693   1.577  0.0100 -0.0072 -0.2988
13733W        W29917   0.026   5.420  15.931  0.1127 -0.0128 -0.2815
13734W        W29918   0.676  11.531   5.370 -0.2315 -0.0028  0.5578
13735W        W29919  18.074  15.055   4.554 -0.2678 -0.2064  0.0032
13736W        W29920   3.483  14.767   3.373  0.0573 -0.0445  0.0381
13737W        W29921   4.948   9.467   2.727  0.0021 -0.4261  0.1439
13738W        W29922   7.988   0.373   4.052  0.0078  0.1884  0.3642
13739W        W29923  14.949   1.995  12.343  0.0757  0.0734  0.0406
13740W        W29924   9.143  16.870  15.195  0.0868  0.1936  0.1857
13741W        W29925   1.753   3.006   5.326  0.3983 -0.1518  0.3637
13742W        W29926  17.723  16.952  14.569 -0.1342  0.1017  0.1563
13743W        W29927  14.460  17.758  15.444 -0.0601 -0.0934 -0.1535
13744W        W29928  16.844  10.784   2.886  0.0232  0.0485  0.0714
13745W        W29929  12.908  12.747   0.569  0.0672 -0.1238 -0.4093
13746W        W29930   8.062   7.835   5.602  0.2789 -0.4390 -0.3283
13747W        W29931  13.000  18.011  14.461  0.0079 -0.1865 -0.1726
13748W        W29932   5.698  17.071  15.077 -0.0753  0.5853  0.2950
13749W        W29933  15.655  17.621   2.643 -0.2345  0.0534  0.1114
13750W        W29934   5.685   6.139   3.543 -0.0543  0.1120  0.1527
13751W        W29935   6.269   1.799  15.742 -0.2075 -0.1658 -0.1002
13752W        W29936  11.593   0.288  11.926  0.2128 -0.1736 -0.1203
13753W        W29937   7.407   6.443  13.848  0.0808 -0.1640  0.0954
13754W        W29938  10.324   3.940  12.166 -0.3190  0.0944  0.1544
13755W        W29939  11.184   6.703  15.176  0.0989 -0.0088  0.3551
13756W        W29940   2.406  15.988  11.724  0.2601 -0.2509  0.2219
13757W        W29941   0.594   8.929  12.855 -0.4660 -0.2522 -0.0219
13758W        W29942   4.978   3.867  11.329  0.0225  0.1696 -0.3251
13759W        W29943  12.156   7.474   4.656  0.1195  0.0051  0.2646
13760W        W29944   0.907   5.195  16.184 -0.3373  0.0458  0.2214
13761W        W29945  14.894   7.448   0.588  0.0850  0.0233  0.1129
13762W        W29946   8.750   8.901   3.671  0.1055  0.2223 -0.4608
13763W        W29947   1.642   6.940   3.554  0.0225  0.1759  0.0849
13764W        W29948  12.041  13.825  13.766  0.1754 -0.1803 -0.2356
13765W        W29949   4.749   7.327  12.723  0.1768  0.0469 -0.0469
13766W        W29950   0.335   8.617  15.464  0.2352 -0.0119 -0.1156
13767W        W29951   3.075  17.364   2.457 -0.1956  0.0245  0.1808
13768W        W29952  15.407   1.337   4.083  0.1675  0.0535  0.2197
13769W        W29953   8.006  15.255  12.901  0.1186  0.3329  0.0387
13770W        W29954  18.151  13.509  12.997 -0.0151 -0.3597 -0.0795
13771W        W29955  16.367   2.753  16.581  0.0457 -0.1082  0.3006
13772W        W29956   6.157   7.825   1.685 -0.1278  0.1391  0.1608
13773W        W29957   9.529  17.312   3.029 -0.1066 -0.3627 -0.0798
13774W        W29958   2.305  16.812  14.995  0.1254  0.0655  0.1723
13775W        W29959   5.389  12.996  13.936  0.0380  0.1207  0.3964
13776W        W29960  11.846   8.332  15.888  0.1252  0.0781 -0.1046
13777W        W29961   6.699  15.546   0.680 -0.2741  0.0668  0.1942
13778W        W29962  14.693  13.415   3.636 -0.0019  0.0748  0.4193
13779W        W29963  15.668   6.836  16.203  0.0186 -0.3714  0.3412
13780W        W29964   2.672  10.017  13.863  0.0116  0.2654 -0.2566
13781W        W29965  10.820   7.169  15.927 -0.1703  0.0673  0.2459
13782W        W29966   5.038  15.852   3.719 -0.1144  0.1709  0.0959
13783W        W29967   8.055   1.060   1.479 -0.0325  0.1925  0.1960
13784W        W29968   9.356  13.686   3.243  0.2183  0.0794  0.3222
13785W        W29969   5.455  12.929  15.450 -0.0078 -0.0001  0.1619
13786W        W29970   2.324  18.165  15.791 -0.1609 -0.2116 -0.1713
13787W        W29971   5.605  13.665   5.003  0.1502  0.2806  0.0871
13788W        W29972   5.581   4.478  15.573  0.1660 -0.1413  0.1358
13789W        W29973  16.287   0.579   5.936 -0.0525  0.1399  0.0439
13790W        W29974  14.388  17.679   1.388 -0.2168  0.0028  0.1572
13791W        W29975  13.079   5.020   1.840  0.0464  0.1588  0.0925
13792W        W29976   8.387  14.258   6.148 -0.0897  0.0275  0.0525
13793W        W29977  16.201   8.606   5.210 -0.0714 -0.0189 -0.0924
13794W        W29978   7.287  10.380  12.352 -0.1052 -0.3253 -0.2077
13795W        W29979   6.507  11.514  15.957  0.1726  0.2541 -0.0631
13796W        W29980   3.327  10.842   5.223 -0.2244 -0.0699  0.0572
13797W        W29981  12.335   2.890   3.139  0.2759 -0.0421 -0.0744
13798W        W29982  11.988   5.853   0.324 -0.0050 -0.2543  0.0925
13799W        W29983  11.950  12.538  14.097  0.3630  0.1226 -0.1643
13800W        W29984  11.739   2.868  16.071 -0.2064  0.0280 -0.1044
13801W        W29985  14.665   9.178  13.767 -0.1773  0.1010  0.1995
13802W        W29986   3.981   8.683  15.058  0.0015  0.1149  0.0285
13803W        W29987   9.570   1.787   5.553 -0.2935  0.0398 -0.0844
13804W        W29988   6.859  14.499   2.722  0.3019  0.0381  0.2037
13805W        W29989   7.332   4.873   3.670  0.1470  0.4671 -0.1883
13806W        W29990   4.589  13.593   1.934  0.0738 -0.1817 -0.2180
13807W        W29991   7.971   4.613  12.830 -0.0523  0.0258 -0.2172
13808W        W29992   0.941   8.047   1.333  0.0334 -0.0174 -0.0131
13809W        W29993  11.326   6.513  13.987 -0.3584  0.1131  0.1456
13810W        W29994   1.605  15.094   3.346  0.1845  0.1334  0.3111
13811W        W29995  15.261   7.576  12.986 -0.2731  0.1480 -0.1384
13812W        W29996   5.741  12.902  13.531  0.3749 -0.2846 -0.0841
13813W        W29997   9.864  16.739  12.976  0.0223  0.2807 -0.1154
13814W        W29998  13.323   5.489  16.161  0.2714 -0.1311 -0.1781
13815W        W29999  11.929   4.799   0.271  0.0520 -0.0321 -0.0424
13816W        W30000  15.412   3.695  10.964 -0.0055 -0.0140 -0.0996
13817W        W30001  15.575   4.740   0.613  0.0601 -0.4109  0.1899
13818W        W30002   4.790   5.244   0.975 -0.4816 -0.2977 -0.0366
13819W        W30003  16.197   7.604  14.760  0.3287  0.0755 -0.0652
13820W        W30004  14.807  14.576   3.967  0.0619 -0.0735  0.0320
13821W        W30005  16.202  14.144  14.341  0.1027 -0.1067 -0.1059
13822W        W30006  15.225  15.958  13.295 -0.3078  0.1320  0.2038
13823W        W30007   8.173  15.810   1.530  0.0815 -0.3043  0.0646
13824W        W30008   5.549   3.853   0.085 -0.1661 -0.2280 -0.0583
13825W        W30009   8.751  18.095   3.786  0.0318 -0.2822  0.0576
13826W        W30010  13.853  16.006   1.215 -0.2057 -0.1435  0.0016
13827W        W30011   7.746  10.452  14.125 -0.2426 -0.3431 -0.3383
13828W        W30012  17.801   6.825  14.149  0.0604  0.0464 -0.1490
13829W        W30013   5.851   5.790   4.452 -0.0638  0.3924  0.0500
13830W        W30014   3.589  11.377  16.023 -0.4469  0.1181 -0.0376
13831W        W30015   7.551  17.357   2.983  0.3760 -0.2226 -0.3168
13832W        W30016   5.482   5.454  13.451 -0.2370 -0.0250  0.2462
13833W        W30017   3.261   9.172   2.475  0.0682  0.1697  0.0431
13834W        W30018   0.806   9.759  13.178 -0.1784  0.0560 -0.0413
13835W        W30019  15.475  15.914   4.015 -0.0452  0.1888  0.1240
13836W        W30020   2.083   5.363   3.858  0.0576 -0.0836  0.2008
13837W        W30021  15.058   7.926   3.596 -0.1643  0.3963  0.1214
13838W        W30022   6.826  17.821  11.199  0.2470  0.1490  0.3714
13839W        W30023  11.617   1.305  11.730 -0.0346 -0.1210 -0.2857
13840W        W30024   5.486   0.707   5.566  0.2144  0.4401  0.1940
13841W        W30025   9.374   2.142  12.122  0.2414 -0.2542  0.0625
13842W        W30026   3.460   2.186  11.158 -0.1532 -0.1230 -0.2240
13843W        W30027   9.101   4.770   2.538 -0.0740  0.0942 -0.1782
13844W        W30028  14.000  14.041  12.755 -0.0035  0.1350  0.1269
13845W        W30029  11.352  13.169   1.975 -0.2828  0.2296 -0.3923
13846W        W30030  10.812   1.338   1.608 -0.3005 -0.2234 -0.1126
13847W        W30031   7.245   7.646  14.628 -0.0923  0.1011  0.1545
13848W        W30032   5.922   1.647  16.476  0.1023 -0.2683 -0.2903
13849W        W30033  11.445  12.916  15.972  0.0262  0.2599  0.0500
13850W        W30034  10.331   8.806   2.339  0.1133  0.0425 -0.3449
13851W        W30035  15.515  12.112  11.381  0.1426  0.1059  0.0024
13852W        W30036   3.913  11.112   0.043 -0.1641  0.2329 -0.0040
13853W        W30037  17.243   5.919   1.893 -0.2574  0.1733  0.0842
13854W        W30038   8.196   9.296   3.322 -0.3584  0.1005 -0.0454
13855W        W30039   2.680  11.025   1.198 -0.2835 -0.2594  0.2570
13856W        W30040   9.708  18.060   4.918 -0.2628 -0.0003 -0.0333
13857W        W30041  17.533  11.099   0.685 -0.0500  0.0163 -0.1593
13858W        W30042  14.661  12.545   3.902  0.1768  0.2301 -0.1988
13859W        W30043  15.627   2.934   0.645 -0.2290  0.0232 -0.0183
13860W        W30044  14.252  15.604   3.476 -0.2301 -0.4294  0.2037
13861W        W30045   3.018  14.821   5.577  0.0026 -0.1301  0.3784
13862W        W30046   3.729   5.799  16.139  0.3964  0.0588  0.1351
13863W        W30047  15.813   4.197   2.988 -0.1428  0.0601 -0.0616
13864W        W30048   5.016  10.475   5.243 -0.3259  0.0590  0.1251
13865W        W30049  12.350  18.103   5.426 -0.2055  0.0309  0.2826
13866W        W30050  17.656  16.835   4.764  0.0452  0.0678 -0.2699
13867W        W30051   4.044   6.373   0.234 -0.0678  0.0756  0.3270
13868W        W30052   9.822   1.073   2.034  0.0950 -0.2349 -0.0476
13869W        W30053  10.123   8.398  13.830  0.0555  0.4299  0.0536
13870W        W30054   7.909   1.175   3.240  0.2093  0.5313 -0.0944
13871W        W30055   1.318   2.070  13.087  0.0371 -0.1402 -0.2245
13872W        W30056  11.650   6.250   4.471  0.0901  0.0757  0.2235
13873W        W30057  14.233   6.573   3.557  0.1666 -0.0206  0.0747
13874W        W30058   4.571  15.448   3.168 -0.1218  0.0722  0.4385
13875W        W30059   0.042   4.211   1.646  0.1963 -0.2458  0.0720
13876W        W30060   8.822   0.260  15.708  0.0925 -0.1803 -0.0487
13877W        W30061   4.887  17.119  15.065  0.0059 -0.2151  0.0917
13878W        W30062  11.893   4.109   3.910 -0.0425 -0.1640 -0.4936
13879W        W30063   9.959   0.335   4.838 -0.0092 -0.0808 -0.0948
13880W        W30064   9.552   4.011   4.618 -0.1775  0.1767 -0.2343
13881W        W30065  15.353   4.370  14.074 -0.0823  0.2406 -0.0422
13882W        W30066   4.930   1.770   2.963 -0.1352  0.0615  0.0638
13883W        W30067   1.610   2.142  15.595 -0.0762 -0.0809  0.0437
13884W        W30068  13.087  16.277  14.035 -0.1843 -0.0679 -0.1591
13885W        W30069   9.597   1.409  10.668  0.0025 -0.5240 -0.0170
13886W        W30070   6.715  13.397  13.009 -0.1569  0.2552  0.1691
13887W        W30071   7.691   1.742  14.917  0.1983  0.0062 -0.0835
13888W        W30072  16.730   7.320  16.464  0.1627 -0.0232  0.2056
13889W        W30073   2.043   8.097   4.880  0.1027  0.4368 -0.2027
13890W        W30074  18.141   4.925  11.114 -0.1019 -0.0722  0.0311
13891W        W30075   2.172  12.735  16.625 -0.2212  0.0572 -0.0363
13892W        W30076   9.786   9.806   0.308  0.0189  0.1717 -0.0004
13893W        W30077   8.554   3.501  14.784 -0.0354  0.1062 -0.3203
13894W        W30078   5.697   3.987   0.773 -0.0337 -0.0805  0.1928
13895W        W30079  15.322   3.394  11.325 -0.1008  0.0990 -0.4380
13896W        W30080   3.066   2.862   1.412 -0.2231 -0.1283  0.1625
13897W        W30081   9.056   6.748  11.638 -0.4199 -0.0719 -0.4409
13898W        W30082   0.796   5.686   2.394 -0.2656 -0.0498  0.0352
13899W        W30083  12.557   1.799   2.538  0.2155  0.1439 -0.1480
13900W        W30084   9.291  14.976  14.352 -0.2106  0.0820 -0.0465
13901W        W30085   4.535   0.801   1.307  0.1346 -0.2134 -0.0314
13902W        W30086   1.647  14.869   4.596  0.1439 -0.2180  0.2043
13903W        W30087   3.710  15.288   5.175  0.1387  0.0119 -0.5911
13904W        W30088   7.333  15.562   5.637  0.0735 -0.1173 -0.0217
13905W        W30089   2.691   1.463  14.312 -0.1215 -0.0318 -0.0728
13906W        W30090   7.448  15.604   0.086 -0.0700 -0.0202  0.1832
13907W        W30091  15.119  13.932   5.398 -0.0789 -0.2151  0.1453
13908W        W30092  15.566  15.071   5.564  0.0601 -0.2251 -0.0850
13909W        W30093  14.905  10.336  15.271 -0.0087  0.0404  0.3748
13910W        W30094   2.717   4.210   2.473  0.0728  0.0028  0.3094
13911W        W30095  17.744   5.731  16.362 -0.0628 -0.1974  0.0911
13912W        W30096   4.474   4.863   3.625 -0.1123  0.2309 -0.1992
13913W        W30097   9.323   2.050   3.704  0.1990  0.0029 -0.2537
13914W        W30098   0.415   5.641  15.640  0.1400 -0.0694  0.0780
13915W        W30099   1.735  12.441   2.339  0.1510 -0.1121  0.0977
13916W        W30100   8.942   5.030   1.518  0.3145  0.0472  0.1946
13917W        W30101  12.474   3.258  15.103 -0.0791 -0.1990  0.2933
13918W        W30102   6.982  16.195   1.123 -0.0727  0.0804  0.2628
13919W        W30103   8.578  16.161  15.052 -0.0684 -0.0423 -0.3009
13920W        W30104  17.542  17.416   3.784  0.0678  0.0484  0.1756
13921W        W30105  11.369   7.584  13.213  0.0159 -0.0364 -0.0536
13922W        W30106  16.956  15.859   0.510  0.1780  0.1425  0.2244
13923W        W30107   8.924  12.330  15.797  0.2039  0.0223  0.0217
13924W        W30108  10.297  10.078   0.267  0.1341 -0.1132 -0.1883
13925W        W30109  10.932   6.913  16.474 -0.0594  0.1160  0.1030
13926W        W30110   0.848  12.028   4.716 -0.2152  0.0993 -0.0928
13927W        W30111   6.095  13.888   2.508  0.0790 -0.0276 -0.4016
13928W        W30112  12.091   4.004  12.223  0.3567 -0.4209 -0.3031
13929W        W30113  17.312  17.949   2.058 -0.2682 -0.0451  0.0717
13930W        W30114  17.693   2.413  13.992  0.0237 -0.3317 -0.0600
13931W        W30115  14.722  12.279  13.342  0.3731 -0.1937  0.0181
13932W        W30116   9.811   9.947   2.017 -0.0745 -0.0989  0.0299
13933W        W30117   7.706   7.051   3.411  0.1275 -0.0954 -0.3335
13934W        W30118   2.092   9.291  15.559  0.0524 -0.1399 -0.2394
13935W        W30119  10.237   0.465   6.062  0.1352 -0.2129 -0.0832
13936W        W30120   9.570   8.015   1.793 -0.0118 -0.1105  0.1983
13937W        W30121  13.641   5.347  14.847 -0.0473  0.3357 -0.2979
13938W        W30122   2.094   2.953  12.805  0.0788  0.0090 -0.1291
13939W        W30123   6.672   6.857   3.424  0.0850 -0.1829  0.2798
13940W        W30124   0.686   3.568  15.202 -0.3657  0.2132 -0.2015
13941W        W30125   5.231   2.811  13.365  0.3618  0.4995 -0.1598
13942W        W30126  18.012   9.105   4.883  0.1135 -0.0136 -0.0276
13943W        W30127   9.539   8.136   2.980 -0.0698 -0.0212  0.1984
13944W        W30128  15.735  18.133   4.673 -0.0887 -0.0543  0.0199
13945W        W30129   9.651  17.280   4.584  0.3820  0.2622  0.1778
13946W        W30130  12.454  17.445   5.453  0.0198 -0.0211 -0.0889
13947W        W30131   1.481  16.171  15.645 -0.3466 -0.1593  0.1241
13948W        W30132  13.681   4.568   5.473 -0.4292 -0.0006  0.2404
13949W        W30133  17.493  11.182   3.460  0.2539 -0.0031  0.1928
13950W        W30134   6.058   4.673   0.022 -0.1557 -0.0232 -0.2147
13951W        W30135   7.673   5.377  13.916  0.0277 -0.2897 -0.0637
13952W        W30136  13.982  13.508  12.778 -0.1017 -0.1753 -0.1661
13953W        W30137  11.901  17.990   0.625  0.0177 -0.0063 -0.3233
13954W        W30138  11.150   2.419   3.886 -0.1958  0.1841 -0.1875
13955W        W30139   7.967  12.082   1.098 -0.2260  0.1578 -0.1051
13956W        W30140   8.152  12.991   2.657  0.0214  0.0252  0.0419
13957W        W30141   5.637   3.765  15.185 -0.2414  0.0705  0.0368
13958W        W30142   9.870   3.270   0.956  0.0787  0.2611  0.0585
13959W        W30143  13.660   7.362   4.110  0.0462 -0.3781 -0.0575
13960W        W30144   1.428   7.627   5.371 -0.2828 -0.2015 -0.1817
13961W        W30145   9.605  14.606  13.025 -0.1185  0.4497 -0.1538
13962W        W30146   3.236   3.054  11.319 -0.2786 -0.1384  0.2123
13963W        W30147  14.759  15.856  11.158 -0.3928 -0.0841  0.4110
13964W        W30148  14.917   7.306   1.068 -0.2842 -0.2304  0.4009
13965W        W30149  15.883  14.800   1.328 -0.2930  0.0584 -0.0966
13966W        W30150  13.032  11.720   2.450  0.2785  0.1010  0.4137
13967W        W30151   8.364   5.022  16.521  0.1841  0.1134 -0.2982
13968W        W30152  13.656   2.259  13.437 -0.2077  0.1273  0.1914
13969W        W30153  16.958   3.937  15.318  0.2200  0.0751 -0.0577
13970W        W30154  11.216  17.062  13.632 -0.2376  0.1012 -0.0790
13971W        W30155  10.829  11.326   1.777  0.1654  0.0780  0.2093
13972W        W30156   5.129   8.604   3.241  0.0603 -0.0426 -0.0333
13973W        W30157   5.952   2.843  14.282 -0.2885 -0.0600  0.1427
13974W        W30158  13.633   1.735   3.612 -0.0853 -0.0961  0.0575
13975W        W30159   8.802   8.717  13.982 -0.2878  0.1150 -0.2385
13976W        W30160  11.652  16.868  14.562  0.0667  0.1049  0.0600
13977W        W30161  17.741   2.429   4.539 -0.0502  0.1775 -0.0019
13978W        W30162  12.970   1.448   1.329  0.4439 -0.0536  0.0902
13979W        W30163   5.635  12.347  15.095  0.0411  0.0047 -0.0357
13980W        W30164  11.567   1.823   2.760 -0.2033  0.1344  0.1055
13981W        W30165   1.554  12.794   0.359  0.0654  0.0664 -0.2069
13982W        W30166  17.444  14.006  13.484  0.3053  0.1105  0.0270
13983W        W30167  14.954  16.540   4.773 -0.1063  0.0116  0.2714
13984W        W30168   4.895  16.656   1.826  0.0136  0.0913 -0.1171
13985W        W30169   3.587   6.956  13.454  0.0360 -0.1292  0.2655
13986W        W30170  15.373   2.381   3.834 -0.1006 -0.1337 -0.0584
13987W        W30171   3.560  15.235   3.495 -0.2902 -0.2274 -0.1336
13988W        W30172  11.767   5.894  13.429  0.1952 -0.1576 -0.1450
13989W        W30173  15.706  11.411  13.791 -0.0320  0.0457  0.3231
13990W        W30174   4.709   3.112   5.200 -0.0184  0.0089  0.0733
13991W        W30175   8.173  11.878   5.087  0.2183 -0.2221 -0.0793
13992W        W30176   4.392  17.799   4.765 -0.0292 -0.1228 -0.0093
13993W        W30177   7.610  10.888   0.447 -0.2031  0.3320 -0.3474
13994W        W30178  17.888   3.527   1.377  0.1007 -0.1354 -0.0625
13995W        W30179  15.782   6.706  15.235 -0.0138  0.0139  0.0332
13996W        W30180  14.915   2.559   1.086 -0.0035 -0.1241  0.4010
13997W        W30181   7.024  11.038   4.730  0.2495  0.4998  0.2182
13998W        W30182  14.372   6.117   2.936 -0.0125  0.1413 -0.3186
13999W        W30183  11.669   6.832  12.502  0.1284  0.2271  0.3928
14000W        W30184  10.905   1.057   5.189 -0.0422  0.2335  0.1843
14001W        W30185  16.440   0.835  12.298 -0.0187  0.1649 -0.0197
14002W        W30186   3.345   6.847  16.279  0.3073  0.2033  0.3185
14003W        W30187  13.158   7.584   2.911  0.2819 -0.0467  0.2310
14004W        W30188   1.758  15.645   3.394  0.3332 -0.0209  0.1268
14005W        W30189   7.909   4.068   1.590 -0.0047 -0.0312 -0.2181
14006W        W30190   5.672  11.912   3.682 -0.1316  0.0440 -0.1581
14007W        W30191  10.164  11.407  13.457  0.2271  0.0938  0.0305
14008W        W30192   4.488  17.306   2.832 -0.0355  0.2146 -0.0758
14009W        W30193  16.788  13.005  15.004  0.0643  0.3964  0.3848
14010W        W30194  10.729   7.379  13.555  0.3054  0.2578  0.0684
14011W        W30195   9.975  10.975   5.286  0.0949 -0.4362  0.4841
14012W        W30196  17.553   5.114  12.313 -0.2990 -0.0897  0.2515
14013W        W30197   4.850   5.265  15.498  0.1298 -0.1890 -0.0840
14014W        W30198  11.011   4.217  14.958  0.2354 -0.2646  0.0516
14015W        W30199   4.838  11.699   4.701 -0.0905 -0.1193 -0.1959
14016W        W30200   4.632   8.580  16.178 -0.0002 -0.1346  0.2354
14017W        W30201  11.751  14.330  13.760 -0.1839  0.1908  0.2438
14018W        W30202  12.021  13.598  14.205 -0.1599 -0.5314 -0.3361
14019W        W30203  17.136  15.335  13.372  0.0116  0.4126  0.4304
14020W        W30204   0.634  17.443   1.553  0.1539  0.0767  0.3298
14021W        W30205   7.771   7.911  13.381  0.0329  0.0932 -0.2609
14022W        W30206   6.069  13.402  12.251  0.1159 -0.2009  0.0657
14023W        W30207  16.819   7.774   0.789 -0.0449 -0.2924  0.2616
14024W        W30208   4.140  13.416   5.835  0.0455  0.1443 -0.0296
14025W        W30209   9.876   5.998  11.731 -0.0846 -0.1356  0.0804
14026W        W30210   4.900   6.721   1.239  0.0662  0.0829 -0.0510
14027W        W30211   6.660   1.938  14.961 -0.0247  0.4542 -0.1481
14028W        W30212   5.475   6.200   4.023  0.1601 -0.1274 -0.3260
14029W        W30213  16.552   0.933  10.078  0.0814 -0.0049  0.0755
14030W        W30214   7.759   5.539  12.082 -0.0888  0.2644  0.0022
14031W        W30215  17.084   0.243   3.731  0.0901  0.0200  0.0016
14032W        W30216  18.091  10.148  10.864  0.0974 -0.0047  0.1848
14033W        W30217   3.631  11.295  14.642  0.1304 -0.0310 -0.2672
14034W        W30218   7.032   9.552   2.833 -0.0971  0.0276 -0.4415
14035W        W30219   9.596  13.724   1.735 -0.1425 -0.4515  0.0846
14036W        W30220   0.628  16.385  16.562  0.4124  0.4173 -0.1512
14037W        W30221   5.478  17.048   1.994  0.0190  0.2642  0.2634
14038W        W30222   1.402   5.086   5.158 -0.1676 -0.1403 -0.1978
14039W        W30223  14.728  12.707  13.688 -0.1293  0.0394  0.2178
14040W        W30224  17.296   7.920   1.293 -0.1345  0.0709  0.0354
14041W        W30225   5.827   7.933  16.192 -0.0078 -0.1471 -0.0776
14042W        W30226  17.480  16.429   3.574 -0.0643  0.0923  0.3021
14043W        W30227   9.680   7.080  13.392  0.3601 -0.0258  0.0328
14044W        W30228   9.174   1.852  14.244 -0.3266 -0.1977  0.0257
14045W        W30229  16.690  17.344  15.538 -0.0914  0.1439 -0.2474
14046W        W30230  14.880   7.796  16.257  0.1827 -0.2356  0.0198
14047W        W30231   1.078  13.254   2.016 -0.3347 -0.0939  0.1569
14048W        W30232  12.613  11.915   4.957 -0.1515 -0.1324 -0.1975
14049W        W30233  12.987  14.006  14.243 -0.2720  0.0920  0.1613
14050W        W30234   3.427   1.248   4.214  0.0382  0.1235  0.4548
14051W        W30235  14.774   4.730  11.663 -0.0721 -0.1301 -0.0497
14052W        W30236   1.899  15.797   0.583  0.3705  0.1077 -0.1326
14053W        W30237  11.082   4.700   3.054  0.3923  0.1178 -0.2209
14054W        W30238   6.368  10.311   1.814  0.1811 -0.1578 -0.3567
14055W        W30239   8.442   3.351   3.461  0.0560 -0.2392  0.0095
14056W        W30240  14.410   7.556  12.133 -0.0724 -0.5110 -0.0043
14057W        W30241  14.050   6.250  13.153  0.0109  0.0806 -0.0701
14058W        W30242  17.504  13.026   2.196 -0.1878 -0.3687  0.1098
14059W        W30243  17.884   3.037  12.030 -0.3481  0.2277  0.2496
14060W        W30244  17.179   8.769  13.141  0.2724  0.0217  0.0131
14061W        W30245   0.533  13.865   3.355  0.2164 -0.0345 -0.2621
14062W        W30246   9.573   1.641   3.978  0.0040 -0.1794 -0.0158
14063W        W30247  14.639  15.731  14.032 -0.1880 -0.0962  0.0600
14064W        W30248   7.748   9.954   0.836  0.0452  0.1525  0.1153
14065W        W30249  14.678  15.929   5.312  0.0332 -0.4088 -0.2750
14066W        W30250  17.654  15.482   2.420 -0.1360 -0.1213  0.2137
14067W        W30251  13.157  12.388   0.222 -0.1039  0.4163  0.0365
14068W        W30252  16.746  16.663   0.095  0.0920 -0.1422  0.1532
14069W        W30253   7.931   6.985  13.349 -0.0595  0.0306  0.1290
14070W        W30254   9.733  10.643   4.772  0.2207  0.2657  0.1764
14071W        W30255  16.429  16.078  15.996 -0.2052  0.0040 -0.0044
14072W        W30256   4.137   5.809  14.535  0.2008 -0.1707  0.1952
14073W        W30257   4.027   4.870  14.499  0.3955  0.2219  0.1082
14074W        W30258  13.256   5.769  15.576 -0.1045  0.1011  0.0915
14075W        W30259  14.329  17.028  14.922  0.1570 -0.1389  0.2602
14076W        W30260  14.742  17.442  16.635 -0.1485  0.0325  0.3506
14077W        W30261   6.149   2.729  12.435  0.1635 -0.0954 -0.2114
14078W        W30262  17.366   0.162   4.145  0.0748 -0.2496 -0.4670
14079W        W30263   7.443  14.235  14.446 -0.0014 -0.3000  0.1441
14080W        W30264  16.226  10.754  14.711  0.1719 -0.2828 -0.0847
14081W        W30265  17.097   8.505  14.363  0.1951 -0.1272  0.0401
14082W        W30266  17.506  15.937   1.579 -0.0487 -0.1752 -0.0183
14083W        W30267  11.643  12.832  12.864 -0.1325 -0.0016  0.1694
14084W        W30268   0.042   8.894   2.882 -0.0405 -0.0263 -0.1039
14085W        W30269   4.810  16.253  13.438 -0.2292  0.0519  0.2136
14086W        W30270   5.209  11.506   5.010 -0.3289 -0.1138 -0.4209
14087W        W30271  10.468   5.351  14.124  0.1650  0.3166 -0.2918
14088W        W30272   1.594   8.329  11.779 -0.2918  0.0866 -0.2421
14089W        W30273   2.748   7.689   2.674 -0.0848 -0.1010 -0.1303
14090W        W30274   4.678   6.022   2.951 -0.2899 -0.2701 -0.0081
14091W        W30275  16.203  11.058  16.288  0.3288 -0.3135 -0.3973
14092W        W30276   2.583   6.848  13.126  0.1344 -0.0251 -0.3227
14093W        W30277  18.160   2.128   2.432  0.2434 -0.2684  0.0910
14094W        W30278   9.810   6.758  13.790  0.0305 -0.1465  0.1533
14095W        W30279  10.834   5.578  16.522  0.1737  0.5432  0.2062
14096W        W30280   5.288  13.078   3.474  0.3248  0.1183  0.4181
14097W        W30281   2.430   7.160  15.669  0.1753  0.2348  0.1020
14098W        W30282  13.640  10.923   1.104  0.2186 -0.0813 -0.1167
14099W        W30283  15.571   9.599   1.261  0.0455  0.1401 -0.1124
14100W        W30284   6.702   5.413   2.555 -0.0631 -0.0083 -0.0741
14101W        W30285   3.215   8.398  16.338  0.0766  0.4248  0.0043
14102W        W30286   6.306   6.982   1.843  0.3848  0.0492  0.2374
14103W        W30287   4.033  13.580  15.287  0.2242  0.0072  0.1331
14104W        W30288   6.853  12.814  12.231 -0.1384  0.0920 -0.0524
14105W        W30289   2.380   7.020   4.725  0.0708  0.1880 -0.0470
14106W        W30290  11.829  10.015   2.802 -0.0393  0.0745 -0.3330
14107W        W30291   2.046   0.783   4.436 -0.2080 -0.0452 -0.1800
14108W        W30292   6.720   0.309   4.802 -0.2737 -0.1881  0.1580
14109W        W30293  12.021   8.218   3.555  0.1431  0.4221 -0.0815
14110W        W30294   1.797  16.511   4.390 -0.2168  0.1607  0.1007
14111W        W30295   2.880   7.625   1.551 -0.0812 -0.0345  0.2507
14112W        W30296  11.880   8.080  10.682  0.1618  0.1758 -0.0071
14113W        W30297   0.150  18.128   0.447  0.1129 -0.0073 -0.2499
14114W        W30298   1.808  17.069   0.873 -0.1017  0.0131 -0.0423
14115W        W30299   6.839   6.880   2.475  0.2355 -0.1764  0.0971
14116W        W30300  17.815   2.937   2.913  0.0911  0.3578  0.1211
14117W        W30301  12.888   7.636  14.035  0.1282 -0.2590 -0.1078
14118W        W30302  12.812  15.973   1.507 -0.1607  0.3560 -0.2029
14119W        W30303   2.833   3.036  12.303  0.3244  0.2413 -0.0451
14120W        W30304   7.321  14.479  13.483 -0.0485 -0.3069 -0.1928
14121W        W30305   4.488   2.754   5.617 -0.3072  0.1620 -0.1815
14122W        W30306  13.231  13.081   5.367 -0.1859 -0.2391  0.0508
14123W        W30307   4.935  15.926  12.515 -0.1209  0.0415 -0.1035
14124W        W30308  12.075  13.734  15.973  0.2590  0.0616  0.0062
14125W        W30309  11.560  15.344  16.602  0.0928  0.1108  0.1783
14126W        W30310  13.724   7.040   0.912 -0.0735 -0.0274  0.0919
14127W        W30311   0.390   0.660   0.302  0.1084  0.1973 -0.3074
14128W        W30312   2.170   3.644  14.275 -0.0696  0.0833  0.2152
14129W        W30313  12.776  11.051   2.686 -0.3160 -0.2213 -0.3500
14130W        W30314   6.485  16.654  13.647  0.2452  0.2027  0.0142
14131W        W30315   2.377   7.231   1.435 -0.0385 -0.0661  0.3463
14132W        W30316   3.403   3.353   1.551 -0.2551 -0.0777 -0.1484
14133W        W30317  13.546  12.492   6.032 -0.0509 -0.0531  0.0917
14134W        W30318   7.721   8.257   0.623  0.0123  0.0628  0.2514
14135W        W30319   4.852  14.253  14.236 -0.0263 -0.3159 -0.2540
14136W        W30320  11.629  14.191  12.845 -0.2020 -0.0537 -0.0592
14137W        W30321   7.357  11.555  13.433 -0.2052  0.1812  0.0019
14138W        W30322   9.622   0.756  13.358  0.1376 -0.5045 -0.1566
14139W        W30323   8.038  12.073   2.295  0.1330 -0.3855  0.0250
14140W        W30324  14.280   6.793   1.691  0.0707 -0.1095  0.1138
14141W        W30325   6.118  17.949  14.142 -0.1924  0.1719  0.1512
14142W        W30326   7.333  14.358   2.984  0.0235  0.3574 -0.4585
14143W        W30327  10.128   5.185   5.871 -0.1627  0.1734 -0.2145
14144W        W30328  14.618   4.346   3.630  0.2034 -0.1066  0.3413
14145W        W30329   4.767  16.767   2.369  0.1297  0.1644 -0.1372
14146W        W30330  11.567   4.320  13.593 -0.2058 -0.3319 -0.0558
14147W        W30331   0.863   1.686   1.857 -0.0091  0.0664  0.1229
14148W        W30332   2.612  14.467   0.428  0.1418  0.2807  0.4950
14149W        W30333   1.558   3.675   3.924  0.0626 -0.0228  0.0992
14150W        W30334  16.056   2.486   1.474 -0.4611 -0.1212  0.0511
14151W        W30335   1.416  16.725   4.029 -0.2398 -0.1377 -0.0326
14152W        W30336  17.617   9.756  13.189 -0.1678 -0.0509  0.0609
14153W        W30337   7.007  12.529  14.535  0.3212 -0.2414 -0.3071
14154W        W30338  15.497   0.390   4.105  0.0953  0.2009 -0.0171
14155W        W30339  16.841  10.318  15.328 -0.1313 -0.1341  0.1815
14156W        W30340   7.807   3.020   2.192 -0.0423 -0.0896  0.1323
14157W        W30341   7.664  11.048   1.941  0.2045  0.2717  0.0599
14158W        W30342   9.883  14.827  14.954  0.0225  0.0647 -0.1930
14159W        W30343  17.732   4.482  10.412 -0.0799  0.3502 -0.1703
14160W        W30344  16.497   7.291  15.598 -0.3247 -0.0609 -0.0843
14161W        W30345  16.024   5.829   4.456  0.2842  0.0547 -0.0016
14162W        W30346  14.257  11.895   3.343  0.0356  0.0892  0.4463
14163W        W30347  11.638  15.848   1.977 -0.2557 -0.0702 -0.0695
14164W        W30348  13.852  14.864   2.055  0.2286 -0.3328 -0.0737
14165W        W30349   9.264   2.176   1.782  0.2290 -0.1747  0.1780
14166W        W30350   8.947  17.739  13.987  0.1497 -0.3813 -0.0868
14167W        W30351   9.665  17.710  11.525  0.1400 -0.0661 -0.0226
14168W        W30352  13.392   8.342  11.618  0.2146  0.0733  0.0987
14169W        W30353   1.578  13.983   1.092  0.1690 -0.1689 -0.2567
14170W        W30354  10.417  13.108  14.508  0.0795 -0.0006  0.0871
14171W        W30355   2.490   3.593  13.414  0.0867  0.1783 -0.1778
14172W        W30356  12.385  12.802  15.564  0.2273 -0.1752  0.2747
14173W        W30357  13.461  13.413  14.381  0.3367 -0.0288 -0.2606
14174W        W30358   8.601   1.574   0.825 -0.0572 -0.0784  0.4561
14175W        W30359  17.106   7.029  14.006  0.0936  0.3217  0.1812
14176W        W30360   6.489   2.347   0.595  0.0396  0.1895  0.1695
14177W        W30361  10.711   1.515  16.535 -0.3210 -0.1510 -0.1896
14178W        W30362  14.470   7.697  15.073  0.0113 -0.0654 -0.0868
14179W        W30363   3.721  16.696   2.692 -0.2083  0.1165 -0.2063
14180W        W30364  16.442   3.224  16.255  0.2686 -0.0320  0.1058
14181W        W30365  16.091   0.457  12.218 -0.0729 -0.0380 -0.1853
14182W        W30366   8.599   7.480   4.090  0.0468  0.0901  0.3621
14183W        W30367   9.967  14.717  16.348 -0.2909  0.0659 -0.1193
14184W        W30368   3.791   0.664  15.654  0.0178 -0.0732 -0.0252
14185W        W30369  10.288  15.502  14.642 -0.5228  0.0355 -0.0828
14186W        W30370   4.834  13.772   3.422 -0.1866  0.1469  0.0352
14187W        W30371  12.566   7.537   3.647 -0.1340 -0.4151  0.1900
14188W        W30372  16.246  17.506  13.584  0.2054  0.0709  0.1861
14189W        W30373  13.714   3.578  10.884 -0.2853 -0.1889 -0.1056
14190W        W30374  15.392   6.530   0.709 -0.4686 -0.2222 -0.0215
14191W        W30375  10.653   0.565  14.939  0.0828 -0.1452 -0.0980
14192W        W30376   6.495   8.987  15.200  0.2313 -0.4080  0.2856
14193W        W30377  17.645   5.745  15.795 -0.0112  0.0647  0.1450
14194W        W30378   1.021  14.004   0.019  0.0060  0.2772  0.1988
14195W        W30379   6.342  10.020   0.470  0.4555  0.3558  0.0279
14196W        W30380   3.262   4.949  15.861  0.1263 -0.0500  0.0595
14197W        W30381   6.661  16.993  13.334  0.1554  0.1113  0.0987
14198W        W30382   2.025  17.332   2.306  0.0900  0.2092  0.0455
14199W        W30383   9.959  15.053   1.300 -0.0211 -0.2000  0.0792
14200W        W30384  16.537   5.673  11.367  0.2322 -0.0319 -0.3121
14201W        W30385   5.417  15.607   2.464  0.3627  0.1163 -0.1492
14202W        W30386   1.004   2.741  12.081 -0.1274  0.0499  0.1107
14203W        W30387   5.878   4.109  16.131 -0.1018  0.0516  0.0052
14204W        W30388   8.521   1.587   1.913 -0.0095  0.2640  0.0481
14205W        W30389   4.476   9.062   3.751 -0.1456 -0.1429 -0.0300
14206W        W30390  13.573   9.959  12.613  0.0461  0.0447  0.2498
14207W        W30391   8.285  17.197  14.592  0.0790 -0.0050 -0.3110
14208W        W30392  10.584   2.456  13.439 -0.0529  0.1632  0.0773
14209W        W30393  11.465  11.049  13.450 -0.0972 -0.1717 -0.1661
14210W        W30394   6.071   8.166  12.773 -0.0538  0.1183  0.1376
14211W        W30395   3.538   6.326   0.387  0.0508 -0.1451  0.2538
14212W        W30396   6.822  16.112  15.016 -0.2454 -0.1471 -0.1008
14213W        W30397  17.857  15.866   1.930 -0.0775  0.1164 -0.1956
14214W        W30398  10.711   0.460   1.445 -0.1700  0.3130  0.0148
14215W        W30399  15.821  16.013  13.957  0.1188 -0.0155  0.1262
14216W        W30400  13.302   9.096  16.443 -0.2587 -0.1543 -0.1176
14217W        W30401  17.715  16.417   4.500 -0.2941 -0.2789 -0.0093
14218W        W30402   4.151   0.422  15.917 -0.1583 -0.3085  0.0407
14219W        W30403  13.282   0.757   5.209 -0.0981  0.3377  0.0149
14220W        W30404   6.955  15.616  16.197  0.1067  0.1723  0.2044
14221W        W30405   6.986   8.249  12.199  0.2872 -0.0597  0.1974
14222W        W30406   0.272  17.784   2.823 -0.0389  0.1188 -0.0401
14223W        W30407  17.981  18.110  10.899  0.2793  0.1467 -0.0550
14224W        W30408   8.120   2.386   5.238 -0.0403  0.5200  0.4064
14225W        W30409   6.458  15.216   0.984  0.0784 -0.1733 -0.0140
14226W        W30410  11.778   4.603  15.144 -0.2347 -0.2716  0.1723
14227W        W30411   8.299   6.846  15.736 -0.3961  0.0191  0.0893
14228W        W30412  13.385   2.268  16.158  0.2925 -0.1338  0.1770
14229W        W30413  16.937  15.997  12.752 -0.1630  0.3571  0.2386
14230W        W30414  17.013   4.846   3.717 -0.1721  0.1051  0.2228
14231W        W30415  13.145  14.536  15.747  0.0658  0.0504  0.0264
14232W        W30416  17.525  10.675   5.871  0.0520 -0.2189  0.1255
14233W        W30417   4.765  12.651   0.691 -0.2094 -0.2212  0.0946
14234W        W30418   3.680   3.541  16.380 -0.0654 -0.0515  0.2574
14235W        W30419  11.957   9.853   4.549  0.3283 -0.0800 -0.0099
14236W        W30420  14.962   7.273  12.747 -0.3901  0.1312 -0.1426
14237W        W30421   1.597  15.196  13.288  0.1663 -0.2132  0.2027
14238W        W30422   2.747  14.769   1.896  0.2238  0.3074 -0.5010
14239W        W30423  17.311   3.841  11.843  0.0795 -0.0119 -0.1212
14240W        W30424   5.130   6.402  12.035 -0.0538 -0.0316  0.2750
14241W        W30425  10.745   6.634   3.170  0.1043 -0.0026  0.5110
14242W        W30426   6.742  12.973   4.195  0.1700  0.0551  0.0311
14243W        W30427  11.724   1.306  15.558  0.0185  0.0842 -0.1206
14244W        W30428  13.511   9.037   3.027 -0.0331  0.1466  0.1628
14245W        W30429  12.896  14.664  14.336 -0.1968  0.0634  0.3349
14246W        W30430   2.235   8.962   5.037 -0.2113  0.0466 -0.3045
14247W        W30431   7.053  16.912   2.499  0.1083  0.1140  0.0046
14248W        W30432  14.827  13.731   2.752 -0.1149  0.0299 -0.0219
14249W        W30433  11.594   8.592  13.600  0.1207  0.1787  0.2653
14250W        W30434   0.584  11.865   1.701 -0.0311  0.1469 -0.4666
14251W        W30435  13.478  15.130   2.930 -0.1021 -0.0621 -0.0648
14252W        W30436  13.132  14.241  13.077  0.1827 -0.0464 -0.0434
14253W        W30437   7.247  14.685  12.373 -0.0843  0.1279 -0.0031
14254W        W30438  14.062  10.386   3.851  0.0103 -0.2506 -0.0587
14255W        W30439   0.162  13.164  12.220  0.0187  0.0342  0.0451
14256W        W30440   1.741   3.904   4.361  0.1452  0.3079  0.2206
14257W        W30441  17.044   1.091  13.554  0.2137 -0.2559  0.0211
14258W        W30442   5.586   2.371   5.012 -0.4853 -0.2151  0.0930
14259W        W30443   5.203  12.140  14.946  0.4010 -0.0364  0.2345
14260W        W30444   8.073  13.334   3.508 -0.1323  0.0387  0.1199
14261W        W30445  11.589   1.742   0.979 -0.3111  0.0332 -0.0156
14262W        W30446   6.783   2.970   5.437  0.2192  0.1259 -0.1668
14263W        W30447  16.726  14.237  16.369 -0.0107 -0.1245 -0.2574
14264W        W30448   6.008   3.772  13.318 -0.1178  0.1395  0.2652
14265W        W30449   1.483  12.693  12.084  0.2022 -0.0869  0.0436
14266W        W30450   5.023  12.837  13.533 -0.1253 -0.0306 -0.1249
14267W        W30451   4.404  11.595  12.756  0.0043 -0.0912  0.0147
14268W        W30452  14.195   8.006  11.078  0.1350  0.1124  0.1875
14269W        W30453   5.540   6.952   3.398  0.2786 -0.5161 -0.2352
14270W        W30454   8.513  17.686   3.537 -0.0209  0.0241  0.1390
14271W        W30455   2.537   5.759   0.525 -0.0017  0.1151 -0.0280
14272W        W30456   2.169   0.256  15.326 -0.1257  0.2229  0.0821
14273W        W30457   5.777   0.321  12.209  0.1819 -0.0740  0.0526
14274W        W30458   0.121  12.590   5.119  0.2628  0.2314  0.0410
14275W        W30459  10.677   4.459  13.341 -0.2399  0.2266 -0.0063
14276W        W30460   6.730   4.711   1.213 -0.1231 -0.2802 -0.3262
14277W        W30461  17.257   8.568  16.422  0.1755 -0.0850  0.2804
14278W        W30462  14.753   1.660   4.159  0.2696  0.0490 -0.1352
14279W        W30463   9.222  16.995   0.003  0.0086  0.0299 -0.0036
14280W        W30464   7.890   1.134  15.143 -0.2672  0.0201 -0.0345
14281W        W30465   4.240   5.917  13.641 -0.0650 -0.1853  0.0609
14282W        W30466  10.001  10.183   2.978 -0.0496  0.1616  0.1188
14283W        W30467   7.533   4.111   4.405  0.0799 -0.0223 -0.1421
14284W        W30468  11.078   9.886  12.955  0.3794  0.3458  0.2264
14285W        W30469  16.141  10.663   1.616  0.0099 -0.0521 -0.0462
14286W        W30470   9.613   0.322  12.305 -0.3255  0.1948 -0.2469
14287W        W30471   7.728  15.225   2.529  0.2543 -0.0625 -0.0707
14288W        W30472   6.899   0.854   0.648  0.1147  0.1069  0.0937
14289W        W30473   4.133  15.842  12.323  0.1523  0.0094 -0.0239
14290W        W30474   5.074   8.182  15.552 -0.0420 -0.2033  0.0088
14291W        W30475  13.497   6.898  11.267 -0.2617 -0.0597  0.2118
14292W        W30476  13.087  11.508  11.697  0.2552 -0.1285 -0.0596
14293W        W30477  10.916  17.027   2.254 -0.1576  0.3585 -0.0231
14294W        W30478  16.355  13.890   3.278 -0.1075 -0.3772 -0.1037
14295W        W30479  10.482  15.317   1.253 -0.3395 -0.2533  0.1098
14296W        W30480   0.776   7.213  11.618 -0.2960 -0.1818  0.2697
14297W        W30481  10.093   1.778   4.762 -0.1750 -0.1955  0.2347
14298W        W30482   6.152  17.495  15.089 -0.2887  0.1916  0.0012
14299W        W30483  15.969   2.614   5.193 -0.1609 -0.0691  0.2043
14300W        W30484   0.255   5.766  15.118 -0.2236 -0.1256 -0.5909
14301W        W30485  13.709  17.552   2.982  0.1379  0.4301 -0.0929
14302W        W30486  16.335   3.662  11.328  0.2148 -0.0288  0.4902
14303W        W30487   9.904  15.659  13.205 -0.2126  0.0075  0.2735
14304W        W30488   5.931   7.847  12.285  0.0068 -0.2609  0.0827
14305W        W30489   2.227  16.491  15.523 -0.1971  0.1315 -0.3329
14306W        W30490  15.997  12.718  11.854 -0.1577 -0.0694 -0.0900
14307W        W30491   0.590   0.486  12.155 -0.2109  0.1450 -0.0986
14308W        W30492  16.942   5.870   4.057 -0.0847 -0.3975  0.0581
14309W        W30493  15.221  15.910  12.081 -0.0608 -0.0676  0.0123
14310W        W30494  17.930   5.180   3.382 -0.3284 -0.0299  0.2133
14311W        W30495   8.390   1.009  12.060 -0.0983  0.0326  0.1659
14312W        W30496   3.056  17.097  12.832 -0.0839  0.1948 -0.0773
14313W        W30497   3.789  11.979   2.057 -0.2471 -0.1223 -0.0355
14314W        W30498   6.741   4.067  15.913 -0.0823 -0.0620 -0.3711
14315W        W30499   3.439   4.308   3.218  0.0719 -0.0139  0.0343
14316W        W30500  13.355   5.684   5.395  0.0499 -0.0935  0.1152
14317W        W30501   2.024  10.455  13.018 -0.3722  0.0096  0.1465
14318W        W30502   9.709  16.671  12.512 -0.0372  0.4631  0.0336
14319W        W30503  17.477  16.204  13.022  0.1465  0.1148  0.2285
14320W        W30504   5.011  13.869  12.775 -0.0438  0.1037 -0.0500
14321W        W30505   1.743  13.329   4.180 -0.0415  0.2273 -0.2567
14322W        W30506  17.365   2.298   3.321  0.2387  0.1908  0.0332
14323W        W30507   9.841  11.464   0.142  0.3172 -0.1053 -0.0246
14324W        W30508   1.014   4.416   0.432  0.1144 -0.0111  0.0805
14325W        W30509   8.648  14.753   2.751  0.0120 -0.4267 -0.1065
14326W        W30510  14.953  13.210   0.048  0.3130 -0.0368  0.0525
14327W        W30511  14.959  15.545  13.115  0.1168 -0.2044  0.0913
14328W        W30512   3.779  12.873   5.866  0.4788 -0.1128 -0.1153
14329W        W30513   2.281   0.165  13.064  0.2209 -0.2701 -0.0921
14330W        W30514  16.821   7.966  12.806 -0.2474 -0.0825 -0.0670
14331W        W30515   4.220  12.419  13.873  0.0916  0.1400  0.1182
14332W        W30516  16.831   8.315   0.613  0.1222 -0.0640  0.1584
14333W        W30517  11.747  16.783  15.781  0.4808  0.0495  0.0604
14334W        W30518   5.920   0.389   1.074 -0.1820 -0.0907  0.2051
14335W        W30519   9.153  11.893   0.136 -0.3714  0.1065  0.3864
14336W        W30520   3.839   3.134   2.229  0.0277  0.1865 -0.0009
14337W        W30521   2.856   8.619  16.065 -0.0597 -0.2307 -0.1038
14338W        W30522   3.978   3.220   1.556  0.0245  0.1003  0.0387
14339W        W30523   4.078   5.140  11.788  0.0136  0.0486  0.2543
14340W        W30524  13.199   8.422  15.837  0.0013 -0.0779 -0.0507
14341W        W30525  11.076  16.303   1.691  0.0647 -0.1266 -0.3424
14342W        W30526   1.811   6.245  16.473  0.2200  0.1771 -0.1674
14343W        W30527   8.040  10.895  13.711  0.1168  0.0877 -0.0671
14344W        W30528   8.609  15.587  13.607 -0.0369  0.1061  0.1535
14345W        W30529   0.780  11.082   1.016  0.2318  0.0989 -0.2124
14346W        W30530   6.428  14.246  12.591  0.0195  0.0687 -0.1983
14347W        W30531  15.898   1.135  15.597 -0.1459 -0.0379  0.0526
14348W        W30532   3.921  16.044   0.649  0.1680  0.0759  0.1283
14349W        W30533   3.531   7.458  15.771  0.1871 -0.0096  0.0459
14350W        W30534   4.433   4.463   4.627 -0.0384 -0.4815 -0.2429
14351W        W30535   2.272  10.530   5.012  0.1803 -0.0981  0.0677
14352W        W30536   9.119  17.016   4.486  0.0501  0.2313  0.2178
14353W        W30537   8.819   3.784   2.420  0.0573  0.0461 -0.6207
14354W        W30538  12.687  14.973  12.393  0.0873 -0.1339 -0.0106
14355W        W30539  11.122   5.968   3.418  0.0704 -0.1544 -0.0534
14356W        W30540   1.733   7.413  13.515 -0.1673  0.1414  0.0506
14357W        W30541   1.036  13.365  16.322 -0.0256  0.2735 -0.1822
14358W        W30542  14.108  10.992  12.926 -0.1616 -0.4293 -0.0218
14359W        W30543  10.038  13.617  16.474 -0.3120  0.0997 -0.1715
14360W        W30544  13.070   3.938   1.249 -0.1219  0.0981  0.4036
14361W        W30545  15.683  15.831   2.337 -0.2501 -0.1755  0.0636
14362W        W30546  17.409  12.181   3.869 -0.3792 -0.1908  0.2078
14363W        W30547   9.395  16.493  16.557 -0.1962  0.0703 -0.2424
14364W        W30548  14.524   0.628  12.934  0.0312 -0.0322 -0.2365
14365W        W30549   7.807  13.472  13.885  0.1579  0.0665 -0.0894
14366W        W30550  18.111  11.574   4.945 -0.0734 -0.2613 -0.3641
14367W        W30551   2.537   8.888   1.851 -0.2650 -0.0080  0.0561
14368W        W30552  17.682   5.796  11.596  0.0229  0.2217 -0.1052
14369W        W30553  11.943   8.514  14.047 -0.1445 -0.0016 -0.0522
14370W        W30554  11.329   0.439   1.413  0.0666  0.0132  0.2823
14371W        W30555  15.259   5.707   2.787  0.0268  0.1100 -0.0140
14372W        W30556  12.500  10.748   6.265  0.1868  0.1067 -0.0697
14373W        W30557   9.044   0.655   5.491  0.0725  0.2589 -0.0432
14374W        W30558  15.913  16.443  14.343  0.1062  0.0693  0.0184
14375W        W30559  15.364  11.476   3.411  0.0355  0.1795 -0.0875
14376W        W30560   2.446   7.399   5.631 -0.0601  0.1510  0.4120
14377W        W30561  16.851   5.127   1.811  0.3012  0.0686 -0.2762
14378W        W30562  16.502  10.996  14.007  0.0785  0.4089 -0.2688
14379W        W30563   0.614   2.550   3.679 -0.2430 -0.0595 -0.0002
14380W        W30564   1.973   3.603  15.880 -0.2640  0.0763 -0.1803
14381W        W30565  11.818  12.147  15.786  0.3876 -0.3523  0.1828
14382W        W30566   9.856   5.062   5.449  0.0800  0.0128 -0.0469
14383W        W30567  12.874   8.695   1.637 -0.3499  0.0312 -0.0203
14384W        W30568  12.368   0.417  16.206 -0.2033 -0.0497  0.3504
14385W        W30569  16.804   5.611  16.634 -0.1397  0.3642  0.2184
14386W        W30570  10.944  13.901  14.993 -0.0391 -0.1670 -0.2325
14387W        W30571   9.765  10.604   0.125 -0.1865  0.2726  0.0134
14388W        W30572  17.187   4.847  12.320  0.2317  0.4638 -0.0216
14389W        W30573  13.358   8.206   2.334 -0.0003 -0.2445 -0.1446
14390W        W30574  15.276   3.947  11.369  0.0607  0.1851 -0.0224
14391W        W30575   8.513  10.599   4.182  0.1661  0.0728 -0.2113
14392W        W30576  11.091  18.150  16.096  0.1455  0.2308  0.0467
14393W        W30577  12.171   5.674   2.750  0.0432 -0.0491 -0.0350
14394W        W30578   1.423  15.238   0.130 -0.2048  0.0679 -0.0857
14395W        W30579  16.267   3.864   2.256  0.0071  0.0231 -0.0422
14396W        W30580   9.376  10.301   0.949 -0.2107  0.0691 -0.1513
14397W        W30581   1.741   9.833   4.609  0.1119  0.1649 -0.0522
14398W        W30582   4.400   3.748   0.326  0.0871  0.0550  0.1925
14399W        W30583  17.125   7.679   3.703 -0.0766 -0.0455 -0.0339
14400W        W30584   8.803   8.794   0.220 -0.1247  0.0838  0.1227
14401W        W30585   4.285  10.473  12.397  0.3113  0.0142 -0.0550
14402W        W30586  12.812  12.292   3.246  0.0963 -0.1868 -0.0801
14403W        W30587   9.883  17.035  12.180  0.1741  0.0976 -0.2050
14404W        W30588   3.869   8.111   1.788  0.1311  0.1923 -0.0440
14405W        W30589  15.613   3.288   1.984 -0.1164 -0.1536  0.0699
14406W        W30590   1.567  17.280   2.075 -0.1834  0.5090  0.0660
14407W        W30591   3.139  12.507   2.049  0.2337 -0.2111 -0.1866
14408W        W30592  16.690  15.557  13.467 -0.2013  0.3296 -0.1811
14409W        W30593   6.725   4.990   0.728  0.2762 -0.1174  0.0068
14410W        W30594   6.720   5.931   3.861  0.0662 -0.2115  0.0280
14411W        W30595  15.164  15.708   2.485 -0.0412  0.0436 -0.2124
14412W        W30596  11.591  11.377  14.956 -0.0999  0.0427  0.2271
14413W        W30597  15.026  14.653   1.403 -0.2991  0.0180 -0.2047
14414W        W30598  16.936  12.364   0.475  0.0492  0.3579  0.0452
14415W        W30599  13.715   2.708   3.968  0.1587  0.1644  0.0211
14416W        W30600   5.784   8.038  11.799 -0.0214  0.0068 -0.2441
14417W        W30601   8.204  16.663   5.463  0.1369  0.0054 -0.1517
14418W        W30602   1.332   1.196   5.304 -0.3195  0.0492  0.2910
14419W        W30603  12.348  16.833  15.004 -0.0848  0.0188  0.2647
14420W        W30604  11.590   4.743   4.889 -0.0519  0.0070  0.1202
14421W        W30605   1.768   6.103   0.384 -0.2088  0.0580  0.0450
14422W        W30606   9.165   4.943  15.012  0.2958  0.2785 -0.0035
14423W        W30607   9.907   3.499   2.747  0.2321  0.4303 -0.3411
14424W        W30608   2.455  12.113  15.930  0.2523 -0.0911  0.2392
14425W        W30609   2.770  12.556   2.359  0.2462 -0.1375  0.1248
14426W        W30610   5.267  13.005   2.608 -0.0651 -0.3152 -0.0802
14427W        W30611  17.051  16.739  10.781  0.0133  0.4118 -0.1784
14428W        W30612   7.706  17.964  12.117 -0.2535  0.1557 -0.2728
14429W        W30613  12.552   1.186   5.797  0.2699 -0.0217  0.0296
14430W        W30614   0.637  15.360  12.545  0.0976  0.3714 -0.3000
14431W        W30615  18.058   1.359   3.632  0.1792 -0.4136  0.2293
14432W        W30616  12.441   2.644   3.585 -0.2600 -0.3169  0.0832
14433W        W30617   1.548   2.589   5.214 -0.2507  0.3047 -0.0687
14434W        W30618  10.883  17.381   0.590 -0.0280  0.1650  0.1623
14435W        W30619   6.994   3.880   0.081  0.1950  0.2855  0.0081
14436W        W30620   7.068   2.819   4.978 -0.0770  0.3178 -0.0655
14437W        W30621  11.819  14.618   5.442 -0.1209  0.0141 -0.1038
14438W        W30622   1.338   2.808  10.949 -0.2229  0.0030 -0.0800
14439W        W30623   0.195   6.004   4.238 -0.0483 -0.0506  0.0772
14440W        W30624  17.141   5.986   0.560  0.3165 -0.3076  0.0188
14441W        W30625  14.600   3.850  14.263  0.0331  0.0304  0.3184
14442W        W30626   5.007  15.937   4.708 -0.0211 -0.1175  0.0721
14443W        W30627  15.810  16.654   1.718  0.1499 -0.2600  0.0012
14444W        W30628   9.863   3.290  15.138 -0.0184  0.0209 -0.3231
14445W        W30629  10.038   2.486  14.927 -0.0663 -0.0429  0.1753
14446W        W30630  13.347   5.092  10.106  0.1382  0.0150 -0.0893
14447W        W30631   9.185   1.473   5.464 -0.0596 -0.1834 -0.2104
14448W        W30632   1.427   6.025   3.839 -0.0686 -0.1697 -0.1825
14449W        W30633  10.092  14.504   1.062 -0.0892 -0.0647  0.1604
14450W        W30634  14.504   3.892  10.735  0.1313 -0.0552 -0.1512
14451W        W30635  17.176   1.268  11.553 -0.0684  0.2223 -0.1280
14452W        W30636   5.518   4.225  16.456 -0.3761 -0.1353 -0.3076
14453W        W30637   4.805   2.599  16.260  0.1621  0.4925 -0.4128
14454W        W30638   5.481   1.032   1.737 -0.1617 -0.2483  0.2262
14455W        W30639   6.063  16.287  11.713 -0.0189  0.2956  0.0300
14456W        W30640   1.254   3.551  14.493  0.5335  0.1672  0.1246
14457W        W30641   4.024   4.856   0.938 -0.2550 -0.0998 -0.0524
14458W        W30642   3.995  11.530  15.396 -0.2857  0.2025 -0.0503
14459W        W30643   1.922   5.877   1.383 -0.0301 -0.0649 -0.0257
14460W        W30644   3.322  18.063  13.000  0.1006  0.1172  0.0533
14461W        W30645   9.093   4.451   3.401 -0.1030  0.0013 -0.0178
14462W        W30646  12.367  15.214   6.538  0.1231  0.0805 -0.1827
14463W        W30647  13.549   5.981  13.055 -0.2480  0.1900 -0.1545
14464W        W30648  14.129  14.520   3.360 -0.0490  0.1887 -0.1404
14465W        W30649  14.924  11.952   5.783 -0.2972  0.1622  0.0903
14466W        W30650   2.437  13.047  12.153  0.2766 -0.3686 -0.0779
14467W        W30651   6.127   8.594   2.930 -0.3333 -0.2152  0.3578
14468W        W30652  18.081   0.775   0.524  0.1519 -0.3372 -0.2800
14469W        W30653  13.217  11.835   6.032 -0.0767  0.1261 -0.1942
14470W        W30654   5.603   0.220  15.860 -0.0371  0.2463  0.3001
14471W        W30655  15.840  14.350  12.767  0.1148 -0.0679  0.1715
14472W        W30656   8.642  12.813  15.803 -0.2323 -0.1963 -0.1887
14473W        W30657  14.284   3.565   4.633 -0.0007 -0.1081 -0.0803
14474W        W30658  12.578   0.636  14.851 -0.1512 -0.0322  0.1854
14475W        W30659   3.560   0.228  13.717  0.1434  0.2418  0.0055
14476W        W30660   4.449   4.895   3.051 -0.1176  0.1753  0.0549
14477W        W30661   4.437   0.062  15.128  0.1127  0.3067 -0.2161
14478W        W30662  14.910   3.261   0.387  0.3290  0.3664  0.2210
14479W        W30663   8.437   9.348   0.743 -0.1692 -0.0130  0.0156
14480W        W30664   6.028   7.961   0.370 -0.0726  0.2826 -0.1316
14481W        W30665   3.327   3.184  12.261  0.1858  0.1799 -0.0976
14482W        W30666  17.371  13.208  13.111 -0.1956 -0.1563  0.0996
14483W        W30667  17.603   5.648  15.298 -0.0732  0.0574 -0.0319
14484W        W30668  13.049  11.684   4.534  0.0801  0.0975  0.1175
14485W        W30669  16.187   1.116   3.439  0.2503 -0.0880  0.0983
14486W        W30670  14.878   9.266   2.165  0.2753  0.0083 -0.0413
14487W        W30671   5.815   0.693  16.536 -0.2634 -0.2049  0.0066
14488W        W30672  16.104  13.275   2.551 -0.0559 -0.0226  0.1856
14489W        W30673   1.992  14.692   5.801 -0.3730 -0.4324  0.0232
14490W        W30674   6.172  16.868  13.372  0.0209 -0.0319  0.1984
14491W        W30675  18.013  17.360   2.859 -0.0122 -0.2250 -0.0723
14492W        W30676   4.961   1.084   6.117 -0.0005 -0.1185 -0.1109
14493W        W30677  14.901   6.188   3.174 -0.1424  0.3023  0.1572
14494W        W30678   9.405   5.404  15.793 -0.1910  0.0910  0.1143
14495W        W30679  11.240  12.410   4.255 -0.3570  0.0250 -0.0024
14496W        W30680   1.270   3.057  11.364 -0.3323 -0.1335  0.3094
14497W        W30681  15.568  11.064   3.539  0.2013 -0.0855 -0.1087
14498W        W30682   7.786  12.187  14.031 -0.5031 -0.1838  0.1402
14499W        W30683  16.578   7.676   2.325 -0.0099 -0.0885  0.0602
14500W        W30684  10.332   1.632  16.198  0.0949 -0.0700  0.2308
14501W        W30685   3.704  15.754   2.646 -0.0565 -0.0944  0.0721
14502W        W30686  11.271   3.898  16.118  0.0938 -0.1872 -0.1050
14503W        W30687  16.346   5.876   0.074 -0.0463 -0.3187 -0.0877
14504W        W30688  17.815   0.442   3.916  0.4117  0.1781  0.2403
14505W        W30689  13.179  10.180  12.332 -0.1256 -0.1907 -0.2305
14506W        W30690   5.199   2.700   5.038 -0.1082  0.0109 -0.3272
14507W        W30691   8.608  11.360  16.086 -0.1714 -0.2196 -0.0033
14508W        W30692   7.238  18.045  15.112  0.0948  0.0778 -0.0234
14509W        W30693  11.141   2.364  15.824  0.0377  0.1596  0.1160
14510W        W30694   5.602  14.137   5.711  0.0102  0.2308 -0.2798
14511W        W30695   0.197   6.324  13.500  0.0110  0.0686 -0.2696
14512W        W30696   3.177  18.117   3.438 -0.2660  0.1324 -0.0950
14513W        W30697  14.009  15.467   2.837 -0.3108  0.1809 -0.0507
14514W        W30698   8.981  15.192  14.711  0.1107 -0.1346 -0.2306
14515W        W30699  12.935  13.424  14.225 -0.3031 -0.0160 -0.1608
14516W        W30700   6.819   7.407  12.383  0.0042 -0.2783 -0.0879
14517W        W30701   3.904  11.452  13.760  0.1104  0.1547 -0.2991
14518W        W30702   8.459  12.893  16.306  0.0365 -0.1854  0.3188
14519W        W30703   9.973  17.289  15.670 -0.2608  0.1047 -0.2520
14520W        W30704   5.370  12.766   3.874 -0.1976 -0.1469 -0.1976
14521W        W30705   0.137   2.430  13.787  0.1821 -0.0241  0.3263
14522W        W30706  15.635   3.958  14.256 -0.2514  0.1067 -0.0419
14523W        W30707  13.122   0.457   4.829  0.1246 -0.3217 -0.2117
14524W        W30708   0.581   1.605  14.113  0.0181 -0.0962  0.0467
14525W        W30709   2.828   0.976   2.918  0.0124 -0.4085 -0.0512
14526W        W30710   0.858  10.154  16.583  0.1824  0.1645  0.1806
14527W        W30711   4.534   5.700   0.593  0.1323  0.1869 -0.0662
14528W        W30712   7.316  17.699  12.305  0.2079 -0.2115 -0.0576
14529W        W30713  14.148  10.059   3.526 -0.2721  0.4260  0.2925
14530W        W30714   0.274   1.818   9.975  0.0238  0.0658 -0.2136
14531W        W30715   6.187  11.886   0.058 -0.2149 -0.3754  0.1550
14532W        W30716  10.889  15.031   0.811  0.0368  0.2706 -0.1308
14533W        W30717   2.482  14.403  16.079 -0.0628 -0.0281  0.0846
14534W        W30718   2.173  14.815  13.768  0.1795 -0.2103  0.2372
14535W        W30719  13.009  12.630  12.445  0.0309 -0.2206 -0.0317
14536W        W30720   9.689   0.317   1.684 -0.2585 -0.0543  0.1902
14537W        W30721   9.400  17.503  13.190 -0.1187  0.1563 -0.0475
14538W        W30722  15.614  15.850   3.213  0.2440 -0.1889 -0.1828
14539W        W30723  12.224  13.171  12.702 -0.2525 -0.0097  0.0503
14540W        W30724   5.311  11.428   2.251  0.1846 -0.1182  0.0840
14541W        W30725   3.542  11.248   4.288  0.1965  0.1832 -0.0310
14542W        W30726  16.504   7.700  14.247 -0.2143 -0.0879  0.1073
14543W        W30727   8.127  13.400   5.351  0.1329  0.1886  0.0781
14544W        W30728   5.945  17.316  16.065  0.0117 -0.0107 -0.4720
14545W        W30729   0.186   6.993   2.789  0.0653 -0.0468  0.1011
14546W        W30730   0.202   4.226  13.690 -0.2253  0.0840 -0.1262
14547W        W30731   6.091  11.702   0.854  0.1429  0.1606 -0.0228
14548W        W30732  10.208   3.997   5.315 -0.2077 -0.0460  0.4142
14549W        W30733  11.696  11.217  12.028 -0.0932 -0.1972 -0.0568
14550W        W30734  10.357   9.473   0.857 -0.2141  0.0510 -0.0524
14551W        W30735   0.710  13.996  13.918  0.0463 -0.0261 -0.1042
14552W        W30736  10.487   9.818   1.494  0.1216 -0.0596 -0.0899
14553W        W30737  14.924   1.936  11.860  0.3962  0.0304 -0.0203
14554W        W30738   8.403  14.132  14.825 -0.0435  0.0491  0.0288
14555W        W30739   7.345  10.295  13.832  0.0584 -0.1887  0.0738
14556W        W30740   7.056   1.697   3.283 -0.1703 -0.0536 -0.0146
14557W        W30741   6.127   4.284  13.308  0.0761  0.1494 -0.0151
14558W        W30742  13.143   4.638  12.956  0.3137 -0.0179  0.0974
14559W        W30743  14.739  11.088   4.072 -0.1642 -0.2942 -0.1900
14560W        W30744   9.906   5.065   1.707 -0.0142  0.2189  0.0700
14561W        W30745   2.220  10.894   4.169  0.0322 -0.3612 -0.0011
14562W        W30746   2.016   2.257   5.289  0.0680 -0.0907  0.2313
14563W        W30747  17.065  16.951   0.839  0.4905 -0.0044  0.0241
14564W        W30748  12.211  13.103   3.133  0.1706  0.1320 -0.2094
14565W        W30749  10.296  16.741   0.362  0.4593 -0.0171 -0.0535
14566W        W30750   8.887  14.208   6.034 -0.0491  0.0002  0.0051
14567W        W30751  16.390   6.467   0.923 -0.0751  0.3126 -0.1636
14568W        W30752   6.019  16.394  15.879  0.3006  0.0941 -0.2930
14569W        W30753   9.559  15.327   1.259  0.1223 -0.0320 -0.0996
14570W        W30754   0.430  16.266  12.099 -0.1679  0.1172 -0.2320
14571W        W30755  14.122  14.482   2.295 -0.1095 -0.1183  0.1319
14572W        W30756   8.924   1.176  13.810 -0.2793  0.3234 -0.0620
14573W        W30757   9.346  14.093   4.682  0.0967  0.0327  0.1229
14574W        W30758   0.087  15.975   3.298  0.2354 -0.2294  0.1611
14575W        W30759   9.815   2.821   3.493 -0.0047 -0.0804  0.2541
14576W        W30760  14.444   7.468   1.111  0.2186 -0.2928  0.0470
14577W        W30761  13.079   8.102  16.215 -0.0568 -0.0976  0.0047
14578W        W30762  14.661   0.016  15.343 -0.1934  0.1754  0.1792
14579W        W30763  11.585  10.325  12.075  0.2137 -0.1156 -0.1202
14580W        W30764   7.111  14.984  16.228  0.0319  0.0116  0.0073
14581W        W30765  13.306   0.167   6.417 -0.4042 -0.1984  0.0430
14582W        W30766  13.939   5.514  12.581  0.0107  0.0976 -0.0595
14583W        W30767   6.437  15.860  12.357  0.0514  0.1224 -0.2269
14584W        W30768  15.127  17.895  12.061  0.0310 -0.0141 -0.0567
14585W        W30769  13.933   1.271   6.019  0.0256 -0.0816  0.1499
14586W        W30770   1.952   2.902  16.570 -0.0099 -0.0658  0.0585
14587W        W30771   8.768   9.597  15.237  0.3062 -0.0739  0.2861
14588W        W30772   1.070   3.815  16.400  0.0603 -0.3718 -0.1282
14589W        W30773  16.550   0.368   2.141 -0.0162 -0.0701 -0.0200
14590W        W30774   5.830   9.860   5.863 -0.1016  0.0141  0.1588
14591W        W30775   4.005  17.119  13.657 -0.2670  0.0495  0.3142
14592W        W30776   8.444   0.301  13.352 -0.0235 -0.1681  0.0679
14593W        W30777  12.278   6.967   2.894 -0.0571  0.0847 -0.3671
14594W        W30778   0.581   2.248  15.401 -0.3145  0.0016 -0.1229
14595W        W30779  10.665   2.915  13.729 -0.1324 -0.1268  0.1852
14596W        W30780   2.857   6.595  11.417  0.2868  0.2921  0.4271
14597W        W30781  14.657   7.484  15.471 -0.0789  0.1258 -0.3353
14598W        W30782   5.461   8.422  14.876  0.1493  0.0768  0.2930
14599W        W30783   5.851  14.195   1.084 -0.2493 -0.0576 -0.0850
14600W        W30784   7.225   3.980  12.749 -0.0373  0.0805  0.2097
14601W        W30785  16.966  17.786  15.485 -0.5471 -0.1919  0.0405
14602W        W30786  11.930  15.017   3.070  0.1402  0.3682 -0.2654
14603W        W30787   0.315   1.819  14.465 -0.1078  0.4292  0.4260
14604W        W30788   4.290   9.059  13.985 -0.1629 -0.0614  0.2306
14605W        W30789  15.887  13.151  13.685 -0.0906 -0.0414 -0.0255
14606W        W30790  14.670   2.866  15.585 -0.0413 -0.1786 -0.0594
14607W        W30791   5.847  12.090   1.299  0.2375  0.0604  0.0113
14608W        W30792  17.382  17.501  16.278  0.1867  0.0513  0.0641
14609W        W30793   3.411  15.927   4.178  0.0585  0.2524  0.1003
14610W        W30794  15.697   5.547   4.768 -0.1159 -0.1853 -0.0188
14611W        W30795  14.572   9.292  11.380 -0.1330 -0.4356  0.1263
14612W        W30796   2.654  11.249   3.053 -0.1771 -0.1010 -0.0831
14613W        W30797   7.045  10.865   0.089 -0.0019 -0.2008  0.1013
14614W        W30798   2.993   2.400   4.481  0.0318 -0.0558  0.0565
14615W        W30799   4.901  17.565  12.024 -0.1555  0.0864 -0.2970
14616W        W30800   8.507  17.409   5.974 -0.3751 -0.0007 -0.3087
14617W        W30801   4.682   5.767   3.894  0.2249  0.1038  0.0269
14618W        W30802  14.490   5.838   0.432 -0.2356  0.0234  0.1452
14619W        W30803   9.424   2.285  14.201 -0.3440  0.1775 -0.4408
14620W        W30804  12.262  17.927  15.502 -0.0151  0.1981 -0.1074
14621W        W30805  15.683   4.636   1.105 -0.3977 -0.2076  0.1536
14622W        W30806  11.144   9.302   0.486 -0.1992 -0.1648  0.3359
14623W        W30807   1.755   1.988  11.380 -0.3270  0.2526  0.0666
14624W        W30808   2.523   9.978  11.855  0.2373  0.0122 -0.0378
14625W        W30809   9.048   4.254   1.151 -0.2879 -0.3383 -0.0511
14626W        W30810  12.560   8.898  13.709  0.0824 -0.1992  0.1427
14627W        W30811   6.545   1.451  14.130  0.0204 -0.0659 -0.2692
14628W        W30812   8.951   7.532   2.273  0.2376 -0.0944  0.2655
14629W        W30813   6.878   8.795   2.641 -0.0772  0.0804  0.0226
14630W        W30814   0.772   1.306   4.041  0.2161 -0.1275  0.3495
14631W        W30815  14.882  11.553  12.001  0.0432 -0.1432  0.1030
14632W        W30816   6.690  11.131   4.348  0.0284 -0.1068 -0.3288
14633W        W30817  16.464  14.982   0.699  0.2639 -0.1358 -0.4333
14634W        W30818   5.666   0.378   0.667  0.0063  0.0513 -0.2105
14635W        W30819   1.877  16.608  15.801 -0.2304  0.1925 -0.3043
14636W        W30820   1.883   0.700   3.932  0.0933  0.0721 -0.1456
14637W        W30821  11.026  11.315  13.259 -0.2224 -0.3613  0.1897
14638W        W30822   4.926   0.824  16.314 -0.1704 -0.2448 -0.1394
14639W        W30823  16.653  17.837   0.616 -0.0641 -0.3990  0.0300
14640W        W30824   4.971  14.887  13.203 -0.3141  0.2005 -0.0336
14641W        W30825  12.470   6.245   2.361 -0.4084 -0.2311  0.0791
14642W        W30826   2.624  11.098   2.556 -0.0617 -0.4882 -0.0794
14643W        W30827   3.160  17.029  11.775 -0.1500 -0.0562  0.0617
14644W        W30828  11.912   8.816  16.089 -0.3034 -0.1893  0.3937
14645W        W30829  17.777  15.554   0.686  0.2116 -0.1811  0.0530
14646W        W30830  16.368   6.260  16.345  0.1387  0.0762  0.0979
14647W        W30831   4.302   6.663   2.311 -0.0650 -0.1684 -0.0003
14648W        W30832   6.828   5.521   0.890 -0.1374 -0.0507 -0.2099
14649W        W30833   9.790  16.997   5.076 -0.1289  0.0377  0.1733
14650W        W30834  11.021   4.861   3.594  0.2841 -0.1020  0.1044
14651W        W30835   6.329   1.812  12.804 -0.0572 -0.0724  0.3698
14652W        W30836  15.042   9.410  11.169  0.1388 -0.0431 -0.3698
14653W        W30837  11.354   0.928  13.710 -0.1016 -0.2287 -0.0281
14654W        W30838  10.949  15.044   2.178  0.1125  0.0750  0.1827
14655W        W30839  12.880   5.924  11.301 -0.0015 -0.0494  0.1782
14656W        W30840   4.863   8.375   2.885 -0.1213  0.3246 -0.1646
14657W        W30841  10.467   7.240  12.794 -0.2334  0.2690  0.0207
14658W        W30842  13.791   6.602  12.896  0.0013 -0.0573  0.0884
14659W        W30843  15.224   9.686   2.655 -0.1131 -0.0958 -0.0565
14660W        W30844  15.947   6.082   1.689  0.0961 -0.0827  0.0633
14661W        W30845   9.328  18.004   5.267 -0.2055  0.2032  0.1541
14662W        W30846   9.986   9.873  16.154 -0.0574  0.0280 -0.2955
14663W        W30847   7.766  15.874   4.855 -0.2037  0.1642 -0.2115
14664W        W30848   3.166  18.071  13.875  0.0082 -0.2257  0.0603
14665W        W30849  12.874  13.160  13.340 -0.0126 -0.2058 -0.2007
14666W        W30850   4.254  17.630  13.003  0.0362 -0.0429 -0.1146
14667W        W30851   4.378  14.457   0.020  0.4737  0.4538 -0.3893
14668W        W30852   1.333  17.195  15.392  0.1152  0.0958 -0.0747
14669W        W30853   0.310   7.695   0.458  0.2063 -0.0328 -0.0487
14670W        W30854  10.131  14.390   0.442 -0.2495 -0.1532 -0.1432
14671W        W30855  13.862   4.149  12.685 -0.1385  0.2437  0.1990
14672W        W30856  14.833  15.637   1.732  0.0820 -0.1933 -0.2323
14673W        W30857  12.028   7.143  13.877  0.0879  0.1959  0.0293
14674W        W30858   3.413   2.382  16.682  0.0615 -0.2667 -0.0757
14675W        W30859  13.615   1.665  16.408 -0.2917  0.3159 -0.0813
14676W        W30860  15.113  17.901   0.967 -0.3727  0.2283  0.2206
14677W        W30861   9.812   6.085  14.572 -0.0174  0.2878 -0.1664
14678W        W30862  14.035  14.639  12.165 -0.0146  0.4144  0.3298
14679W        W30863   4.737   4.571   3.305 -0.1975 -0.1959 -0.2412
14680W        W30864  10.892   9.310  16.242 -0.0347  0.1141 -0.1589
14681W        W30865   2.530   0.004   4.290 -0.0549 -0.0992  0.1266
14682W        W30866  16.854  15.540   4.355  0.3253 -0.1552 -0.2544
14683W        W30867  14.329   2.568   2.733  0.0606 -0.1125 -0.0783
14684W        W30868  12.884   5.243  13.819 -0.2082 -0.1288  0.0206
14685W        W30869   1.136  13.714   0.649  0.2328  0.1643 -0.1504
14686W        W30870   9.098  17.305   6.201 -0.1634 -0.1765 -0.0301
14687W        W30871  11.047   2.667  13.259  0.1071 -0.0302 -0.0662
14688W        W30872   6.918   4.504   2.358 -0.0825  0.0058  0.3251
14689W        W30873   2.527  15.138   3.179 -0.0453 -0.2992  0.0001
14690W        W30874   9.494   6.245   4.882 -0.0583  0.0962  0.2675
14691W        W30875   9.468  12.456  12.696 -0.2789  0.0636  0.2388
14692W        W30876   4.250   5.897  16.307  0.2025 -0.2836  0.0796
14693W        W30877   5.759   8.383   2.690  0.1463 -0.1497 -0.3319
14694W        W30878   1.535   4.043  16.619 -0.0178 -0.1400  0.2439
14695W        W30879   4.781   9.675  13.566  0.1185  0.0509 -0.0811
14696W        W30880   9.912  10.612  16.085 -0.0519  0.1375 -0.0358
14697W        W30881  15.246   0.945  11.121  0.0297 -0.0364 -0.2571
14698W        W30882   0.158   7.467   0.908 -0.2563 -0.3294  0.2526
14699W        W30883   1.744  15.060  14.478  0.2238  0.0003  0.3819
14700W        W30884   7.099  15.769   4.274 -0.1318 -0.0627  0.2868
14701W        W30885  11.822   6.072   6.458  0.1224  0.0157  0.1792
14702W        W30886   0.118   0.636   2.306  0.3482 -0.0580 -0.2071
14703W        W30887  16.688   0.054   1.318 -0.0950  0.2792  0.0882
14704W        W30888   7.836   6.427  12.560 -0.2401  0.0684 -0.1176
14705W        W30889   1.465  14.514  15.621  0.1637  0.1195 -0.1137
14706W        W30890  13.238  11.299  15.473  0.1044  0.0108 -0.1670
14707W        W30891   2.182  11.335  11.986  0.1917 -0.0359 -0.3377
14708W        W30892  16.737  15.972  11.515 -0.1481  0.0031 -0.0587
14709W        W30893   6.718   6.220   4.699 -0.0574 -0.0419 -0.0755
14710W        W30894   8.553   3.372  15.270 -0.3464 -0.3045  0.1407
14711W        W30895  15.239   0.266  11.394  0.5085  0.0519  0.1968
14712W        W30896   2.912   5.085   5.142 -0.0379  0.0505  0.2060
14713W        W30897   9.693   3.245  15.662 -0.0200  0.0151  0.0016
14714W        W30898   7.618   8.962   1.679  0.1892  0.1328  0.1140
14715W        W30899  15.411   8.215  11.309 -0.0509 -0.3844 -0.1974
14716W        W30900  14.522   7.586   2.186 -0.2275  0.0463 -0.1127
14717W        W30901   4.340   1.196  12.245 -0.0432 -0.3054 -0.0478
14718W        W30902  13.546   2.759   0.678  0.0272 -0.2762 -0.0920
14719W        W30903  15.265  16.914  13.260 -0.2034  0.0604  0.1678
14720W        W30904   0.501   2.633  11.996  0.2730 -0.0138  0.1818
14721W        W30905   4.081   9.302  16.005 -0.0465 -0.0757  0.0105
14722W        W30906  13.419   5.308   2.581  0.2779  0.0853 -0.0130
14723W        W30907   6.373   3.427   3.355  0.0146  0.0883  0.1759
14724W        W30908   6.057   3.235  11.458 -0.1038  0.0221 -0.2017
14725W        W30909   1.934  17.665  14.178  0.3779 -0.1311  0.0697
14726W        W30910  15.587   2.613  15.364  0.2769 -0.0918  0.0442
14727W        W30911   0.079   1.144   5.644  0.0363  0.1109  0.0391
14728W        W30912   8.264  16.572   2.838  0.1542  0.1194 -0.0869
14729W        W30913  11.439   7.196  12.892  0.1274 -0.1164 -0.0208
14730W        W30914  15.309   2.892  14.998  0.1400  0.2306  0.2856
14731W        W30915  17.107   2.454   3.814 -0.1791  0.2727  0.1409
14732W        W30916   8.415  17.384   2.355  0.1518  0.0950 -0.1400
14733W        W30917   9.822   4.593   3.136  0.1329  0.1105 -0.2107
14734W        W30918  11.239   3.001   1.668  0.1312  0.0096  0.0663
14735W        W30919   3.306  10.860   4.708 -0.1978  0.1690  0.0143
14736W        W30920   8.811  10.860  16.027  0.2533 -0.1632 -0.0038
14737W        W30921   7.800   5.827  15.419  0.0715  0.0413  0.1201
14738W        W30922  17.224   5.514  12.980 -0.0832  0.1847 -0.0758
14739W        W30923   1.588  14.629   0.425  0.2906 -0.0424 -0.3681
14740W        W30924   0.694   5.154   5.138 -0.2788  0.2216 -0.1063
14741W        W30925   4.284   2.310  12.429 -0.0908  0.0606 -0.0840
14742W        W30926   3.147  16.510  14.578  0.1876  0.2381 -0.3553
14743W        W30927   1.934  13.566   2.586 -0.2131  0.1360  0.2438
14744W        W30928   1.059  11.045   0.145 -0.0270  0.1577 -0.1295
14745W        W30929  13.834   4.114   0.288 -0.2187  0.0272 -0.2517
14746W        W30930  15.615   1.189  11.592 -0.1850  0.3264  0.0645
14747W        W30931  13.979  12.097  16.249 -0.1049  0.3157  0.0273
14748W        W30932  14.140   2.484  13.713  0.0825 -0.2332  0.1011
14749W        W30933  14.714   3.804   4.432 -0.0229  0.3267  0.1696
14750W        W30934   3.362   7.772  12.757 -0.0014  0.3075  0.0978
14751W        W30935  11.164   6.679  11.660  0.1829 -0.1588  0.0361
14752W        W30936   0.391  13.306  13.350  0.4872  0.2275  0.3389
14753W        W30937   1.846  11.719  13.715 -0.0911  0.0260  0.1454
14754W        W30938  15.825   7.863   0.986  0.0690 -0.1664  0.1354
14755W        W30939  10.231   7.111  11.372  0.1246 -0.0651 -0.0107
14756W        W30940   5.016   4.403  12.638  0.0325 -0.0913 -0.0853
14757W        W30941  13.829   7.098  12.640  0.4398 -0.0784 -0.0829
14758W        W30942   5.611   2.359   3.052  0.1981 -0.2612  0.0308
14759W        W30943   5.019  11.190   4.506  0.0942 -0.0390  0.0375
14760W        W30944   8.163  15.212   0.392  0.1768  0.0952  0.1835
14761W        W30945  17.019   0.269  15.389 -0.3392 -0.3056 -0.5444
14762W        W30946   0.017   8.897  16.204  0.0712 -0.1041  0.2126
14763W        W30947  14.926  15.562   0.323 -0.1480  0.1299  0.3554
14764W        W30948  13.984   1.939  14.377 -0.1822 -0.0536 -0.2255
14765W        W30949  17.493   8.054  16.058  0.4746 -0.1546  0.1098
14766W        W30950   3.907   5.503  15.352 -0.0691  0.3450  0.3277
14767W        W30951   3.955   6.978  16.403  0.1519 -0.0236 -0.3306
14768W        W30952   8.310  12.720   3.040  0.2334  0.1690 -0.0240
14769W        W30953  13.264   2.742   1.858 -0.0091 -0.3792 -0.3445
14770W        W30954   1.781   6.570  12.541 -0.0459 -0.2576  0.0157
14771W        W30955   4.772  11.139  16.630  0.3739  0.0901  0.1616
14772W        W30956   5.558  12.601   3.472 -0.3475 -0.0013  0.0648
14773W        W30957   7.601   7.649  11.882  0.1658 -0.0319  0.0363
14774W        W30958   8.912   3.026   3.635 -0.1421  0.0682  0.2392
14775W        W30959  15.281   8.663   1.354 -0.1972 -0.1837 -0.0468
14776W        W30960   5.963   1.867  14.289  0.0685  0.1125 -0.1215
14777W        W30961  16.350  10.765   2.965  0.1446 -0.0404  0.1419
14778W        W30962  10.672   6.354   0.417 -0.0783  0.0114 -0.3373
14779W        W30963   3.789   2.694   1.303  0.2123 -0.2439 -0.0190
14780W        W30964  10.763   2.458  13.904 -0.2055 -0.1005  0.3000
14781W        W30965  10.709   7.899  13.443 -0.0730 -0.2864  0.3700
14782W        W30966   7.569   3.510   1.021  0.0007  0.1460  0.0371
14783W        W30967   7.646   3.963   0.726  0.0308 -0.1772 -0.2388
14784W        W30968  14.832   2.073   4.436  0.0904 -0.0885  0.0716
14785W        W30969   9.310   0.917  14.032 -0.1943  0.0453 -0.1926
14786W        W30970   1.978  14.878  13.342 -0.2385  0.3129 -0.1897
14787W        W30971  11.282   7.325   2.849  0.1666  0.1971  0.0515
14788W        W30972   1.439  11.183   1.224  0.0881 -0.2422  0.1637
14789W        W30973   1.139  11.706  10.888 -0.0186  0.1194 -0.2969
14790W        W30974  10.515  15.148   0.050  0.2058 -0.0006 -0.0223
14791W        W30975   0.611   7.979  16.144 -0.0644  0.4502  0.0039
14792W        W30976   6.283  12.288   3.143 -0.1795  0.1882  0.1544
14793W        W30977   7.784  14.631  12.955  0.0261  0.1105 -0.1030
14794W        W30978   2.120   6.767   1.234 -0.1910 -0.3928 -0.3032
14795W        W30979   2.451  18.005   0.579 -0.3863  0.2041  0.2095
14796W        W30980  12.845   0.944  16.116 -0.0686  0.0257  0.3207
14797W        W30981   8.394   3.198   1.537 -0.1383  0.0813 -0.1377
14798W        W30982   4.986   6.266  13.408 -0.0175 -0.0317  0.2483
14799W        W30983  18.009  11.177  12.156  0.0083 -0.1599 -0.2027
14800W        W30984   4.937  11.462  15.916 -0.0274  0.1210 -0.0888
14801W        W30985   0.457  15.456   2.536  0.2551  0.0162 -0.2468
14802W        W30986  15.733  11.259   5.519 -0.1812  0.1278  0.2262
14803W        W30987   4.787  17.842  15.858  0.2680  0.2967  0.1126
14804W        W30988   1.871  17.054  12.855  0.3391 -0.1692 -0.0331
14805W        W30989  14.362   4.988  12.585 -0.0134 -0.2083 -0.0518
14806W        W30990   1.198   5.950   1.871  0.1030 -0.1744 -0.2036
14807W        W30991  13.996   3.358  15.946  0.1541 -0.5315 -0.1704
14808W        W30992   7.115  15.158  13.036 -0.2069  0.2913 -0.0097
14809W        W30993   4.786  16.475  14.410  0.2794  0.1325 -0.0646
14810W        W30994  14.772   8.836  11.634 -0.0371  0.0103  0.0263
14811W        W30995   4.726   6.810  15.731 -0.1434  0.0400  0.0163
14812W        W30996   8.008   5.602   6.464 -0.1067  0.3048  0.0651
14813W        W30997   4.588   0.613   2.267 -0.0379 -0.0582 -0.0731
14814W        W30998  11.697   1.423   6.060  0.0535 -0.0336 -0.1011
14815W        W30999   5.299  14.450   3.956  0.1145  0.0346 -0.0117
14816W        W31000  16.575  15.893   1.651 -0.0242 -0.2271  0.2750
14817W        W31001   6.320   9.452  15.940 -0.0375 -0.1147 -0.0140
14818W        W31002   9.877  10.642   1.308 -0.1123 -0.2982 -0.0310
14819W        W31003   6.584   6.008  14.008  0.0584  0.0695 -0.1270
14820W        W31004   1.312   6.206  15.880  0.1297 -0.3392  0.1005
14821W        W31005   6.656   5.474  13.650 -0.1082  0.0427 -0.0612
14822W        W31006   0.384   5.910  11.845 -0.2471  0.1620  0.0649
14823W        W31007  15.354   5.038   0.974  0.3830  0.1854  0.0393
14824W        W31008   9.810  13.773  13.430  0.0356 -0.1028 -0.1096
14825W        W31009   2.985   2.147  16.195 -0.2093  0.2689  0.3086
14826W        W31010   2.718   7.036   0.463  0.0399  0.1282  0.3002
14827W        W31011   1.120  14.555   6.335  0.3016 -0.0196 -0.0341
14828W        W31012   3.525   0.614   3.482 -0.1414 -0.0837 -0.0310
14829W        W31013   7.579   6.167  15.782  0.3686 -0.2314 -0.0415
14830W        W31014   5.753   4.248   5.309  0.0671 -0.2936 -0.1400
14831W        W31015  17.602  15.709   3.893 -0.2162  0.1481 -0.1003
14832W        W31016  10.529   6.285  13.461 -0.0739  0.1155  0.1408
14833W        W31017   6.937   5.998   2.847  0.3880  0.0487 -0.3973
14834W        W31018   3.739   1.562  16.475 -0.0327 -0.4754  0.4074
14835W        W31019   7.499  15.453  12.292 -0.1321 -0.0589  0.0351
14836W        W31020   2.384   6.393  13.302 -0.1890  0.0935  0.0013
14837W        W31021  16.840   7.411  10.084  0.0152 -0.1888 -0.2989
14838W        W31022  10.413  14.933   2.188 -0.0662 -0.2769  0.1637
14839W        W31023  10.646  17.225  11.209 -0.3344 -0.2526 -0.2072
14840W        W31024   8.700  12.807   1.191 -0.1943  0.0792  0.2526
14841W        W31025  16.783   8.677  13.570  0.0625  0.0919  0.3011
14842W        W31026   5.383   7.125   2.424 -0.0835 -0.0467 -0.0628
14843W        W31027   9.967  17.525   5.570 -0.4320 -0.0953 -0.2966
14844W        W31028   4.555  14.823  14.424 -0.1468 -0.1518  0.0713
14845W        W31029  12.311   3.888   2.041  0.0358 -0.1411 -0.2536
14846W        W31030  17.516  16.417  15.224 -0.1974  0.2304  0.2970
14847W        W31031   3.667   1.106  13.729 -0.1813  0.0744 -0.0655
14848W        W31032   7.170   3.623   6.352 -0.3463  0.0635  0.0357
14849W        W31033  15.721   5.903  10.392 -0.1249  0.0924  0.3194
14850W        W31034  12.837   8.088   0.421  0.1961 -0.0542  0.1181
14851W        W31035   0.155  15.492  16.538 -0.1620 -0.1183  0.1287
14852W        W31036   9.127  13.417   4.412 -0.0702 -0.0908 -0.0567
14853W        W31037  12.720   5.959   1.372  0.1118  0.2395 -0.0728
14854W        W31038  11.474   1.349   2.685 -0.1173 -0.2438  0.0185
14855W        W31039  14.428   8.650  13.813  0.0364 -0.0767 -0.0613
14856W        W31040  15.539  17.876  12.524  0.1654  0.0655 -0.1787
14857W        W31041  10.715   5.713   3.103  0.4861 -0.2085  0.1804
14858W        W31042   9.670  13.422   5.241 -0.0513 -0.1895  0.1761
14859W        W31043   5.738  17.998  11.645 -0.2063  0.0131 -0.2009
14860W        W31044  17.586  17.741   6.030 -0.2867  0.1115  0.1052
14861W        W31045  18.126   4.866  13.020  0.2455 -0.1120 -0.1052
14862W        W31046  11.688   9.111  16.545  0.1421 -0.1809 -0.1019
14863W        W31047  18.087  13.539  11.996 -0.3502  0.0578  0.0841
14864W        W31048   1.209   4.638  15.049  0.0289 -0.2527  0.3909
14865W        W31049   6.874  10.331   3.310 -0.0793  0.0295  0.2815
14866W        W31050   8.584   2.022  12.365 -0.3762  0.2462 -0.1173
14867W        W31051  17.527  15.565  11.575 -0.1216  0.1319  0.1449
14868W        W31052  15.558  14.169   5.390 -0.2096  0.0766 -0.1193
14869W        W31053  12.189  14.975   1.706  0.0618 -0.0678  0.2294
14870W        W31054  16.062   2.527   2.723  0.1739  0.1625 -0.1184
14871W        W31055   9.064  10.163   5.214 -0.1777 -0.1372  0.4154
14872W        W31056   4.019   3.275  15.954 -0.1438 -0.2437  0.1270
14873W        W31057   0.974   0.428  15.061  0.0439 -0.1213 -0.1861
14874W        W31058   4.296  10.740   3.176  0.1948 -0.2544  0.4362
14875W        W31059   5.550   0.117  14.819 -0.3725 -0.0122 -0.0694
14876W        W31060  17.968   7.232   1.806 -0.0482 -0.1982 -0.0777
14877W        W31061   2.769   7.684   4.715  0.4657  0.1683 -0.3014
14878W        W31062  16.642  10.366  15.788 -0.2969 -0.2347 -0.0421
14879W        W31063  16.488   9.557   0.315 -0.2861 -0.2324  0.3060
14880W        W31064  11.197   2.705   1.189 -0.0764  0.0591  0.0625
14881W        W31065   6.871  15.157  15.464  0.1435  0.2671 -0.0441
14882W        W31066  14.921   0.648  11.329 -0.1116 -0.0919  0.3005
14883W        W31067   4.243   1.742  13.207  0.0932 -0.2424 -0.0811
14884W        W31068   0.185  13.875   5.153 -0.0800 -0.0953  0.0471
14885W        W31069   0.123  15.406   0.784 -0.2141  0.0655  0.0054
14886W        W31070  15.635  16.661   0.560 -0.2554 -0.1108 -0.0907
14887W        W31071   7.580  15.753  14.802  0.2208  0.0126  0.5450
14888W        W31072  12.439   3.853  15.784 -0.0587 -0.2456  0.0093
14889W        W31073  11.350  13.281   5.372 -0.1918 -0.0761  0.2460
14890W        W31074   2.208   3.029  12.307 -0.3446  0.2357  0.2774
14891W        W31075  10.955   9.359   5.762  0.2415 -0.1469 -0.0889
14892W        W31076   5.228   2.382  14.522  0.3479  0.1011  0.0302
14893W        W31077  14.296   8.955   3.574 -0.0626  0.0730 -0.0319
14894W        W31078   1.662  10.082  16.672  0.2648  0.3090  0.0932
14895W        W31079  10.499   1.003   4.848  0.1064 -0.0083 -0.1519
14896W        W31080  14.974  17.211  15.636  0.1303  0.2839 -0.0566
14897W        W31081   1.840   2.342  11.700 -0.0348  0.2027  0.1714
14898W        W31082   9.485   8.735   1.097  0.1505 -0.0973  0.1350
14899W        W31083   5.065  11.950  16.149  0.0401 -0.2415 -0.1341
14900W        W31084  16.865   8.712   1.041 -0.0103 -0.3824  0.0968
14901W        W31085  11.800   7.980  15.464  0.1868  0.0403 -0.1684
14902W        W31086   8.172   0.110   4.665  0.0510 -0.4021  0.1425
14903W        W31087  15.908   0.950  11.897 -0.0689  0.2425  0.0545
14904W        W31088   1.780   4.883  13.817 -0.0420 -0.1178 -0.0198
14905W        W31089   1.055  15.901  15.467 -0.1490 -0.0030  0.4015
14906W        W31090  17.081   1.368   0.985 -0.0849  0.0819 -0.0983
14907W        W31091   0.287   1.194   0.353 -0.2354  0.0195  0.0360
14908W        W31092   4.530  15.001   4.109  0.2368 -0.1217  0.1572
14909W        W31093  17.106   3.744  10.507 -0.1217 -0.1660 -0.2819
14910W        W31094  12.763  10.104   5.561  0.1220  0.1142 -0.0757
14911W        W31095   6.046  16.268  12.668 -0.1060 -0.3839 -0.0347
14912W        W31096  11.245  11.289  14.198 -0.0762 -0.2130 -0.0151
14913W        W31097   1.430  16.669  15.670  0.2512  0.0095 -0.0759
14914W        W31098  17.436  16.040  14.526 -0.0832 -0.1195  0.0908
14915W        W31099  16.150  11.317   5.780  0.2528 -0.1061  0.0343
14916W        W31100  13.098  11.889  12.930 -0.1308 -0.3898  0.0786
14917W        W31101   3.543  11.649  15.120 -0.0592  0.2295 -0.0448
14918W        W31102  14.667  13.406   2.248 -0.1260  0.1653 -0.1665
14919W        W31103   8.658   5.374   0.517  0.0083  0.2157  0.1307
14920W        W31104   4.501  10.844  12.065 -0.0533  0.0060  0.0292
14921W        W31105   4.022  15.545  14.097  0.0285 -0.0896  0.0663
14922W        W31106  17.763  16.755   5.302 -0.3602 -0.0068  0.3258
14923W        W31107   1.842   7.680  16.539  0.0562 -0.1232  0.0857
14924W        W31108   3.676  10.666   0.055 -0.4030  0.0163 -0.4898
14925W        W31109  14.191  12.935  13.943 -0.2312 -0.1926 -0.3615
14926W        W31110  12.441  17.340   4.334  0.0061  0.0872  0.0582
14927W        W31111  17.122   5.376   3.883  0.3183  0.1783 -0.1011
14928W        W31112   9.790   2.853  15.331 -0.1862  0.1126 -0.0408
14929W        W31113   4.484  14.528   3.323 -0.0016 -0.0014 -0.1452
14930W        W31114  11.408   4.097  11.469 -0.4275  0.0984 -0.1249
14931W        W31115  17.286  14.297  14.853 -0.0513 -0.0818  0.3443
14932W        W31116   6.810   2.794  14.602 -0.0101 -0.2686  0.0760
14933W        W31117  13.978   7.462  11.886 -0.1202 -0.0395 -0.0921
14934W        W31118  17.450  10.152  15.167  0.0903  0.2004  0.1376
14935W        W31119   5.991   0.076  13.193  0.0544 -0.1288  0.1819
14936W        W31120   4.095  13.944   5.306 -0.1616 -0.1784 -0.1929
14937W        W31121  11.385   7.168   6.094 -0.2051  0.1277 -0.1375
14938W        W31122   8.245  16.840   3.304  0.0503 -0.0476 -0.0004
14939W        W31123  10.152  14.355  14.024  0.0947  0.3215  0.2319
14940W        W31124  14.652  11.187   1.185  0.0654 -0.4209  0.1164
14941W        W31125   4.573  14.034  12.774  0.0607 -0.0441 -0.0008
14942W        W31126   0.502  10.045  14.527  0.1304  0.2188 -0.0471
14943W        W31127   0.446  11.731   4.930 -0.2274  0.1533  0.3352
14944W        W31128  10.552  12.046   3.159 -0.4348 -0.0372  0.0495
14945W        W31129   8.991  12.489  13.580  0.0591 -0.2672  0.0163
14946W        W31130   3.059  10.249   0.908  0.0596 -0.0167 -0.1808
14947W        W31131   2.467   8.627   5.375  0.0520  0.2600 -0.2723
14948W        W31132  10.683  15.223  11.258  0.3411  0.2335  0.2534
14949W        W31133   1.623   5.746   1.847 -0.0474 -0.2550  0.0657
14950W        W31134   4.359   1.345  14.444 -0.0795  0.2928  0.1411
14951W        W31135   0.907  11.976   2.171  0.0627 -0.0578  0.0658
14952W        W31136  12.228  13.732  11.366  0.0924 -0.0225  0.0972
14953W        W31137  11.111   8.396  14.991  0.4201 -0.2219 -0.4496
14954W        W31138  11.382   8.003   4.495  0.0607  0.1712 -0.1459
14955W        W31139  11.070  15.535  13.788 -0.0580 -0.1402  0.1604
14956W        W31140   4.324  16.699  12.559  0.0764  0.1370  0.0910
14957W        W31141  13.717  10.335   4.612 -0.2663 -0.0310 -0.1742
14958W        W31142  17.630  14.784   1.219 -0.0390 -0.0084 -0.2716
14959W        W31143   7.604  13.118   3.292  0.3858  0.0479 -0.1359
14960W        W31144  14.558  17.963   2.782 -0.2079  0.0829  0.1406
14961W        W31145  15.532  17.947   2.205 -0.1562  0.0427  0.0288
14962W        W31146  13.092   0.891  12.694 -0.0095 -0.3913  0.0214
14963W        W31147   8.735   2.877  15.956 -0.0840  0.1902  0.0139
14964W        W31148   9.044   0.649   4.397  0.3803 -0.0443 -0.0427
14965W        W31149   1.773  13.061  14.803 -0.0740 -0.4558 -0.2821
14966W        W31150  15.714   7.577  13.025 -0.3280 -0.0681 -0.1940
14967W        W31151  16.983   9.912   4.699 -0.1691  0.1260  0.0625
14968W        W31152   9.045   5.540   3.754  0.1683 -0.1117 -0.1641
14969W        W31153   4.990   4.080  16.417 -0.1301 -0.3841  0.2168
14970W        W31154   5.228  17.967  11.903 -0.1777  0.1432 -0.0013
14971W        W31155  16.907   0.025  14.967  0.2542  0.3010 -0.0797
14972W        W31156  12.099   6.992   2.118 -0.0626  0.0803  0.1909
14973W        W31157  14.351   8.521  11.982 -0.3479  0.1679 -0.1956
14974W        W31158   1.560  16.418   0.018 -0.0187  0.2135 -0.0979
14975W        W31159  15.757   6.772   4.479 -0.0795  0.1854 -0.2111
14976W        W31160   3.722  16.526   0.409  0.1398  0.1108 -0.0911
14977W        W31161   9.276   7.462   6.053 -0.2446  0.1029 -0.0834
14978W        W31162   3.915   2.797  14.034  0.1691 -0.0084 -0.1970
14979W        W31163   6.600  15.252  12.482 -0.3261 -0.0077  0.2325
14980W        W31164  10.710   8.814  14.192  0.1631  0.2209  0.1580
14981W        W31165  12.284   4.357  15.618 -0.0354  0.0413 -0.2226
14982W        W31166   1.075  15.680   5.327  0.2961  0.3523  0.2226
14983W        W31167   4.287   6.705  14.697  0.2885 -0.4467 -0.1115
14984W        W31168   1.045   6.445   0.811 -0.0290  0.0535  0.2325
14985W        W31169   2.564  13.627  11.869  0.0503 -0.0311  0.1826
14986W        W31170   7.632   0.556  11.655  0.1067  0.0149  0.2476
14987W        W31171   3.130  10.795  13.952  0.0017  0.0535 -0.1563
14988W        W31172   9.500  18.087  11.922 -0.1369 -0.2009 -0.1708
14989W        W31173   4.988   8.087  15.105 -0.0710  0.0706 -0.1578
14990W        W31174  15.280  10.077  12.586 -0.1107 -0.0364  0.0848
14991W        W31175   6.163  15.919  16.441 -0.0303  0.1487 -0.0321
14992W        W31176  15.833  14.098  16.577  0.0459  0.2726 -0.1069
14993W        W31177  16.732   2.646   2.054 -0.0439 -0.2202  0.2623
14994W        W31178  16.782  14.151  15.490  0.0047  0.2334  0.0815
14995W        W31179   8.580  13.708  15.252 -0.2497  0.1517 -0.1145
14996W        W31180  17.758  13.453   2.176  0.0474  0.1264 -0.0466
14997W        W31181   1.696   8.288   2.911 -0.2702  0.4678 -0.2547
14998W        W31182   5.620  14.874  16.671 -0.0227 -0.0696 -0.1465
14999W        W31183   6.909   4.644   4.672 -0.0342 -0.1577  0.0030
15000W        W31184  16.057   1.852   2.824 -0.2534 -0.2685  0.0828
15001W        W31185   4.237   1.667   4.238 -0.4528 -0.1895 -0.2770
15002W        W31186   0.896  14.608  15.519  0.1136  0.0721  0.2210
15003W        W31187   5.560  16.059   1.180 -0.1822  0.0966  0.1360
15004W        W31188  16.719   2.760  12.860  0.0815  0.3615 -0.0208
15005W        W31189  12.993  16.670  15.848  0.0915 -0.1412 -0.0125
15006W        W31190   3.426   0.477  12.825  0.0795 -0.0236 -0.1674
15007W        W31191  10.161   8.128   1.747 -0.0758 -0.2723  0.0710
15008W        W31192   3.432   4.728   1.299 -0.0019 -0.1511 -0.5166
15009W        W31193   4.684   4.332   5.144  0.0268  0.1274  0.0065
15010W        W31194   8.056  14.954   5.670  0.2815 -0.2471 -0.0079
15011W        W31195   7.133  18.086   4.099 -0.1063 -0.0809 -0.2242
15012W        W31196   2.364  13.779   2.580  0.0444  0.1551  0.0498
15013W        W31197  13.935  17.463   2.492  0.0664  0.2000 -0.0685
15014W        W31198   4.424   9.433   0.563 -0.0768 -0.1273 -0.0326
15015W        W31199  15.158   4.762  16.208  0.1598 -0.2394  0.1104
15016W        W31200  17.428   5.326   4.725 -0.0555  0.1932 -0.1688
15017W        W31201  16.072  12.011   3.435 -0.1650  0.1081  0.1204
15018W        W31202   1.082  12.668   1.901  0.1594  0.2098  0.0718
15019W        W31203   4.603  16.339  11.782 -0.0463 -0.1576 -0.2863
15020W        W31204   0.613  13.261  14.405 -0.3627 -0.0092 -0.0667
15021W        W31205  14.828   0.394  15.651 -0.1260  0.2336 -0.3514
15022W        W31206   0.008   8.400  16.595  0.2216  0.3385  0.0895
15023W        W31207  17.029  16.702  13.506  0.0046 -0.1671 -0.0235
15024W        W31208  13.758   1.438   4.036 -0.1456 -0.3471 -0.0345
15025W        W31209   0.611   3.379  10.567  0.0823 -0.1637 -0.0832
15026W        W31210  16.259  17.483   3.458  0.0207  0.0286  0.2184
15027W        W31211  12.082   2.454   3.128  0.1034 -0.1450 -0.3157
15028W        W31212   2.097  14.004  16.240 -0.0428  0.0328 -0.1005
15029W        W31213   4.162  15.482   4.046  0.0689  0.0881  0.3182
15030W        W31214  17.601   0.921  13.060 -0.3960 -0.4804  0.1479
15031W        W31215   6.458   5.738  11.667 -0.0727  0.0462  0.1163
15032W        W31216   6.272   9.440  11.945 -0.0660  0.1883 -0.3119
15033W        W31217   5.235  16.354  15.439  0.0749  0.0320  0.1610
15034W        W31218  17.213   1.572   0.056  0.0494  0.1475 -0.0119
15035W        W31219   8.012   1.447  14.004 -0.0066 -0.0179 -0.1786
15036W        W31220   8.967  16.937   1.552 -0.1519 -0.0818 -0.1236
15037W        W31221   9.841  11.154   1.187  0.2626 -0.0146  0.1124
15038W        W31222   8.870   8.522  12.526  0.3247  0.0308  0.1546
15039W        W31223   3.451   0.768   4.782  0.0496  0.0830 -0.0127
15040W        W31224  16.712   3.854  13.613  0.1040 -0.0657  0.2477
15041W        W31225   1.445  16.057   1.580  0.1995 -0.0059  0.1588
15042W        W31226   3.502   2.360   4.322  0.1160 -0.3620 -0.1424
15043W        W31227   0.312  11.195   5.276  0.0299  0.1846  0.1439
15044W        W31228   4.319   4.271   0.460  0.0339  0.0073  0.1804
15045W        W31229  11.980  11.537  12.296 -0.0926  0.0115 -0.0700
15046W        W31230   4.769  15.849  14.189 -0.1371 -0.0262 -0.2402
15047W        W31231  17.495   1.146  16.537  0.0432 -0.0179  0.0421
15048W        W31232   6.477  13.987   5.018  0.2124  0.3616  0.1641
15049W        W31233  13.501  17.537  15.833 -0.2809 -0.2258  0.2289
15050W        W31234   9.614   9.723  16.471  0.0139 -0.0917  0.0797
15051W        W31235   1.280  11.002   3.815 -0.2719 -0.0039  0.1909
15052W        W31236   1.403  16.245   4.518 -0.0503  0.3383 -0.0165
15053W        W31237   6.564  14.068   2.594  0.0779 -0.2741  0.1322
15054W        W31238   2.459   4.632  13.411  0.1492  0.1497  0.0016
15055W        W31239  14.841   3.296   1.023 -0.1486  0.1199 -0.2418
15056W        W31240   0.606   7.434   0.096 -0.1136 -0.2276 -0.2229
15057W        W31241   0.450   4.193  16.519  0.1748  0.1350  0.1777
15058W        W31242  15.300   7.011  11.935 -0.0807 -0.0410 -0.0696
15059W        W31243   6.535   5.782   6.051  0.1381  0.1509 -0.2223
15060W        W31244  10.779  15.444  15.118 -0.0751  0.1755  0.1851
15061W        W31245   0.384   3.325   2.403  0.1986 -0.0258  0.1401
15062W        W31246  14.739   3.367   4.714  0.0263  0.1574  0.4420
15063W        W31247   5.094  15.383   1.233 -0.0245  0.0989  0.0422
15064W        W31248  10.399   9.970   4.478 -0.2084  0.2133  0.0391
15065W        W31249   5.350  13.810   4.644  0.0147 -0.1255  0.0179
15066W        W31250   3.922  11.498   6.597 -0.2183 -0.2160 -0.0325
15067W        W31251   6.925   8.979   1.736  0.1118  0.1453 -0.0595
15068W        W31252  12.917   3.053  15.468  0.0694 -0.2316  0.0727
15069W        W31253   5.203   5.172  14.724  0.0596 -0.1088 -0.1317
15070W        W31254   9.177  16.983   5.016 -0.0441  0.1734 -0.3487
15071W        W31255   0.226  10.896  12.606 -0.1762 -0.1016 -0.3380
15072W        W31256   5.682   8.850   4.871 -0.0769 -0.1599  0.3223
15073W        W31257  11.340   1.384   2.206  0.1102  0.0744  0.1096
15074W        W31258   2.386   3.316  15.435  0.0455  0.0555 -0.3328
15075W        W31259  16.495  17.784  10.291 -0.0021 -0.0873 -0.1938
15076W        W31260   8.249   7.347  14.426  0.1524 -0.0282  0.0804
15077W        W31261   5.682  10.962   0.682 -0.0593 -0.0399  0.4124
15078W        W31262  10.210   5.645   2.409  0.1215  0.0512 -0.1238
15079W        W31263   6.977  15.812  14.245  0.1272 -0.0477 -0.0205
15080W        W31264   2.250   6.187  13.769 -0.0365  0.1613 -0.0536
15081W        W31265   8.584  10.320  13.029 -0.0702  0.0340  0.0089
15082W        W31266  10.295   2.926  12.403 -0.2233  0.1231 -0.3234
15083W        W31267   9.007  11.922   5.919  0.1412  0.1391  0.2947
15084W        W31268  17.347  10.929   2.921 -0.0018 -0.4156  0.0955
15085W        W31269  11.296   7.487  15.924  0.3002 -0.0461  0.3100
15086W        W31270   4.791   0.429   2.726  0.1778  0.0129 -0.2882
15087W        W31271   4.651  12.341  15.532 -0.1428 -0.1438  0.3623
15088W        W31272   0.331   8.691  11.905  0.2526  0.2466 -0.0118
15089W        W31273   8.358   1.497   1.473 -0.0229  0.1841  0.2093
15090W        W31274   0.325  12.760   4.099  0.1717 -0.0174 -0.2456
15091W        W31275   3.687   7.063   1.498 -0.1648 -0.5230 -0.0673
15092W        W31276  13.780  13.051  15.911 -0.1229  0.0084  0.0046
15093W        W31277  12.380  14.688   5.323 -0.1474  0.0083  0.6539
15094W        W31278   9.448   4.140  14.858 -0.0470  0.0710 -0.3017
15095W        W31279  12.960   0.373   1.887  0.1613 -0.2496 -0.0427
15096W        W31280   5.403  11.350   1.676 -0.1383  0.2623  0.4640
15097W        W31281   9.222  11.863  12.866  0.0435 -0.1421  0.0729
15098W        W31282   0.900   1.688   5.304 -0.0175  0.0307  0.2320
15099W        W31283   5.920   1.155   2.446  0.2050  0.2629  0.4004
15100W        W31284  13.751  14.264  12.329  0.0062  0.1365  0.2014
15101W        W31285   4.241   6.587   0.956 -0.3075  0.1198  0.3727
15102W        W31286   5.152  17.084   5.023  0.0501 -0.0389 -0.1498
15103W        W31287   3.114  15.582   0.731 -0.3219  0.0656  0.0764
15104W        W31288  14.465  15.374   1.880 -0.0075  0.0532 -0.1096
15105W        W31289   7.466   2.869  14.399 -0.1473  0.0487 -0.2670
15106W        W31290   2.983   5.825   0.794  0.2718  0.3671  0.4313
15107W        W31291   8.540   7.458   2.481 -0.2135  0.2684 -0.0371
15108W        W31292  17.023  17.153   2.922  0.3081 -0.0557  0.1210
15109W        W31293   3.292  14.989  13.160  0.3234  0.0628 -0.4896
15110W        W31294  14.640   0.495  12.431  0.1474  0.1790 -0.0175
15111W        W31295   6.802  17.565   3.174  0.0230 -0.0010 -0.1349
15112W        W31296   7.824  15.748  12.086  0.1935 -0.3157  0.0989
15113W        W31297   3.000   1.538  11.530  0.0204 -0.0697 -0.1356
15114W        W31298  13.227   1.476  12.933 -0.1595  0.1723  0.1355
15115W        W31299  11.937   9.271  14.749  0.0177  0.0932 -0.1637
15116W        W31300   4.895   4.059  15.155 -0.0367 -0.1495  0.2533
15117W        W31301  14.884  17.478  11.999  0.1019 -0.0763 -0.3058
15118W        W31302   7.140  15.983   1.972  0.1601  0.0380 -0.3810
15119W        W31303   9.448  17.037   3.648  0.1170 -0.0715  0.0344
15120W        W31304  12.590  16.106   1.918  0.4109  0.0636 -0.2181
15121W        W31305  13.519   9.256   5.974  0.0799 -0.4654  0.1245
15122W        W31306  14.707   5.690  10.916 -0.1206 -0.0070 -0.0054
15123W        W31307  10.451  14.022  12.189  0.1840 -0.3007  0.3494
15124W        W31308  10.271   9.837  12.296 -0.1335  0.1265 -0.0006
15125W        W31309  17.379  17.595  14.486  0.0055 -0.1315  0.2423
15126W        W31310  13.600  12.719   0.203  0.1051  0.1528 -0.0321
15127W        W31311   3.567   4.997   3.456 -0.1980 -0.0299  0.0282
15128W        W31312   5.625   9.334  16.656 -0.2720  0.0871  0.0040
15129W        W31313   9.250   8.049   3.800 -0.0010 -0.1208  0.0705
15130W        W31314  13.050   9.027   1.131  0.2134  0.0780  0.3132
15131W        W31315   3.367  12.889   1.775  0.0700  0.0214  0.1069
15132W        W31316   0.160   8.620   1.387  0.2754  0.1273 -0.3451
15133W        W31317   3.005   1.546  12.562 -0.2403  0.0227  0.1667
15134W        W31318  15.182   3.719   0.861 -0.0378  0.1739 -0.1918
15135W        W31319  13.873   9.708  13.864  0.1328  0.0295  0.1287
15136W        W31320   6.471  13.201   1.561 -0.1787 -0.0401 -0.1673
15137W        W31321  11.623  13.887  14.222 -0.0396 -0.1889  0.0256
15138W        W31322   4.906   3.594   5.881  0.2325  0.0324 -0.0834
15139W        W31323   0.480  17.080   3.712 -0.0393 -0.2486  0.3030
15140W        W31324  14.530  16.292   5.019 -0.2795  0.0616 -0.1847
15141W        W31325   8.104   2.150  15.563  0.1357  0.2202  0.1028
15142W        W31326  11.574   3.623   0.852 -0.1877 -0.0764 -0.0148
15143W        W31327   5.624   4.552  13.348  0.2402  0.0077  0.2419
15144W        W31328  11.808   1.106  13.619  0.0126  0.0471  0.0228
15145W        W31329   1.027   1.674  14.857  0.0083  0.0676 -0.1090
15146W        W31330   5.772  17.388   4.229  0.1828 -0.3213  0.0750
15147W        W31331  12.865   3.114   4.785  0.0626  0.5077  0.1386
15148W        W31332  17.083   2.920   4.073  0.1558 -0.1279  0.0332
15149W        W31333  13.884   4.203  16.519  0.1973  0.1249 -0.1905
15150W        W31334  18.009   0.010  13.961  0.2403  0.2141  0.1332
15151W        W31335  14.407  15.021   4.269  0.0572  0.1585 -0.0321
15152W        W31336   9.551  14.195  11.886 -0.1249 -0.0170 -0.1251
15153W        W31337  16.587   4.502   4.314 -0.0179  0.1960 -0.1329
15154W        W31338  11.537  15.065   5.154 -0.1200  0.0562  0.0164
15155W        W31339  17.335  10.485  13.814  0.0689 -0.1390  0.1971
15156W        W31340  16.076   2.848  12.498 -0.2649  0.0798  0.0255
15157W        W31341   6.643   6.987  13.792  0.1874  0.1397  0.3165
15158W        W31342   2.844  15.523  12.559 -0.1453  0.0402 -0.1136
15159W        W31343  10.913   6.642  15.894 -0.3157 -0.0207 -0.0771
15160W        W31344  11.848  11.701   0.242 -0.0874 -0.3546 -0.2172
15161W        W31345   5.004   4.161   3.438  0.2007 -0.1185  0.0659
15162W        W31346   4.667  15.098   1.224  0.5839  0.0997  0.1374
15163W        W31347   6.513   8.316   6.150 -0.1684 -0.0294 -0.1550
15164W        W31348   0.419  12.669   4.612  0.1847  0.0031 -0.1782
15165W        W31349   2.866   1.879   3.225  0.1855  0.0402 -0.4356
15166W        W31350  15.047   0.530   5.678 -0.3004  0.3094  0.2158
15167W        W31351   1.721  10.950   0.573 -0.0696 -0.1633  0.2830
15168W        W31352   7.328   6.567  12.665 -0.3835  0.3237  0.0767
15169W        W31353   3.714   7.126  12.162  0.1172  0.0020 -0.2997
15170W        W31354  15.112   8.175  13.386  0.0977 -0.1577 -0.0008
15171W        W31355   5.685  14.450   0.170 -0.0078  0.0075 -0.0942
15172W        W31356   9.015  16.853  14.680 -0.0663 -0.3518  0.3059
15173W        W31357   9.834  13.275   1.775 -0.2474  0.2342  0.1959
15174W        W31358   6.441  11.276   3.864  0.0596 -0.2982  0.1463
15175W        W31359   9.468   9.704  13.762  0.1987  0.0440 -0.0703
15176W        W31360  10.512   1.595  13.636  0.1095 -0.1573  0.1848
15177W        W31361  16.285  15.574  11.145 -0.1248  0.0723 -0.2958
15178W        W31362  13.214  16.359   5.458  0.1639 -0.3297 -0.3579
15179W        W31363  12.238  11.537   4.086 -0.0438 -0.3016 -0.1089
15180W        W31364   6.903  10.666  16.263  0.0243 -0.1897  0.2882
15181W        W31365   1.075  16.768   1.167  0.1128 -0.2555 -0.0372
15182W        W31366   3.214  17.043   1.206  0.4794 -0.3732  0.2170
15183W        W31367   7.785   6.754  13.936  0.0954  0.4246  0.1257
15184W        W31368   3.797   0.711   5.181  0.0287 -0.1982  0.0276
15185W        W31369  10.060  17.260   2.945  0.1047  0.1293  0.0624
15186W        W31370  12.526   2.036  15.837  0.2209 -0.0893 -0.1918
15187W        W31371  17.771   7.255  11.644  0.2926 -0.2124 -0.1478
15188W        W31372  11.211   4.296  14.441  0.1522 -0.1262  0.0283
15189W        W31373   1.809   8.313   3.472  0.2943 -0.0338  0.2494
15190W        W31374  17.311  11.453  12.808  0.1014  0.0526 -0.0503
15191W        W31375   6.498   0.053   1.583 -0.2677 -0.0670  0.0472
15192W        W31376   7.255   8.458  15.442 -0.1314  0.0011  0.0341
15193W        W31377   8.185  16.070  15.447 -0.0420 -0.3769  0.1949
15194W        W31378   2.214  16.321   3.387  0.3388 -0.1780  0.4737
15195W        W31379   3.430   8.781   3.523  0.0056  0.0956  0.0443
15196W        W31380   5.130   6.913  12.127 -0.0699 -0.0346 -0.0112
15197W        W31381   4.007  15.419  11.160  0.0396  0.1355  0.1198
15198W        W31382  16.325  10.472   4.631  0.3233 -0.4121  0.2436
15199W        W31383   3.809   6.063   1.599  0.0155  0.0332 -0.0540
15200W        W31384  12.662  13.978   5.108 -0.2149 -0.0415  0.0903
15201W        W31385  12.487   5.847   0.343  0.1767  0.1317 -0.0006
15202W        W31386   5.677   3.184   2.430 -0.1771  0.1332 -0.0227
15203W        W31387   7.045   7.589  15.093 -0.2801  0.1010 -0.5859
15204W        W31388  13.026  13.745   0.789  0.0474  0.1844  0.0185
15205W        W31389   8.289  11.874  15.303 -0.2632  0.1200  0.1038
15206W        W31390  10.763  16.872  12.802  0.0476  0.0385  0.0222
15207W        W31391   3.097   2.662   2.427 -0.4867 -0.0706 -0.0184
15208W        W31392   6.340  13.581  11.931 -0.2047  0.1467 -0.3018
15209W        W31393   7.439   6.028  12.544  0.1728  0.2749  0.3484
15210W        W31394  16.620  13.572  12.755 -0.1419  0.0335  0.1404
15211W        W31395  13.992   5.957   2.171  0.0807 -0.1227 -0.3173
15212W        W31396   5.079   5.809   4.173  0.1281 -0.1507  0.1780
15213W        W31397   8.826   0.326  11.956 -0.0784 -0.1594 -0.1197
15214W        W31398  15.096   7.068  13.813  0.2104  0.2488 -0.1629
15215W        W31399   9.937   9.761   2.667 -0.0296  0.1071 -0.0767
15216W        W31400  11.823   4.444   2.561 -0.0619 -0.2025 -0.0332
15217W        W31401   8.014  15.191  15.433  0.0344  0.0628 -0.0055
15218W        W31402  12.514   0.655  15.807  0.0039 -0.3036 -0.1281
15219W        W31403  13.904  10.217   1.579  0.2380  0.1474 -0.1265
15220W        W31404   0.806  13.700  14.864 -0.1175  0.0359  0.1280
15221W        W31405   2.505  10.525  15.720  0.0175  0.1267 -0.1585
15222W        W31406   1.503  10.560   3.070  0.2312  0.0239 -0.0970
15223W        W31407  15.411  16.890   3.047  0.1559  0.3320  0.0571
15224W        W31408  13.681   2.428  12.810  0.2786 -0.1228  0.1690
15225W        W31409   0.995  17.082   2.182  0.1712 -0.1176  0.1800
15226W        W31410   2.131   8.651   0.086  0.0811  0.2451 -0.0937
15227W        W31411  15.173  16.294   4.382  0.1143 -0.0675  0.0680
15228W        W31412  17.933   8.169  13.447  0.1480 -0.0048  0.0964
15229W        W31413  15.024   7.855  12.646  0.2685 -0.0568 -0.1827
15230W        W31414  10.407  11.019  12.454  0.1281 -0.0674 -0.0461
15231W        W31415   5.214  11.220  16.327  0.0336 -0.0990 -0.2512
15232W        W31416  17.997   9.355  13.235 -0.0112  0.0394  0.0670
15233W        W31417   1.895  16.068   2.047 -0.1414 -0.2008 -0.0091
15234W        W31418  17.793   9.829   3.336  0.0872 -0.1387 -0.1033
15235W        W31419  13.436   8.897  13.447  0.0137  0.2804  0.2590
15236W        W31420  17.126   2.230   1.079 -0.0704 -0.2632  0.2126
15237W        W31421   5.828   2.011  15.644  0.0477  0.1444 -0.1891
15238W        W31422   5.948   4.622   4.643  0.0109 -0.0922 -0.1190
15239W        W31423   9.259  14.418  15.699  0.0663 -0.0387 -0.0428
15240W        W31424   6.130  13.030   5.029 -0.1712  0.1712  0.3589
15241W        W31425  18.111  16.983  16.493  0.1132  0.0138  0.3091
15242W        W31426   4.340  12.778  16.468 -0.2978 -0.0466  0.2302
15243W        W31427   7.420   8.545   1.356  0.0588 -0.1578 -0.1014
15244W        W31428   5.476  11.066  13.342  0.0526 -0.0677  0.0097
15245W        W31429   0.427  14.638   1.519 -0.1589 -0.0100 -0.2679
15246W        W31430   9.358   7.341  15.767  0.0062  0.3083 -0.2026
15247W        W31431  12.643  15.893   4.067  0.1087  0.1118  0.0931
15248W        W31432   9.653  15.472  12.838 -0.2675  0.2958  0.1079
15249W        W31433  17.252   6.694  14.315  0.1131 -0.0490  0.1098
15250W        W31434   6.815   8.987   6.354 -0.1433 -0.1216 -0.2805
15251W        W31435   5.549  13.386  15.188 -0.1440  0.2745  0.3214
15252W        W31436  10.970  14.734  15.383  0.0481  0.1698  0.0254
15253W        W31437  14.980  11.818   2.129 -0.4441 -0.1678  0.0113
15254W        W31438  10.496  16.447   1.671 -0.0915 -0.0047 -0.0951
15255W        W31439   7.365   2.683   5.853  0.3730  0.0692 -0.0106
15256W        W31440  17.654  14.604  15.095  0.2174  0.1243 -0.1969
15257W        W31441   2.975  14.392   2.697  0.3455  0.0630 -0.2129
15258W        W31442   1.224  10.402  15.171 -0.3347 -0.0728 -0.2370
15259W        W31443  10.945  13.132   2.340 -0.2608  0.1259  0.0574
15260W        W31444   4.481   1.993   0.702  0.2019  0.3165  0.2244
15261W        W31445  16.531  13.547  16.148  0.1469 -0.2395  0.0052
15262W        W31446   3.022  10.235   1.992  0.3675 -0.0839 -0.0011
15263W        W31447   2.418   8.632   0.567  0.0681  0.4185 -0.0952
15264W        W31448   0.777   0.259  13.092  0.0448 -0.1628  0.2468
15265W        W31449   5.968   8.710   3.913  0.3685  0.1687 -0.4023
15266W        W31450   7.489  12.367   4.603 -0.2315 -0.0033 -0.2421
15267W        W31451   2.661   7.731  10.943  0.0954  0.2439  0.0868
15268W        W31452  17.011   9.773   0.976 -0.1493 -0.0673  0.1225
15269W        W31453   3.412  15.331   2.963  0.2531 -0.0277 -0.0344
15270W        W31454  15.532   3.370   1.442  0.0390  0.1509 -0.0968
15271W        W31455   4.087  13.378  14.810  0.0672 -0.0457 -0.3485
15272W        W31456  12.859  16.283   3.820 -0.1987  0.2507  0.1152
15273W        W31457   1.334  13.397  12.649 -0.1131 -0.1246  0.0426
15274W        W31458   8.014  12.156  15.564 -0.2017 -0.2662 -0.0528
15275W        W31459  11.448  11.148   5.540  0.1850  0.1613 -0.0874
15276W        W31460   1.410  16.281   0.673  0.0105 -0.2142  0.1526
15277W        W31461  12.943  14.851  15.364  0.0428  0.1433 -0.1015
15278W        W31462   1.319   3.505  11.212 -0.0908 -0.2277 -0.1814
15279W        W31463  17.688   4.478  15.151 -0.0468 -0.0730  0.0861
15280W        W31464  12.615   1.224   4.542  0.0156 -0.0412 -0.2848
15281W        W31465  14.045  16.507   5.958 -0.0537  0.0510 -0.2407
15282W        W31466   4.499  10.129   0.930  0.0486  0.3003  0.1525
15283W        W31467  13.330   0.149   2.823  0.1508 -0.4537 -0.0688
15284W        W31468  15.001   7.090   4.072 -0.1970 -0.1798 -0.1582
15285W        W31469   9.303   3.526  15.863  0.0737 -0.1952 -0.1919
15286W        W31470   8.178   4.637   3.991 -0.2174 -0.2405 -0.0778
15287W        W31471  16.753   8.405  13.120  0.0990  0.2724  0.1576
15288W        W31472  14.315  16.025   3.993  0.0989  0.2605 -0.0876
15289W        W31473   2.528  18.087   2.986 -0.1959  0.3900 -0.1995
15290W        W31474   4.861   5.385   2.178  0.0607 -0.1785 -0.0363
15291W        W31475  11.375  16.945   2.105  0.1168  0.1233 -0.1890
15292W        W31476  16.291   0.784   2.036 -0.1426 -0.3500 -0.1556
15293W        W31477   3.539   3.124  15.448 -0.1447  0.0598 -0.5469
15294W        W31478  11.999  10.215   3.844  0.1397  0.1798  0.0464
15295W        W31479  15.245  11.029   1.235  0.2264  0.2137  0.3675
15296W        W31480   3.215  18.054  15.814  0.4581 -0.0241 -0.1788
15297W        W31481   8.020   9.108   0.008  0.4215 -0.1980 -0.1208
15298W        W31482  17.813   9.331  16.271  0.3182 -0.1661  0.1742
15299W        W31483  15.676  12.232  16.196 -0.0879  0.1136  0.0198
15300W        W31484   0.668   1.229  13.398  0.0265 -0.5126  0.0721
15301W        W31485   0.774   1.803   2.920 -0.0786  0.2123 -0.0822
15302W        W31486   6.525   9.700  13.964 -0.1105  0.0849 -0.3435
15303W        W31487   7.519   1.600   1.580 -0.3849  0.1811 -0.0369
15304W        W31488  12.769  17.479  16.016  0.1715 -0.4287  0.2039
15305W        W31489   8.030   0.170   5.649  0.3262  0.0299  0.3704
15306W        W31490   7.810   9.655   3.473 -0.0507 -0.0359  0.2863
15307W        W31491   6.771   7.536  10.750 -0.0584  0.2692  0.0257
15308W        W31492   4.690  12.245   1.230 -0.1058 -0.1618 -0.1353
15309W        W31493   9.310   2.602  15.682  0.0098 -0.1043  0.1897
15310W        W31494   1.994  17.526   2.834 -0.0682 -0.1712 -0.0873
15311W        W31495  12.586  17.482   0.900  0.0692  0.4010  0.1565
15312W        W31496   6.461   2.841  15.232 -0.1870 -0.0826 -0.3852
15313W        W31497  16.347  12.601  14.981 -0.0408 -0.1848 -0.1617
15314W        W31498   2.018  14.188   2.442 -0.1379  0.0327 -0.1552
15315W        W31499   7.650  10.614  16.674 -0.0779  0.0721 -0.1996
15316W        W31500   5.136  13.763  12.241  0.0051 -0.0894  0.1135
15317W        W31501   7.565  15.830   2.506  0.1626  0.1168  0.0669
15318W        W31502   3.734   6.492  12.985 -0.2659 -0.2755  0.2055
15319W        W31503   6.573   8.521  12.435  0.1041  0.3145  0.0979
15320W        W31504   9.991  12.376   3.944  0.3429 -0.0079  0.2703
15321W        W31505  14.235   6.803  12.750  0.0170 -0.2479  0.4426
15322W        W31506   1.077   6.732  15.883  0.0164 -0.3025  0.0983
15323W        W31507   4.538  16.840   1.465  0.0794 -0.2954  0.2431
15324W        W31508   6.993  14.676   1.722 -0.0220 -0.3953  0.0821
15325W        W31509   7.770  14.553   3.240  0.0211  0.0908  0.2832
15326W        W31510   6.834   8.389  13.476 -0.1554 -0.0749  0.0737
15327W        W31511   3.330  12.212   2.986 -0.1130 -0.1285  0.0288
15328W        W31512  12.934   2.878  12.453  0.0075 -0.1365 -0.0058
15329W        W31513  14.359   7.835   4.484  0.0208 -0.1154 -0.0400
15330W        W31514   0.412  12.220   4.779  0.0916  0.3819 -0.0790
15331W        W31515  12.288   6.280  15.581 -0.0744  0.0194  0.0742
15332W        W31516   8.911  11.834   1.809 -0.1405  0.0966  0.0875
15333W        W31517  11.005   4.010  15.376  0.1485 -0.1860 -0.0946
15334W        W31518  15.801  11.532   5.034 -0.0149  0.0813 -0.0638
15335W        W31519   3.835  14.158  13.497 -0.2313  0.1363 -0.1035
15336W        W31520   6.850  12.968  14.547  0.1818  0.2197  0.0182
15337W        W31521  11.521   6.892   1.896 -0.0126  0.1824  0.0541
15338W        W31522  10.399   2.437   2.428 -0.1711  0.0259  0.0127
15339W        W31523   0.174  12.082  12.352 -0.2221 -0.2485  0.0153
15340W        W31524   8.700  14.534   3.250  0.2885  0.2813  0.3732
15341W        W31525  16.365  16.631   1.257  0.0840  0.4259 -0.0560
15342W        W31526  13.377   5.779  11.264 -0.1158  0.1186 -0.0185
15343W        W31527   1.708  10.224   0.548 -0.0365  0.3234 -0.1110
15344W        W31528  15.639  13.696   5.512 -0.2377  0.1106  0.0546
15345W        W31529  17.706  16.869  13.988 -0.0382  0.1337 -0.1443
15346W        W31530   3.772  10.920  16.319 -0.2792 -0.0835 -0.2251
15347W        W31531  10.765   5.666  11.995 -0.1776  0.1416  0.1114
15348W        W31532   7.410   4.354   5.296  0.1360  0.0475 -0.2758
15349W        W31533  12.823   5.413  16.327 -0.0888 -0.2021 -0.2211
15350W        W31534   5.351   5.359   0.987 -0.0980  0.0634  0.0979
15351W        W31535   7.486   2.497  12.575 -0.2804  0.0474  0.1298
15352W        W31536   9.950   7.897  14.667 -0.2321  0.0130  0.0495
15353W        W31537  10.642   0.327   4.024  0.0315 -0.0970  0.1679
15354W        W31538   8.131  16.650   1.622 -0.1358  0.2648  0.2143
15355W        W31539  11.122  10.112  14.482  0.1158 -0.0911 -0.2927
15356W        W31540   9.769   8.541   3.084 -0.2505  0.4089 -0.2380
15357W        W31541   3.428   0.520   6.172  0.0356  0.1554 -0.0483
15358W        W31542   7.923  17.283   4.867  0.0504  0.0990  0.1006
15359W        W31543   0.277   5.377  13.641  0.1394  0.1010 -0.3162
15360W        W31544   7.250  12.599   2.332 -0.0784  0.0628 -0.0622
15361W        W31545   4.609  10.514   3.486  0.0834  0.0781 -0.0410
15362W        W31546   7.038   5.093   1.113 -0.2851  0.1711 -0.0368
15363W        W31547   5.039   7.935   0.502  0.3389 -0.1412 -0.0034
15364W        W31548  12.916   8.827   3.303  0.1147  0.0001 -0.3386
15365W        W31549  15.288  12.592  15.231 -0.1210  0.1591  0.1271
15366W        W31550  16.542   3.391   5.528 -0.0921  0.0227  0.1760
15367W        W31551   6.033  14.323   4.829 -0.3733 -0.1495  0.0595
15368W        W31552  17.006  15.777  12.313  0.0733 -0.1691  0.2039
15369W        W31553   8.772   3.110   0.559 -0.2106 -0.3065  0.0145
15370W        W31554  11.660  11.996   4.459  0.0447  0.1159  0.0997
15371W        W31555   6.973  16.070  15.960  0.0286  0.1483  0.0902
15372W        W31556  16.425  10.361   2.616  0.2045  0.2063 -0.0658
15373W        W31557   0.009  10.814   2.612 -0.0602 -0.1446  0.1350
15374W        W31558  12.826  13.415   1.721  0.0978  0.4662 -0.1121
15375W        W31559  11.241  14.346  15.459 -0.2608  0.0241 -0.0028
15376W        W31560   9.877   9.614   3.149 -0.1660  0.1294  0.1202
15377W        W31561   0.690   0.468   1.060  0.1309  0.0802  0.2870
15378W        W31562   2.229   9.595   3.679 -0.0422 -0.2289  0.2754
15379W        W31563   6.782  15.111  11.638 -0.1640  0.0352  0.0962
15380W        W31564  17.902   7.449   0.133  0.1272  0.4254  0.1749
15381W        W31565   2.860   7.586   4.231 -0.0686 -0.2603  0.1589
15382W        W31566   2.900   3.408   1.465  0.2764  0.3089  0.0469
15383W        W31567   5.085   7.351  12.320 -0.1230 -0.1200 -0.2007
15384W        W31568   7.887  15.356   1.727 -0.2808 -0.0221  0.0385
15385W        W31569   1.924   4.440   2.998 -0.2310  0.0440 -0.1066
15386W        W31570  11.644  17.794  16.668  0.1655 -0.0618  0.1683
15387W        W31571   4.566   4.972  14.138  0.2257  0.0741 -0.0494
15388W        W31572   4.699  10.254  12.498 -0.1700  0.1734  0.0858
15389W        W31573  13.593   2.051  12.412 -0.1242  0.1082 -0.0965
15390W        W31574   0.375   7.998  14.111  0.2331  0.1745 -0.0916
15391W        W31575   3.607  16.851   0.776  0.1870 -0.2505 -0.1389
15392W        W31576   2.120   2.903  13.798  0.1794  0.0293 -0.0453
15393W        W31577   7.264  17.839   5.821  0.0405 -0.1600  0.0743
15394W        W31578  10.956   4.111   5.078 -0.2257 -0.2196  0.1928
15395W        W31579  10.017   4.805   4.611 -0.0878  0.1645 -0.1080
15396W        W31580   0.782   0.024   5.108  0.0201  0.1091 -0.4110
15397W        W31581   6.513  18.148   0.273  0.1405 -0.5484 -0.0381
15398W        W31582   0.865  13.575  12.493 -0.2638 -0.1066  0.1730
15399W        W31583   0.903  10.223   4.446  0.0573  0.0703 -0.0207
15400W        W31584   5.823   8.151   4.198 -0.2948  0.0009 -0.4115
15401W        W31585   1.705  11.841   3.534 -0.0912 -0.1874  0.0324
15402W        W31586  12.711   2.250  13.443  0.0890  0.0090 -0.0301
15403W        W31587   9.352  17.135  13.768 -0.1134  0.0584 -0.1257
15404W        W31588   4.839  12.608  14.554  0.2455  0.0878 -0.0821
15405W        W31589  13.603  15.303  13.204  0.0750 -0.3115 -0.0003
15406W        W31590   6.149  17.052   5.685  0.1029  0.2276  0.0362
15407W        W31591   6.834  14.184  15.367 -0.2873 -0.1817  0.1104
15408W        W31592  13.917   1.048   2.380 -0.2777 -0.1151 -0.0954
15409W        W31593  15.570   6.308   0.302 -0.1924 -0.1450  0.1731
15410W        W31594  13.276   9.161  13.058  0.0835  0.1196  0.0904
15411W        W31595  12.578   7.304  15.909 -0.0098 -0.0563  0.0164
15412W        W31596  16.850   3.769   4.669 -0.1168  0.1820 -0.1829
15413W        W31597  13.848   1.881  13.001 -0.0974 -0.2246  0.0101
15414W        W31598   9.548   8.279   2.423  0.2695  0.0354  0.1515
15415W        W31599   7.594  15.696   2.021  0.0297  0.0721  0.3921
15416W        W31600   5.438  10.331   6.495  0.1172  0.0076  0.1255
15417W        W31601   3.751   7.011  15.924  0.0566  0.2058  0.2629
15418W        W31602  14.082   6.348   4.926  0.2420  0.1465 -0.2177
15419W        W31603  10.441  10.858  13.569  0.2520  0.1365 -0.0471
15420W        W31604   4.302  12.192  15.986  0.1834 -0.3493  0.0839
15421W        W31605   1.097   1.081  16.618 -0.1329  0.1339 -0.1982
15422W        W31606  15.265  16.903  15.896  0.4529  0.0568  0.1496
15423W        W31607   1.043  13.299  14.993  0.1603  0.0440  0.3271
15424W        W31608   6.670  13.379   5.726 -0.1571 -0.0296 -0.1038
15425W        W31609  17.625   2.015   5.707  0.1693  0.2229  0.2532
15426W        W31610  14.459  11.059   1.614 -0.2181  0.1378 -0.2577
15427W        W31611   1.697   3.048   1.317 -0.1583 -0.2773 -0.0172
15428W        W31612  18.021   8.228  15.292  0.0802 -0.3643  0.0924
15429W        W31613  11.995  17.289   4.201  0.0110  0.0620  0.1009
15430W        W31614   5.919  11.786   5.294  0.0478 -0.1812 -0.0091
15431W        W31615   3.376   2.452   1.380  0.0137  0.2039 -0.2570
15432W        W31616   0.365  12.085   2.112 -0.0178 -0.3849 -0.0875
15433W        W31617  11.613   6.071  16.365 -0.1773  0.1891  0.1134
15434W        W31618  10.851  11.882   2.422 -0.2436  0.1083  0.2071
15435W        W31619   3.087  14.083  12.891  0.1700 -0.0511 -0.0635
15436W        W31620  16.427   0.503   0.370  0.2119  0.0596  0.0835
15437W        W31621   2.678   3.110  12.775 -0.1170 -0.1440  0.0185
15438W        W31622  17.686   0.526  15.760  0.2214 -0.2832  0.0663
15439W        W31623   9.952   2.448   1.360  0.0781  0.2015  0.1921
15440W        W31624  18.080  13.049   4.898 -0.2211 -0.1788 -0.2613
15441W        W31625   1.354   9.049  13.570  0.0016  0.0469  0.0119
15442W        W31626   0.976   0.009   1.113 -0.1259 -0.3096 -0.1051
15443W        W31627   0.244  14.671   2.524 -0.2349  0.1800 -0.0965
15444W        W31628   5.606   2.893   3.292 -0.2244 -0.0107  0.0494
15445W        W31629   7.288  12.653   3.204  0.1360  0.0428  0.0888
15446W        W31630  17.660  11.885   2.562  0.2078  0.0440  0.0293
15447W        W31631  15.183  11.023   4.673  0.3219  0.2120  0.2563
15448W        W31632   9.810   7.302  15.958  0.0053 -0.1921 -0.1693
15449W        W31633   6.994  16.085  15.460 -0.0015  0.5588 -0.0509
15450W        W31634   1.209  11.564   3.913 -0.3492  0.2254  0.1398
15451W        W31635  11.603   7.460  11.889  0.1264 -0.2796  0.4081
15452W        W31636  10.747  15.936  15.310 -0.2273  0.0901  0.1753
15453W        W31637  17.501  13.953   2.899 -0.0652  0.0552 -0.3662
15454W        W31638  14.975  12.338  12.846  0.2998  0.1219  0.2108
15455W        W31639  16.283   9.447  13.350  0.0326  0.1397 -0.4083
15456W        W31640   5.969  18.004   5.395  0.1725 -0.2037 -0.0130
15457W        W31641  17.488  15.191   0.455  0.3056 -0.2009  0.1568
15458W        W31642   9.428   4.906   5.632 -0.3344  0.0938 -0.1600
15459W        W31643   3.037   2.600  13.742 -0.3015  0.0729  0.0836
15460W        W31644   8.986   2.012  13.811 -0.1737 -0.2798  0.0985
15461W        W31645   8.922   3.139  15.566  0.1729  0.1936  0.3257
15462W        W31646   6.250   5.078  14.431  0.2832 -0.2490  0.2171
15463W        W31647  15.977   0.723  14.838 -0.0011  0.0528 -0.0931
15464W        W31648   8.464   9.131   0.305 -0.0730  0.2422  0.3278
15465W        W31649  15.314  17.946  16.246  0.2057 -0.0347  0.0576
15466W        W31650   0.619   6.531  13.310  0.1226 -0.1127  0.1234
15467W        W31651  14.308  13.973   1.414  0.2200 -0.0554  0.1407
15468W        W31652  16.196  11.256   5.257 -0.1450  0.0132 -0.1533
15469W        W31653  12.448  14.021  11.844  0.0540  0.0120  0.0888
15470W        W31654   1.931   6.012  13.217  0.0920 -0.1597  0.0513
15471W        W31655  18.111  14.205   3.652  0.1323  0.2695  0.0252
15472W        W31656   5.048   4.384   2.407  0.1350  0.1021  0.5193
15473W        W31657   1.204   2.316   4.875  0.2059  0.0625  0.0286
15474W        W31658  11.581  17.327   4.605 -0.2489 -0.0946 -0.3647
15475W        W31659   8.905   0.863  11.788  0.1632 -0.0479 -0.0269
15476W        W31660   1.085   5.623   4.009 -0.2860 -0.0877 -0.1365
15477W        W31661   2.973  13.815  13.295  0.1844 -0.1285 -0.0315
15478W        W31662   4.105   3.134  12.067  0.3266  0.1233 -0.1154
15479W        W31663   2.591  10.364  12.981  0.2692 -0.1452  0.1515
15480W        W31664   6.484  10.274  12.112 -0.0897 -0.3757 -0.0503
15481W        W31665   0.840  14.546   2.028 -0.4053 -0.5057 -0.1274
15482W        W31666   9.616   3.733  15.133  0.1333  0.2377  0.0588
15483W        W31667   6.380   4.641  13.072 -0.0467 -0.2297  0.1162
15484W        W31668  15.134   0.054  12.580  0.0926  0.3109 -0.1962
15485W        W31669  16.729  17.228   3.315 -0.0162  0.0117  0.2913
15486W        W31670   3.779   9.372   0.493  0.0909  0.0553 -0.2868
15487W        W31671  17.477   5.202   2.011 -0.0273 -0.1158 -0.0596
15488W        W31672   9.418  16.394  16.041  0.2663 -0.0496 -0.0290
15489W        W31673  12.686   9.398   4.758  0.0917  0.2095 -0.0467
15490W        W31674   5.903  13.228  15.584  0.1178 -0.2710 -0.0700
15491W        W31675   0.583  16.129  15.499 -0.0417 -0.2458 -0.2850
15492W        W31676   3.125  10.286  13.157  0.0506  0.2668  0.0672
15493W        W31677  10.814  13.856   2.313  0.1530  0.0792 -0.0617
15494W        W31678   8.907  12.052   1.360  0.0868 -0.3553  0.1918
15495W        W31679   9.148   0.100   0.847  0.1881 -0.0776 -0.1995
15496W        W31680   5.132   2.286  16.611  0.0194 -0.2779 -0.2766
15497W        W31681   8.981  10.464  12.682  0.0838 -0.1369 -0.4227
15498W        W31682  16.814  14.833   4.586  0.0565 -0.3658 -0.0887
15499W        W31683   3.766  15.031   1.384  0.2889  0.2286 -0.4196
15500W        W31684   4.131  11.055   4.283 -0.2387  0.3849 -0.1832
15501W        W31685   2.622  13.579   0.908  0.1763  0.0430 -0.1254
15502W        W31686  16.645   5.830   2.749 -0.0795 -0.0987  0.2165
15503W        W31687   7.459  12.955   1.181  0.2264 -0.1586 -0.0271
15504W        W31688  12.661   8.351   4.509  0.1058 -0.5100  0.3346
15505W        W31689   9.432  16.055   0.105 -0.1701 -0.2895  0.0389
15506W        W31690  13.775   9.612   3.131 -0.2023  0.1957 -0.0885
15507W        W31691  12.334  15.468   5.731 -0.0804 -0.0055 -0.0612
15508W        W31692  10.603  13.159  13.309 -0.3615 -0.1047  0.2924
15509W        W31693  16.397   0.860  11.760  0.0698  0.0282  0.1759
15510W        W31694   9.166  14.798  15.334 -0.0417  0.0190 -0.0344
15511W        W31695   7.354   5.103   2.959 -0.0321 -0.2686  0.3733
15512W        W31696  15.350   1.157   1.373  0.0414  0.1196  0.2197
15513W        W31697  13.264   4.112  14.711  0.0153 -0.0874  0.0057
15514W        W31698   7.451   3.096   4.848  0.1183 -0.1677 -0.1073
15515W        W31699   2.811   1.749   2.653  0.1711 -0.2897 -0.2205
15516W        W31700  15.207   7.448   9.678  0.1902  0.3156 -0.1350
15517W        W31701   8.309  13.123   4.324  0.2026 -0.0120  0.3513
15518W        W31702  16.698  11.188   6.603 -0.1986 -0.0023  0.0883
15519W        W31703  17.356   1.424   4.255  0.0447  0.0874 -0.4476
15520W        W31704   3.584   0.545   1.476 -0.2890 -0.2449 -0.3514
15521W        W31705  11.101   0.113   4.146 -0.0732  0.4909  0.0223
15522W        W31706   8.533   9.144   1.207  0.0854 -0.1199  0.1941
15523W        W31707  17.489   8.435   3.209 -0.0274  0.2179  0.2213
15524W        W31708  15.061   9.502   1.076 -0.2666  0.0994  0.0629
15525W        W31709   5.654  13.927   3.611  0.1319 -0.0945  0.0251
15526W        W31710  17.789   8.936  15.142 -0.3394 -0.0096 -0.0603
15527W        W31711  11.361   2.397  14.384 -0.1407 -0.4313 -0.1528
15528W        W31712   9.034  15.181   0.588 -0.0238 -0.6775  0.2186
15529W        W31713   0.350  10.741  14.923 -0.0683  0.1052 -0.1470
15530W        W31714   0.880  11.385  13.352  0.0680 -0.1919 -0.4864
15531W        W31715  11.068  17.914  16.532 -0.0641  0.3662 -0.0528
15532W        W31716  17.305  14.632   3.903  0.2231 -0.0038 -0.0669
15533W        W31717  16.591   3.151  10.960  0.2372  0.0217 -0.0029
15534W        W31718  12.726  10.420  15.904 -0.1103 -0.1363  0.2104
15535W        W31719   4.018   0.707   2.218 -0.3090  0.3800 -0.2058
15536W        W31720  16.316   7.860   2.726  0.0494  0.0341  0.1308
15537W        W31721   8.974   9.442   2.773  0.1192  0.1668 -0.0551
15538W        W31722   6.637   2.559   5.236  0.3642  0.3275 -0.1101
15539W        W31723  12.143  16.418   2.600 -0.1994  0.1936 -0.1036
15540W        W31724   8.270  14.743   0.068 -0.2824 -0.2175  0.1045
15541W        W31725   2.747  12.675  16.578 -0.4660 -0.2498  0.2019
15542W        W31726   9.669   8.293  12.719  0.0242 -0.1243  0.0808
15543W        W31727  16.684   6.769   0.677 -0.0512  0.0632 -0.2794
15544W        W31728  15.760   5.311  15.929 -0.5946 -0.2912  0.2165
15545W        W31729   5.899   0.861   1.949 -0.0398 -0.1377 -0.2119
15546W        W31730  18.161  17.160  11.401 -0.0361 -0.3223  0.2632
15547W        W31731   0.107   9.745  14.832 -0.0273  0.0035  0.1275
15548W        W31732  12.611  16.104  13.926 -0.0590  0.0791 -0.0212
15549W        W31733   2.294  11.955   4.932  0.1774 -0.0093 -0.1884
15550W        W31734   5.561   2.116  16.302  0.0179  0.0516  0.5152
15551W        W31735   0.085  12.289   3.929 -0.0941  0.0612 -0.0247
15552W        W31736  16.265   7.921   3.221 -0.2734  0.5767 -0.1469
15553W        W31737  14.497   7.086  11.348 -0.1249  0.0256  0.2227
15554W        W31738  10.246   2.965   1.221  0.4063  0.2253  0.4256
15555W        W31739  10.988   3.781   4.077  0.0242 -0.3223  0.2004
15556W        W31740   1.240   2.004  11.067 -0.1425 -0.2148 -0.0727
15557W        W31741  14.405   9.631   2.171 -0.0325 -0.3161 -0.2877
15558W        W31742  17.964  15.478   5.118  0.0672 -0.1868  0.2581
15559W        W31743  16.720   6.929   4.822  0.0906  0.2002  0.1055
15560W        W31744   1.601   5.993  12.056 -0.2421  0.2994  0.2087
15561W        W31745  16.529   8.975  15.081 -0.2331  0.4841 -0.1537
15562W        W31746  15.331  10.247  15.832 -0.2743  0.1892  0.1349
15563W        W31747  13.865  13.871   2.284  0.0611 -0.1368 -0.2097
15564W        W31748   8.899  12.749   0.718 -0.0103  0.0240  0.1889
15565W        W31749   1.160   5.868  14.549 -0.2990  0.1821 -0.0126
15566W        W31750  14.607   7.050   5.306 -0.1555 -0.1251 -0.1563
15567W        W31751  13.796   6.315  14.398 -0.0015 -0.0499 -0.2159
15568W        W31752   3.453   5.758  12.774  0.3211  0.1365  0.0859
15569W        W31753  16.257   1.230  14.781 -0.1027  0.2717 -0.0553
15570W        W31754   2.014   6.345   2.239 -0.4353  0.1447 -0.0407
15571W        W31755   1.722  17.275  15.056 -0.2108 -0.0590 -0.0494
15572W        W31756   7.568   8.877  13.926  0.2177  0.0334  0.2558
15573W        W31757   2.586  13.245   6.519  0.4748  0.1148 -0.4867
15574W        W31758  13.242  16.272  13.163  0.2371 -0.2360 -0.1918
15575W        W31759   0.578   1.821  15.810  0.2862  0.0144  0.0109
15576W        W31760  10.326  10.367   4.732  0.2027 -0.1734  0.0854
15577W        W31761  16.642   3.907  10.206 -0.3768  0.2109  0.4951
15578W        W31762  13.708   8.075   0.086  0.0121 -0.0707 -0.1945
15579W        W31763  15.940  15.444   2.031 -0.2180  0.0570  0.0871
15580W        W31764  15.806   8.575   0.550 -0.3245 -0.0242  0.0951
15581W        W31765   8.292   4.846   5.862  0.3457  0.0227  0.0326
15582W        W31766   4.066  18.114   2.228  0.2361  0.2693 -0.0646
15583W        W31767   6.959   1.492  13.899 -0.0902 -0.2036 -0.0551
15584W        W31768   1.390  11.480  12.081  0.0813  0.0727  0.3921
15585W        W31769   9.849   5.837   0.895  0.2068 -0.4868 -0.1243
15586W        W31770   6.912  12.904   5.814 -0.0478  0.0345 -0.1361
15587W        W31771   2.994   1.256   0.102 -0.1974  0.1380 -0.1493
15588W        W31772   8.185   6.894   3.527 -0.2066 -0.1018  0.0232
15589W        W31773   6.402   6.693   2.294 -0.0646  0.3590  0.0583
15590W        W31774  15.161  14.824   2.098  0.2015 -0.1226  0.0121
15591W        W31775  15.358   0.061   5.654 -0.1046  0.0613 -0.1672
15592W        W31776   8.040  16.287  16.274  0.1022  0.0662 -0.2384
15593W        W31777  12.545  11.441  15.292  0.1078 -0.2051 -0.0399
15594W        W31778   6.125  15.305   2.232 -0.0562 -0.1150 -0.3417
15595W        W31779  17.536  17.411  15.034 -0.3174  0.1653 -0.0735
15596W        W31780  12.284   6.967  14.329  0.0234 -0.0741 -0.0553
15597W        W31781  10.854  12.204   5.657 -0.5478  0.1500  0.0723
15598W        W31782  16.608   9.980  13.973 -0.3033  0.3294 -0.1002
15599W        W31783   7.362  11.360   4.151  0.3330 -0.2214  0.4126
15600W        W31784   2.883   6.413   1.745  0.0505 -0.0921 -0.2873
15601W        W31785   0.785   0.859  12.976  0.4223  0.1730 -0.0920
15602W        W31786  11.838  14.407  13.248 -0.0119 -0.0687 -0.1547
15603W        W31787   1.982   0.111   1.876 -0.1633  0.1205 -0.0421
15604W        W31788  17.254   8.923  13.660 -0.0561  0.0355  0.0440
15605W        W31789   4.012   4.128   1.505 -0.0700  0.0133  0.3021
15606W        W31790  13.084  14.497   0.119 -0.1923 -0.2820  0.2168
15607W        W31791   7.073  17.870  13.232  0.0217  0.0231  0.1094
15608W        W31792   9.420   8.824  16.192 -0.0121 -0.0492  0.1272
15609W        W31793  17.575  13.496   2.631  0.3399 -0.0003  0.0173
15610W        W31794   8.594  12.597   4.282 -0.0631  0.0467 -0.1053
15611W        W31795   1.796   2.240  13.244  0.0169  0.0495  0.0480
15612W        W31796   9.023   1.700   1.887 -0.0255  0.1390  0.1643
15613W        W31797  14.798   1.248   4.406  0.5455  0.0038  0.2560
15614W        W31798   5.246  16.814  12.815  0.0588 -0.0069 -0.0815
15615W        W31799  18.148  15.678  15.420 -0.1075 -0.1149 -0.0027
15616W        W31800  16.986   6.738   2.552  0.4102 -0.0865 -0.2490
15617W        W31801  15.991   3.080  16.483 -0.2847  0.2887 -0.0527
15618W        W31802  16.520  16.538  16.256  0.0276  0.0189 -0.0630
15619W        W31803  16.849   4.066  13.058 -0.0745 -0.0454  0.1233
15620W        W31804  17.028  17.315  14.730 -0.0976  0.1268 -0.0528
15621W        W31805   7.423  17.349   1.476  0.0433  0.0324  0.2205
15622W        W31806   9.977  17.486   4.168  0.0186 -0.0110 -0.1033
15623W        W31807   5.974   6.992  15.253 -0.1652  0.1456 -0.0826
15624W        W31808  14.441   6.720   3.948  0.4688  0.3050 -0.0956
15625W        W31809  17.979   1.285  13.094 -0.0757 -0.0626  0.0370
15626W        W31810   6.984   3.702  14.169 -0.1904 -0.2096 -0.1098
15627W        W31811  10.244  17.358  11.943  0.0810  0.1257  0.0817
15628W        W31812   9.290  12.870  16.422 -0.1045  0.2599  0.1594
15629W        W31813   0.866   8.096   5.039  0.1094  0.1061 -0.3920
15630W        W31814  13.264   6.838  13.365  0.2668  0.0830  0.3040
15631W        W31815   2.195  17.283  16.622 -0.4958  0.2418  0.1722
15632W        W31816   7.422  13.252   1.571  0.2726  0.0014 -0.1309
15633W        W31817  13.807   9.130   5.543  0.1849 -0.2014 -0.0574
15634W        W31818  15.792  13.200   6.340  0.1448 -0.5304  0.0994
15635W        W31819   6.171  10.410   2.686 -0.2939 -0.0224 -0.1404
15636W        W31820   2.940   8.906   3.497 -0.1317  0.1434  0.0088
15637W        W31821   2.004  15.123  11.840  0.3043 -0.1673  0.1019
15638W        W31822   0.952  12.031   1.293 -0.1656  0.1860  0.0124
15639W        W31823   8.464   5.904   4.197  0.0415 -0.1383  0.1472
15640W        W31824  11.321   3.555   4.410 -0.1924  0.1041 -0.0671
15641W        W31825  10.572   1.901  14.078  0.1177  0.2583 -0.1451
15642W        W31826  17.970  12.710   0.055  0.2133  0.3669 -0.0754
15643W        W31827   5.216  11.149  11.693  0.0654  0.0021 -0.0038
15644W        W31828   6.995   8.213   5.443  0.1820 -0.0077 -0.0275
15645W        W31829   7.886  13.507  16.406  0.0104  0.1429 -0.1202
15646W        W31830   8.040   5.354   5.818 -0.1467  0.0313 -0.2776
15647W        W31831   1.929  11.272  12.461  0.1421 -0.3494 -0.0341
15648W        W31832  13.095   5.938   4.438  0.0949 -0.2032 -0.0899
15649W        W31833   1.599   5.153  16.074  0.3675 -0.1291  0.1586
15650W        W31834   6.618   9.818   2.801 -0.1818 -0.0177  0.0510
15651W        W31835   6.451  16.326   5.487 -0.0562 -0.2015  0.2400
15652W        W31836   1.989  10.460   0.876  0.5635  0.3197  0.1893
15653W        W31837   6.338  17.380   4.121  0.0330 -0.2500 -0.2829
15654W        W31838   1.832   6.416  12.042  0.2543 -0.0444  0.1528
15655W        W31839   2.843  11.747   4.195 -0.0396  0.2776 -0.2281
15656W        W31840  10.424  17.152  16.503 -0.0919  0.0693 -0.0487
15657W        W31841  12.129   6.465   5.230  0.2193 -0.4336 -0.0156
15658W        W31842   9.780  10.349  14.529 -0.0302  0.1621  0.1329
15659W        W31843   0.043  10.253  14.075  0.0581 -0.2441 -0.1888
15660W        W31844  10.539   1.294  13.147  0.1333  0.3222  0.0882
15661W        W31845   2.589   9.862   2.822 -0.0968 -0.0414  0.1070
15662W        W31846  18.050   7.197   4.884 -0.1012  0.0695 -0.1192
15663W        W31847   6.713  15.419   2.801  0.5434  0.0716  0.1252
15664W        W31848   5.417   2.544   2.042 -0.0352 -0.1102  0.0044
15665W        W31849  12.833  15.320  11.963 -0.2025 -0.1436 -0.1460
15666W        W31850   0.871  13.519   5.584  0.0549 -0.0843 -0.2580
15667W        W31851   0.086  17.853  15.932  0.0778 -0.3820  0.2662
15668W        W31852   9.790  15.593   0.008 -0.4853  0.1134  0.0290
15669W        W31853   6.697  13.330   6.291 -0.3000 -0.0778 -0.1020
15670W        W31854  11.093  15.718   3.885  0.2702 -0.1683 -0.1032
15671W        W31855  17.282  11.439  14.303 -0.2232 -0.1837  0.1890
15672W        W31856  11.431   9.947   3.109  0.0146 -0.0159 -0.0138
15673W        W31857   1.003  11.122   5.355  0.0698 -0.0610  0.1613
15674W        W31858   9.255   8.896   3.213 -0.1202 -0.2757 -0.0733
15675W        W31859  16.706   3.387  14.727  0.0465  0.0785  0.2738
15676W        W31860  18.008  15.044   0.962  0.0898  0.0888 -0.0033
15677W        W31861  10.267   2.514   3.320  0.1959 -0.1845 -0.0335
15678W        W31862   9.362   3.375   5.223 -0.0604 -0.3956 -0.2111
15679W        W31863   1.831  12.400   0.167  0.2306 -0.2026  0.0358
15680W        W31864   1.925   8.860  12.646  0.2136 -0.2223  0.2634
15681W        W31865  13.763  11.277  11.609  0.0333  0.0866 -0.0180
15682W        W31866  18.070  12.428   1.813 -0.1155 -0.0658 -0.1375
15683W        W31867   6.900  15.440   5.949  0.1282 -0.4082  0.1422
15684W        W31868   9.203   0.606  12.416 -0.2863 -0.0076 -0.0199
15685W        W31869   1.755   4.942  12.429 -0.0719 -0.0699  0.0096
15686W        W31870   1.617   5.271  15.225 -0.0352 -0.1997  0.3872
15687W        W31871   0.726   7.168  11.142 -0.1621  0.0662  0.1492
15688W        W31872   4.841  11.015   3.444  0.2246 -0.0808 -0.1501
15689W        W31873   1.989  12.795  13.948 -0.0257 -0.3523  0.0154
15690W        W31874   8.432   5.381  15.930  0.2456  0.4502 -0.2333
15691W        W31875   7.453   8.780  12.467  0.1289  0.0653 -0.0653
15692W        W31876  10.110  12.815  14.741 -0.1880 -0.0039  0.1872
15693W        W31877  15.367   2.638  15.841 -0.1596  0.0667 -0.0037
15694W        W31878  13.562  13.310   0.066 -0.0457  0.0462 -0.1155
15695W        W31879   2.746   5.090  15.918  0.0429  0.2408 -0.0902
15696W        W31880   5.123   4.210  11.709 -0.2275  0.0833 -0.0124
15697W        W31881  14.911   6.086   4.612 -0.2645 -0.1726 -0.0847
15698W        W31882   7.079  13.744   1.026  0.1010  0.1115  0.0092
15699W        W31883  12.417  18.017   0.809  0.2699 -0.2743  0.0522
15700W        W31884  12.450   7.441   4.223  0.0507  0.4031  0.1325
15701W        W31885   5.332  16.382  13.233  0.0264  0.2307 -0.2959
15702W        W31886  14.575  10.162   3.125  0.4246 -0.1595 -0.1062
15703W        W31887   2.261   6.407  16.613  0.0749  0.0237  0.2463
15704W        W31888   3.842   3.510  12.198 -0.3020  0.1336  0.3499
15705W        W31889   8.288  12.862  14.974 -0.0878  0.0959  0.2880
15706W        W31890   6.386  14.452   3.580  0.0189  0.0964 -0.2433
15707W        W31891  17.699  17.289   6.343 -0.0277 -0.1317 -0.0419
15708W        W31892  10.940  15.816  14.791  0.1480  0.0993 -0.4225
15709W        W31893  15.010  13.177   5.664 -0.3752 -0.2064 -0.0053
15710W        W31894  12.697   3.799   2.360 -0.1589  0.1351 -0.0843
15711W        W31895  11.751  11.239   5.090  0.2220 -0.2498 -0.4449
15712W        W31896   3.020  13.794  14.047 -0.1059  0.0909 -0.3672
15713W        W31897  14.482   6.408  11.001  0.2894 -0.1067 -0.0968
15714W        W31898  12.274   1.732   0.748  0.3500 -0.0396  0.1826
15715W        W31899   3.366  12.307  12.072 -0.0379  0.0752 -0.4302
15716W        W31900   8.471   9.339   2.856 -0.0454 -0.0582 -0.0618
15717W        W31901  14.052   0.213  13.510 -0.0999  0.0062  0.1465
15718W        W31902   7.737   3.820  11.154 -0.1913 -0.0263  0.1451
15719W        W31903  12.882  17.707   2.086  0.1370  0.1746  0.2773
15720W        W31904   7.223  13.681   3.782 -0.1985 -0.0421  0.0361
15721W        W31905   7.813   0.490  15.624 -0.1621  0.0213  0.1000
15722W        W31906  14.023  17.210  15.695  0.6309 -0.0760 -0.2246
15723W        W31907   3.779  11.674   3.956  0.3343 -0.0191  0.3697
15724W        W31908   7.922   9.698  13.103  0.0445 -0.2080  0.0777
15725W        W31909   5.018  16.359  14.950 -0.2022  0.0347  0.0334
15726W        W31910   4.012   5.058   1.580 -0.1565 -0.1657 -0.2829
15727W        W31911   2.981  10.186  12.645 -0.2494 -0.2918 -0.0671
15728W        W31912  10.829  17.064   3.321 -0.1301  0.0987 -0.1430
15729W        W31913  16.389  15.458   4.298  0.2517 -0.1284 -0.1995
15730W        W31914   5.257   3.106  13.855 -0.0757  0.0622 -0.2568
15731W        W31915  16.807  18.094  10.550  0.5451 -0.1731  0.0909
15732W        W31916  16.192  14.062   0.657 -0.1719  0.0824  0.2959
15733W        W31917   4.610   9.664  14.121  0.0794 -0.1678  0.3021
15734W        W31918   1.747   4.426  14.768 -0.0110  0.1042  0.3497
15735W        W31919   9.829   8.973  15.121 -0.0601  0.0714  0.3326
15736W        W31920  18.078   3.566  11.761  0.2297  0.1958 -0.2791
15737W        W31921  15.853   8.687  16.144  0.1195 -0.0030  0.0840
15738W        W31922  15.166   7.691   4.848 -0.3026 -0.1488  0.1315
15739W        W31923  17.630  10.687  15.023 -0.0855 -0.1133 -0.0429
15740W        W31924   6.559   6.998   0.473  0.1122  0.1880  0.3000
15741W        W31925  17.381  10.466   4.108 -0.0346  0.2776  0.1358
15742W        W31926   0.299   2.238   0.525  0.2378 -0.0591  0.2754
15743W        W31927   8.357   5.625   0.975  0.1728  0.2086  0.1042
15744W        W31928  17.917   1.586   3.169 -0.0457 -0.0925  0.3537
15745W        W31929  10.429   7.691  13.069 -0.0022  0.3350 -0.1390
15746W        W31930   7.905  13.763   0.898  0.0784  0.1715  0.0703
15747W        W31931   0.560   2.924   1.707  0.2508  0.0173  0.0718
15748W        W31932  15.509  15.529  16.303 -0.1339 -0.2681  0.3601
15749W        W31933  11.371   0.010  15.015 -0.0429 -0.0260 -0.0235
15750W        W31934   0.408   5.946  14.466  0.2184 -0.8367  0.0695
15751W        W31935  10.873   5.048   0.787 -0.0126  0.1517 -0.2461
15752W        W31936  12.433   0.282   1.826 -0.1139 -0.0736 -0.0177
15753W        W31937  16.147  16.422   4.022  0.3212 -0.1997 -0.1469
15754W        W31938  12.420   4.599   2.010  0.0357  0.0607  0.4327
15755W        W31939   6.686  18.141   4.423  0.2003 -0.1378 -0.0034
15756W        W31940  11.500   3.657   1.694  0.1404  0.1078  0.1296
15757W        W31941   6.724   8.262  15.721  0.0177 -0.0854 -0.1231
15758W        W31942  17.040   5.315  13.712 -0.0066  0.2895 -0.4674
15759W        W31943   0.404   6.199  12.817  0.0450  0.0266  0.0688
15760W        W31944  15.629  16.607  13.357 -0.2248  0.0552  0.0642
15761W        W31945   9.308   6.807   4.449 -0.1476  0.0364  0.0731
15762W        W31946  13.453   5.089   5.072 -0.4227  0.0138  0.1966
15763W        W31947   4.104   5.537  15.966 -0.1567  0.1089  0.2784
15764W        W31948  11.927  13.545   2.114 -0.1797 -0.3112  0.0418
15765W        W31949   4.539   7.169   2.542 -0.0834 -0.1397  0.2299
15766W        W31950  14.744  12.802  13.146 -0.2664 -0.1805 -0.0100
15767W        W31951   0.605   4.965  11.913 -0.1710  0.1842  0.0285
15768W        W31952  16.860   5.074   2.359 -0.2922  0.3070  0.2762
15769W        W31953  14.395  15.186  14.396 -0.1472 -0.0593 -0.2904
15770W        W31954  14.078  17.207   0.711 -0.0092 -0.0802 -0.1533
15771W        W31955  12.243   7.903  15.657  0.0823  0.1044 -0.0228
15772W        W31956  17.091   6.257   4.540 -0.2928 -0.0000 -0.0519
15773W        W31957   3.051   5.327  13.722 -0.0612  0.1213  0.0321
15774W        W31958  14.197  14.616   1.773 -0.5923  0.0321  0.2493
15775W        W31959   7.611  13.531  12.403  0.5370  0.3377 -0.1072
15776W        W31960  14.653   9.006   4.637  0.0572  0.0510  0.3207
15777W        W31961   2.171  15.341   3.551  0.1219  0.0257  0.3349
15778W        W31962  15.112  17.200   1.317  0.0083  0.1681 -0.0485
15779W        W31963   2.122  13.766   1.164  0.2056 -0.0126 -0.0937
15780W        W31964   6.799   5.964   2.336 -0.2387  0.1953 -0.1730
15781W        W31965   6.288  11.822   1.773  0.0792  0.0729  0.2891
15782W        W31966   0.419   2.824   0.287  0.0475 -0.2424 -0.1156
15783W        W31967  17.775   3.099   3.829 -0.0149  0.1040 -0.0213
15784W        W31968  14.951  13.252  12.955  0.0157  0.0069 -0.1130
15785W        W31969  11.813   7.383  14.929  0.1025 -0.1886  0.0388
15786W        W31970  10.167  11.642   3.260 -0.0740  0.1173 -0.1737
15787W        W31971  13.712  14.550   4.991 -0.0406  0.0612 -0.0257
15788W        W31972  17.623  10.930  16.471 -0.3225  0.0916  0.0772
15789W        W31973  17.728   2.841  14.314 -0.1666 -0.1076 -0.1884
15790W        W31974  16.512   9.977  11.710 -0.0155 -0.3494  0.0189
15791W        W31975  11.592  15.950   3.992  0.2027  0.4613  0.0509
15792W        W31976   7.353   7.001  15.782  0.2057 -0.2289 -0.4649
15793W        W31977  17.867  10.258   3.629 -0.1769 -0.2491 -0.1166
15794W        W31978  18.109   4.392  14.894  0.1611 -0.0318  0.0789
15795W        W31979   2.449   7.275  15.106  0.1432  0.1068  0.1811
15796W        W31980  16.906   5.102  14.808 -0.0969  0.0088 -0.0493
15797W        W31981   1.158  16.774   3.145  0.2525 -0.1860  0.1488
15798W        W31982  12.504  13.526  12.387  0.0349  0.1136  0.0917
15799W        W31983  12.686  13.939   2.153 -0.2156 -0.2074 -0.2606
15800W        W31984   8.340   5.320   2.190 -0.3099  0.0641 -0.1081
15801W        W31985   3.340  14.733   2.258  0.1272 -0.0297  0.1163
15802W        W31986  18.080   5.741  14.689 -0.2600  0.2890  0.2232
15803W        W31987  12.746   2.836   4.368  0.2390  0.0647  0.1202
15804W        W31988   2.684  10.501   4.011  0.0570 -0.2030  0.2651
15805W        W31989  16.384   6.342  15.845 -0.0668  0.2203 -0.3545
15806W        W31990  11.989   1.446   0.074 -0.0429  0.0887 -0.2698
15807W        W31991   9.769   2.138   2.631  0.0889  0.2093 -0.0033
15808W        W31992  15.806  10.028  10.417  0.2505  0.0192  0.2266
15809W        W31993   1.244  18.106  12.082  0.0063  0.0397  0.1253
15810W        W31994   5.291   7.039   1.425  0.0340  0.3417 -0.2573
15811W        W31995   6.574   7.638  12.820 -0.1698  0.0249 -0.1605
15812W        W31996   3.793   2.048  14.694  0.0890 -0.1291  0.1801
15813W        W31997   9.591   7.802  15.991  0.1723  0.3123  0.0094
15814W        W31998   0.959  12.455  12.934 -0.0025  0.0047 -0.2350
15815W        W31999   4.577   7.039   5.556 -0.1319  0.0762  0.0356
15816W        W32000   5.392  15.719  15.018 -0.3959 -0.3109  0.0460
15817W        W32001   9.999  14.305   3.374  0.1149  0.1453  0.2139
15818W        W32002  17.019  15.603  11.801 -0.0429 -0.0290  0.1435
15819W        W32003  16.464   2.944   1.278 -0.0544  0.2656 -0.1321
15820W        W32004   9.187  17.724   2.794 -0.1490 -0.1910  0.0223
15821W        W32005   9.517  16.501   2.794 -0.1514 -0.1072 -0.0296
15822W        W32006   2.780   3.526   3.420 -0.2375  0.2049 -0.0660
15823W        W32007   8.151   1.811   0.991  0.1428  0.0896 -0.2847
15824W        W32008   2.510  14.430   2.204  0.1411 -0.0586  0.0647
15825W        W32009   7.497   4.883  15.347 -0.0229  0.0230 -0.1667
15826W        W32010   2.800  15.272  14.460  0.0531  0.0931 -0.0024
15827W        W32011   3.326   9.896  13.943  0.2370  0.0288  0.0742
15828W        W32012  14.509  14.950  15.643 -0.0132 -0.0759 -0.2197
15829W        W32013   2.179  14.725  12.105 -0.0386  0.3742  0.1791
15830W        W32014  10.161  11.294   2.035  0.2042 -0.3116 -0.1692
15831W        W32015   7.827   8.518   1.031 -0.0670 -0.3334 -0.1738
15832W        W32016   4.907   8.461   4.123 -0.0290  0.2472  0.0948
15833W        W32017   0.216   5.140   5.058 -0.1124  0.0666 -0.0278
15834W        W32018   2.555   4.051  13.387  0.0615 -0.0869 -0.2560
15835W        W32019   3.974  14.359  15.813 -0.1613  0.0599 -0.1142
15836W        W32020  14.696  10.208   2.153  0.2570 -0.1264  0.1202
15837W        W32021   6.684   0.885  12.624  0.1122  0.0151 -0.0587
15838W        W32022   4.071   0.921  15.954 -0.0023 -0.2285 -0.1008
15839W        W32023   1.659   9.782   0.805  0.3636 -0.2481 -0.1358
15840W        W32024  12.627   4.932   5.962  0.0571 -0.2957  0.0496
15841W        W32025   6.235  13.316  16.234 -0.1608 -0.0153 -0.4910
15842W        W32026   6.968  15.135   0.863  0.2646 -0.1440  0.3041
15843W        W32027  17.396  10.654  11.738  0.4064  0.0636  0.1008
15844W        W32028  14.270  16.367  11.068  0.2082  0.0122 -0.0297
15845W        W32029  13.859   5.994  16.439 -0.0391  0.4065  0.0997
15846W        W32030   2.630  13.820  10.986 -0.2141  0.0206  0.1403
15847W        W32031  17.821  13.925  12.686 -0.0583  0.3013 -0.0363
15848W        W32032   6.170   7.133   0.841  0.2381 -0.1334 -0.0898
15849W        W32033  17.591  12.413  16.518  0.2760 -0.0912  0.0872
15850W        W32034   8.660   3.020  13.194 -0.0855  0.0941 -0.2002
15851W        W32035   1.802   4.353  12.295 -0.1358  0.2277 -0.0587
15852W        W32036   4.427  15.810  12.820 -0.0723  0.0627  0.0824
15853W        W32037  10.265  15.224   2.743  0.0658 -0.2719 -0.3591
15854W        W32038   8.030  16.989  14.990 -0.0293 -0.1812  0.0550
15855W        W32039   1.998  14.167  14.214  0.0613  0.2652  0.1196
15856W        W32040  15.535   0.085  12.221 -0.0562 -0.5278 -0.2416
15857W        W32041  17.387   0.947   5.231  0.2425  0.1391 -0.1350
15858W        W32042  16.441  14.069   2.407  0.1231 -0.1894  0.0618
15859W        W32043   9.110  15.192  13.958  0.1483 -0.0561  0.2313
15860W        W32044   5.165   6.969   4.390  0.0518 -0.2135 -0.0717
15861W        W32045  17.197  14.465  14.001  0.3466 -0.1363  0.0227
15862W        W32046   6.847  12.430   3.282  0.2681  0.0976  0.1339
15863W        W32047  15.688   5.091   3.250 -0.2267 -0.2468  0.1438
15864W        W32048  15.182  16.893  10.898 -0.2900  0.3525 -0.0993
15865W        W32049   7.275   4.376   4.064 -0.1481  0.0248  0.0371
15866W        W32050   7.088   3.632  14.679  0.0552  0.0186 -0.0313
15867W        W32051   2.947   4.986  14.634 -0.1481  0.1017 -0.0859
15868W        W32052  10.887   2.172   2.709 -0.0625  0.2428  0.0789
15869W        W32053   4.938  13.948   1.804  0.4895  0.0246  0.1347
15870W        W32054   5.541  15.352  16.383  0.1963 -0.0236  0.0443
15871W        W32055   0.201  12.985  14.713  0.1107  0.0935 -0.0722
15872W        W32056   0.602  15.554  11.508  0.0909  0.0652  0.2548
15873W        W32057  17.797   7.918  14.901 -0.2260  0.1204  0.0064
15874W        W32058   9.707   9.218  15.597 -0.0717 -0.1857  0.1456
15875W        W32059   1.518  18.134   2.861 -0.5208  0.0090  0.2981
15876W        W32060  11.027   1.854   0.133  0.1525  0.0407 -0.0035
15877W        W32061  17.957   7.994  15.772 -0.1041 -0.0266 -0.0596
15878W        W32062   8.549  12.151   5.276  0.2203  0.0023 -0.1734
15879W        W32063  11.541   0.385  15.398  0.2325 -0.2966 -0.1824
15880W        W32064   1.606   3.264   1.822  0.1614 -0.0920  0.0748
15881W        W32065   4.427   9.583  15.493 -0.1776  0.0360 -0.1554
15882W        W32066   6.358  16.378  12.181  0.1491  0.1926 -0.0841
15883W        W32067  13.396   3.289  12.516 -0.2352  0.0249 -0.2574
15884W        W32068   0.505   6.639  13.812  0.2561  0.2550 -0.0514
15885W        W32069  14.385   4.603  14.514 -0.1343 -0.0700  0.1441
15886W        W32070   6.531  13.202  16.622 -0.1004  0.1182  0.0757
15887W        W32071   4.079   6.192   2.249 -0.0913  0.0762  0.0825
15888W        W32072   5.460   8.848   1.436 -0.1871  0.3187 -0.1535
15889W        W32073  18.162   7.620  12.744 -0.1964 -0.0527  0.1364
15890W        W32074  11.931  17.489  13.774  0.1394 -0.0783  0.0298
15891W        W32075  15.833  17.781   4.083 -0.0053 -0.0673 -0.0722
15892W        W32076   6.627   1.625   3.040  0.0131 -0.0418 -0.2803
15893W        W32077   7.928  12.792   5.126 -0.2993  0.1683  0.1032
15894W        W32078   8.550   1.205   0.017  0.3802  0.2165  0.2330
15895W        W32079  11.547  17.961   5.745 -0.2455  0.2210 -0.2023
15896W        W32080   4.849   9.858  15.348 -0.2446 -0.0584 -0.0247
15897W        W32081  10.759  12.676   0.737 -0.1151  0.0082 -0.3515
15898W        W32082   5.779  12.582   1.155  0.1650  0.1845  0.0007
15899W        W32083  16.849   8.345   0.060 -0.1470  0.0290 -0.2061
15900W        W32084  16.596   7.582  16.046  0.2062 -0.2731 -0.1982
15901W        W32085   8.665  15.368   2.446 -0.3071 -0.3211 -0.1640
15902W        W32086   7.248   6.979   0.236  0.2890 -0.1536  0.1040
15903W        W32087  17.404  12.517   3.346 -0.4088  0.0055 -0.0957
15904W        W32088   1.985  13.721   0.092  0.0403  0.0295  0.1122
15905W        W32089   3.197  16.005   4.855 -0.0349 -0.2754  0.0638
15906W        W32090   9.467   1.880  15.225  0.1110 -0.1947 -0.1340
15907W        W32091   9.432   7.235   4.728  0.3080 -0.0082  0.0851
15908W        W32092   4.196   0.306   1.497  0.1393  0.0017 -0.1182
15909W        W32093  15.075  12.205   4.882  0.4956  0.1147  0.0090
15910W        W32094  14.750   0.124  13.662 -0.2890  0.0590  0.1733
15911W        W32095   5.782  16.503   6.069 -0.4084  0.1640 -0.4145
15912W        W32096   7.945   4.225  15.982 -0.0818 -0.2615 -0.2236
15913W        W32097   5.286  12.472  16.436  0.0822 -0.3233 -0.0284
15914W        W32098   8.327  13.309  13.644 -0.0086 -0.0198  0.3557
15915W        W32099  10.551  15.553   6.853 -0.0103  0.1729 -0.1953
15916W        W32100   6.908  16.628   3.827 -0.1103  0.1087 -0.0663
15917W        W32101   5.797   2.242   0.958 -0.0027  0.1138 -0.1602
15918W        W32102  14.567   9.198  12.533  0.2561 -0.0138  0.3291
15919W        W32103   4.002  15.369   2.825 -0.0770 -0.0342  0.1233
15920W        W32104   9.555  11.659  14.170  0.1172  0.2816 -0.0734
15921W        W32105   5.338  15.308   1.997  0.0711 -0.2080 -0.4159
15922W        W32106  11.685  14.429  15.678 -0.2980  0.0008  0.0079
15923W        W32107  17.388   6.783   3.645 -0.1673 -0.0613 -0.0734
15924W        W32108   3.758  10.187   2.495 -0.0370 -0.1541  0.1142
15925W        W32109   6.662   3.286  13.946 -0.0238 -0.0987 -0.1218
15926W        W32110   5.538   9.670  16.277  0.1146  0.1783 -0.0886
15927W        W32111  14.126   5.491   1.922 -0.0747 -0.0879 -0.0116
15928W        W32112  12.644   4.246   5.995 -0.3334  0.0904  0.3081
15929W        W32113  17.429   1.374  13.238  0.2058 -0.0100 -0.5426
15930W        W32114   2.055   1.776   0.383  0.0674  0.1447 -0.1214
15931W        W32115  10.152  10.874   4.215 -0.3162 -0.0476 -0.0084
15932W        W32116  14.738  11.975  12.340 -0.1981 -0.4185  0.2452
15933W        W32117   9.049  17.683   5.514  0.0526 -0.2131 -0.2613
15934W        W32118   9.746  15.637   1.613  0.3469  0.0599 -0.0162
15935W        W32119  14.731   9.218  14.865  0.1899  0.1486  0.0479
15936W        W32120   6.009   5.277   3.212 -0.0877  0.0287 -0.0990
15937W        W32121  15.428  11.343  15.158  0.0238  0.2716  0.3092
15938W        W32122   8.228   8.577  13.875 -0.0570  0.0395 -0.1437
15939W        W32123  17.368   0.962   1.225  0.1494  0.0928 -0.1550
15940W        W32124  10.084  16.613  15.441  0.3450 -0.2683  0.1076
15941W        W32125  16.012   6.916   5.342 -0.0557  0.0602  0.0226
15942W        W32126   5.447   6.637   4.680  0.1255  0.2331 -0.3173
15943W        W32127  14.431  17.154  13.948  0.0443  0.0484  0.1460
15944W        W32128  13.373  14.850   4.438 -0.1519  0.0352 -0.1312
15945W        W32129  14.638   3.958  16.241 -0.0732  0.1464 -0.0721
15946W        W32130   6.001   4.119   4.556 -0.1116  0.1663 -0.0481
15947W        W32131  14.226   6.709  13.261  0.0162 -0.0314  0.0681
15948W        W32132   1.690   4.719   4.235 -0.2024  0.1304 -0.3846
15949W        W32133  11.169  16.511  14.785 -0.0732 -0.2093  0.1440
15950W        W32134   6.915  10.690  15.552 -0.2504  0.0582 -0.3540
15951W        W32135  10.438   7.659   3.159  0.0538 -0.2200  0.2523
15952W        W32136  15.462  13.916   0.211 -0.3331  0.0856 -0.2250
15953W        W32137   5.002   4.448  15.392  0.0898 -0.3110  0.0323
15954W        W32138  10.565   1.993  15.869  0.0701  0.0165  0.3856
15955W        W32139  13.535  11.764  15.479 -0.0523 -0.3395 -0.1190
15956W        W32140   3.849  11.171  15.050 -0.3668 -0.1868 -0.0648
15957W        W32141  14.864  11.146  15.945 -0.2790  0.1146 -0.2780
15958W        W32142  14.743   2.384  11.999 -0.0894  0.5612 -0.1936
15959W        W32143  11.173   1.926  14.566 -0.0992  0.2136 -0.0468
15960W        W32144  17.915  11.917   5.574 -0.1817  0.0949  0.0913
15961W        W32145   8.007  17.962   2.616 -0.0447  0.3045 -0.0724
15962W        W32146   2.338  16.636   4.345  0.1414 -0.0902  0.1190
15963W        W32147   9.989   0.679  13.645 -0.1217 -0.1399 -0.3155
15964W        W32148   8.849   6.215  16.321 -0.0299 -0.0909  0.0130
15965W        W32149  14.228  12.553  13.612 -0.1553 -0.3729 -0.0341
15966W        W32150   4.863   9.288   5.659 -0.1406  0.2316 -0.0033
15967W        W32151   8.515   7.201   2.904 -0.1516 -0.1813  0.0920
15968W        W32152  10.027  10.797   0.791  0.0214  0.1110 -0.0658
15969W        W32153   5.542  13.502   4.310 -0.0145  0.3009 -0.0416
15970W        W32154   0.321   5.036  12.718 -0.0498  0.0340 -0.1682
15971W        W32155   6.474  15.788   3.400  0.0564 -0.2171 -0.0051
15972W        W32156   6.818  10.849   5.284  0.1575 -0.0762 -0.2794
15973W        W32157   4.611   2.222   1.153 -0.2346 -0.2099 -0.0551
15974W        W32158   4.817  17.863  15.332 -0.0762 -0.1413  0.1755
15975W        W32159   6.511   2.955  16.620 -0.1960 -0.1258  0.1874
15976W        W32160   2.546   1.284   3.938  0.0032  0.4072  0.0496
15977W        W32161  13.102   0.613  12.211  0.3308  0.0512  0.2096
15978W        W32162  10.116   2.742   1.972  0.1877 -0.1869 -0.3275
15979W        W32163  14.112  14.518   0.350  0.0021  0.1832 -0.0564
15980W        W32164   7.617  14.155   4.886 -0.2165 -0.2589 -0.1159
15981W        W32165  16.172   3.457  12.635 -0.0708 -0.0199  0.0264
15982W        W32166  11.044  13.917  15.697 -0.0463  0.0112 -0.0919
15983W        W32167  13.732   3.765  11.859 -0.1122  0.2056 -0.0722
15984W        W32168   9.033   1.353  11.923 -0.2419  0.2259  0.1797
15985W        W32169   2.243  11.062   3.286 -0.2390  0.3804  0.2808
15986W        W32170   3.005  11.215  10.833  0.2459  0.2874  0.2002
15987W        W32171  13.982  10.427  15.210 -0.3154 -0.1117 -0.2784
15988W        W32172   6.624  17.409  16.646 -0.2864 -0.1094  0.0986
15989W        W32173   4.795   8.347  12.174  0.4274 -0.0106  0.2212
15990W        W32174  14.820  14.121   4.245  0.0626 -0.3182  0.0746
15991W        W32175  13.334  13.711   4.915 -0.2214 -0.1412  0.2392
15992W        W32176  11.658  10.389  13.767  0.3368  0.4887 -0.0245
15993W        W32177  13.090   3.846  15.347  0.0427 -0.0662  0.0232
15994W        W32178   9.513   9.770   1.067  0.2044  0.0243  0.0097
15995W        W32179   3.240   6.251  13.852  0.0306 -0.1096  0.0105
15996W        W32180   8.223  17.286  11.741  0.1024 -0.0193 -0.0763
15997W        W32181  15.356  11.349  11.947 -0.3205  0.0012  0.1769
15998W        W32182   3.722   4.465   5.910  0.0754 -0.0670 -0.0874
15999W        W32183   1.423   2.424   1.014  0.1095  0.3405 -0.1774
16000W        W32184  10.934  14.697  12.746  0.2960 -0.0660 -0.0793
16001W        W32185   2.358   8.099  11.567  0.0880 -0.2634 -0.1514
16002W        W32186  10.273   0.845  15.019  0.3625 -0.1546 -0.0559
16003W        W32187   1.298   2.552  15.781 -0.2032 -0.1844  0.0256
16004W        W32188   0.744  11.509   3.978 -0.4706 -0.3224  0.3618
16005W        W32189   2.750  12.817  13.430  0.1856 -0.3125 -0.3455
16006W        W32190   0.742  12.319  14.299  0.0010 -0.0506  0.0840
16007W        W32191  16.692  13.926   2.813  0.2480 -0.0053 -0.4685
16008W        W32192  13.070  14.362  15.255 -0.1122  0.0252  0.0586
16009W        W32193   1.151  15.537  12.090 -0.0164 -0.0084 -0.0212
16010W        W32194   7.563  12.748   4.268  0.1466 -0.3646  0.0536
16011W        W32195   9.567   9.543   2.076 -0.0381  0.2595 -0.0893
16012W        W32196  11.550   2.795  12.479 -0.1580 -0.2263  0.2177
16013W        W32197  10.863   2.061   0.588  0.1737 -0.0664 -0.0464
16014W        W32198  16.579   1.034   0.404  0.0937 -0.1399 -0.0115
16015W        W32199   7.196  13.070   2.922  0.1428  0.0920  0.3377
16016W        W32200   6.364  14.712  11.760 -0.2986  0.3053  0.1831
16017W        W32201   8.393  13.199  11.093 -0.1040  0.0026 -0.1254
16018W        W32202   0.973  10.730   2.531 -0.1981 -0.0863  0.0881
16019W        W32203   9.635   3.637  16.222  0.0674  0.0364 -0.2101
16020W        W32204   4.237  14.000   3.903  0.2330  0.4223 -0.1377
16021W        W32205   8.084   2.469   4.158 -0.0758  0.2389 -0.0193
16022W        W32206   4.878   2.535  12.915 -0.0211  0.0745 -0.1735
16023W        W32207   2.270   6.277   4.157 -0.1708 -0.2929  0.3237
16024W        W32208   9.215   5.666   4.355 -0.1239  0.1324 -0.2743
16025W        W32209  16.755   2.059  16.102  0.1599 -0.2622  0.1330
16026W        W32210   3.734  17.673  12.805  0.1873 -0.1021 -0.1129
16027W        W32211   6.071   2.106   4.591 -0.0138  0.1855 -0.1396
16028W        W32212   7.656  13.250   5.801 -0.2698  0.1990  0.4220
16029W        W32213  16.783   7.221   1.430  0.3561 -0.2208 -0.0562
16030W        W32214  10.076  10.577   3.723 -0.0251 -0.1428 -0.2798
16031W        W32215   0.031   8.670   0.888 -0.0707  0.1758  0.3669
16032W        W32216  17.646  10.275  14.180 -0.3750 -0.0436 -0.0958
16033W        W32217   4.637   6.797   1.911 -0.2061  0.3750  0.1239
16034W        W32218   3.777   6.556   2.553  0.1939 -0.0514 -0.0702
16035W        W32219  11.332   9.309  12.909 -0.4331 -0.2343 -0.0585
16036W        W32220   2.557  14.864   4.552 -0.0733  0.0328  0.0909
16037W        W32221  18.017   2.775   4.373  0.1717 -0.1152 -0.1875
16038W        W32222   2.007  11.200   6.021 -0.0341  0.1094 -0.3137
16039W        W32223   6.917   3.401  11.995 -0.2364  0.2855 -0.0756
16040W        W32224  16.235   0.460  13.715 -0.1127 -0.0645 -0.0656
16041W        W32225  10.535   5.335   2.716  0.1816  0.3572  0.0660
16042W        W32226  15.821   0.117   1.571  0.0379  0.0054 -0.0601
16043W        W32227  16.188  13.620  12.402  0.0235  0.1133  0.3554
16044W        W32228   6.153   6.880   1.353  0.2254  0.0625  0.3473
16045W        W32229   8.723  15.713  13.055  0.1455  0.1214 -0.0279
16046W        W32230  12.650  14.289  14.016 -0.0869 -0.1382  0.1895
16047W        W32231  12.330  10.767  13.199 -0.1388 -0.2998 -0.3643
16048W        W32232   5.143  10.330  14.598  0.2688 -0.0157 -0.0174
16049W        W32233  15.763   8.843  11.553 -0.1773 -0.0742  0.0635
16050W        W32234  17.536  12.581  14.444 -0.0098 -0.0340 -0.1265
16051W        W32235  13.740   9.310  16.172 -0.1157 -0.1300  0.1129
16052W        W32236  11.919  10.814   4.814 -0.1374 -0.0508 -0.0455
16053W        W32237   5.085  11.106   2.997 -0.3120 -0.0655  0.5260
16054W        W32238   3.674  16.133   5.058 -0.0165  0.0569 -0.4278
16055W        W32239   0.719  10.691   6.316 -0.2539  0.0891  0.0021
16056W        W32240   0.110   5.865   0.371 -0.1291 -0.1524 -0.0894
16057W        W32241   0.538   1.530   3.229  0.2702  0.0599 -0.3069
16058W        W32242   3.448   0.671   2.030  0.0958 -0.2429  0.0017
16059W        W32243   9.620  13.486   2.211  0.2715 -0.3331  0.0363
16060W        W32244   2.945   9.745  15.062  0.0128 -0.1945  0.1043
16061W        W32245   1.051  17.410   3.842  0.0556 -0.5343 -0.2070
16062W        W32246  16.440   7.424   1.104 -0.0359 -0.2085  0.1106
16063W        W32247  14.213   8.752   3.047 -0.1731 -0.1200  0.0165
16064W        W32248   7.305  15.323   4.164  0.0972 -0.2125 -0.2532
16065W        W32249  16.427   4.964   2.027  0.1001  0.0050 -0.3654
16066W        W32250   3.714  17.864  15.638 -0.0163  0.0208 -0.1024
16067W        W32251   1.938  12.762  15.276  0.1153 -0.1231 -0.1897
16068W        W32252   5.171  10.917   5.423  0.1087 -0.0256 -0.2146
16069W        W32253  10.151   3.946  16.335  0.0665 -0.0036  0.0284
16070W        W32254   1.224   7.442   3.667 -0.2078 -0.0607  0.1567
16071W        W32255   4.129   4.446   2.594 -0.0008  0.0917 -0.1370
16072W        W32256   4.982   5.619   5.101  0.1970  0.0195  0.0436
16073W        W32257   7.955   0.112  12.962 -0.0037 -0.0860 -0.0657
16074W        W32258  15.862   2.329  10.520  0.1284  0.0408  0.0979
16075W        W32259  16.189   0.562   4.481  0.0734 -0.1331 -0.4315
16076W        W32260  10.690   8.337  13.710  0.2586 -0.4685  0.1097
16077W        W32261   7.582  16.477   4.467  0.1117  0.1687 -0.0138
16078W        W32262  16.922  13.295   3.337 -0.0447  0.2402  0.0776
16079W        W32263  15.727  16.635   3.293  0.0449  0.2733 -0.1343
16080W        W32264   8.465   9.060  15.968 -0.0651 -0.0577  0.3731
16081W        W32265   6.369  10.561   2.247  0.1143  0.0469 -0.2665
16082W        W32266   4.514   4.357   1.012  0.0590  0.0433  0.1806
16083W        W32267   9.933  14.559   1.520  0.0782  0.0255 -0.1401
16084W        W32268   5.909  11.697  15.349 -0.0073  0.2581  0.1200
16085W        W32269   9.361  13.981  15.928  0.1577 -0.0543  0.1882
16086W        W32270   1.312  16.445  14.640 -0.2868  0.1278 -0.2341
16087W        W32271  13.210  17.550  14.763  0.0462  0.1234  0.1353
16088W        W32272   1.733   5.653   0.008 -0.0894 -0.3433 -0.0176
16089W        W32273  10.341  13.799   2.687 -0.4753 -0.0771 -0.3054
16090W        W32274   4.106  16.170  15.309 -0.0896  0.1479  0.0427
16091W        W32275   3.174   8.432  13.319  0.1936  0.2268 -0.0669
16092W        W32276   3.628  17.303   1.317  0.0685 -0.0585 -0.1202
16093W        W32277   9.018   1.655  15.423  0.1888  0.3567 -0.1730
16094W        W32278  15.230   6.332   2.770 -0.0863 -0.4713  0.0599
16095W        W32279   3.649   6.642  13.890 -0.1212 -0.2454  0.1174
16096W        W32280   1.044   3.276  12.239 -0.3089 -0.1556  0.3454
16097W        W32281  15.940  13.621   2.233  0.1360  0.0185  0.1524
16098W        W32282  17.395  14.027  12.461  0.1103 -0.0685 -0.2205
16099W        W32283   7.435   8.789  14.895  0.5226 -0.0059 -0.2414
16100W        W32284  17.515   3.623  14.050  0.2251  0.2447 -0.0816
16101W        W32285   9.256   1.933   4.284  0.2923 -0.1379  0.0163
16102W        W32286   4.118   5.124  13.982  0.1861 -0.2093  0.2554
16103W        W32287   8.321  12.321  12.029  0.0760  0.1010 -0.3310
16104W        W32288  12.134   4.273  14.521  0.0639 -0.0042 -0.1700
16105W        W32289   2.615  16.110  14.674  0.1635 -0.4286  0.1015
16106W        W32290  16.546   1.260  16.570  0.0768  0.0981  0.1818
16107W        W32291  10.010   7.671  15.663 -0.1594 -0.1811  0.2243
16108W        W32292  15.615  13.447   1.462 -0.0541  0.3447  0.3218
16109W        W32293   5.795   6.640   3.676 -0.0339  0.3633  0.1392
16110W        W32294   8.590   5.795   5.116  0.0134 -0.1217  0.0147
16111W        W32295  11.632  13.689   3.574  0.0648  0.1941  0.1136
16112W        W32296   2.298   7.655   4.914 -0.5384 -0.1530  0.1106
16113W        W32297  14.659  10.604   0.290 -0.4643 -0.3484 -0.0201
16114W        W32298   5.377   9.882  14.463  0.2552  0.0400 -0.1057
16115W        W32299  12.677   0.585   4.695 -0.0240  0.1248  0.0080
16116W        W32300   5.790  17.136  13.914 -0.1140 -0.1252 -0.1606
16117W        W32301  15.202   3.649   2.281 -0.0685  0.1102  0.0578
16118W        W32302   2.291  11.285   3.882  0.1727 -0.0215  0.0033
16119W        W32303   1.082   1.852  13.898  0.0203 -0.1701 -0.0475
16120W        W32304  15.959   1.707  14.651 -0.1187  0.0780 -0.1198
16121W        W32305  15.969   2.148   1.899  0.2051  0.1529  0.3834
16122W        W32306  12.021   1.792   4.115 -0.0541 -0.0310 -0.0292
16123W        W32307   3.414   5.497   3.252  0.0774  0.1310  0.0379
16124W        W32308   8.621   0.024   1.728  0.1575 -0.0326  0.0645
16125W        W32309   8.565   0.661  12.411 -0.0625 -0.0107 -0.3444
16126W        W32310  10.250   5.846   5.263 -0.0464 -0.2028 -0.0961
16127W        W32311  15.275   1.859  15.146 -0.2072  0.2682  0.3146
16128W        W32312   9.553  12.813   5.274 -0.1019 -0.3011  0.2364
16129W        W32313   3.184   1.094  12.579 -0.0540 -0.0105 -0.3008
16130W        W32314   2.067   8.326   3.885  0.1496  0.1266  0.0804
16131W        W32315   9.855   3.883  12.791 -0.0231  0.0307  0.0215
16132W        W32316  14.408   9.739  14.902  0.0186 -0.2747 -0.1883
16133W        W32317   8.192   2.305   1.296 -0.1032  0.1841  0.1176
16134W        W32318  11.006  10.997  13.796 -0.0252  0.1070 -0.3276
16135W        W32319   5.156  12.701   3.136 -0.2722  0.1290  0.3035
16136W        W32320   7.439   0.517   2.935 -0.3659  0.4331 -0.3475
16137W        W32321   1.594   0.945  16.434  0.1063  0.0116  0.0998
16138W        W32322   8.508   8.950   5.258  0.1218  0.1762 -0.0703
16139W        W32323   6.748  14.984   3.129 -0.1105  0.2025 -0.3479
16140W        W32324  16.478  13.126   1.498 -0.1994 -0.2065 -0.1266
16141W        W32325  13.445  13.474   4.417 -0.0726  0.1519  0.2102
16142W        W32326   8.153   5.478   2.696 -0.1047  0.0086 -0.1166
16143W        W32327  16.354   4.788   3.354  0.1575  0.2223  0.0233
16144W        W32328  15.147   2.425   4.322  0.1290 -0.0462  0.4138
16145W        W32329   3.301  13.216  15.851 -0.2258  0.1359 -0.3697
16146W        W32330   8.294   2.281   2.675 -0.0252 -0.2638 -0.2338
16147W        W32331  17.594   5.949  13.996  0.1508 -0.0036  0.2685
16148W        W32332  17.625  14.228   0.995 -0.1175 -0.0514 -0.3626
16149W        W32333   5.802   4.961   2.746  0.2230  0.1232 -0.1161
16150W        W32334  12.099  14.094   0.622 -0.0230  0.0970  0.0343
16151W        W32335  14.962   2.931   4.494  0.1815  0.3820 -0.0187
16152W        W32336   3.230   8.459   1.777 -0.0090  0.1002 -0.2508
16153W        W32337   7.583   9.860   5.649 -0.0013  0.2404 -0.3550
16154W        W32338  15.839  15.936  11.936  0.0465 -0.0933  0.0037
16155W        W32339  15.029   5.839  14.120 -0.3028  0.2372  0.0454
16156W        W32340  17.477   4.506  11.471  0.2656 -0.2232  0.2621
16157W        W32341  13.597  10.259  16.487  0.2423  0.3003 -0.1507
16158W        W32342  11.903  11.967   5.838  0.3033  0.0506  0.3681
16159W        W32343   4.635   1.230   3.224  0.0142 -0.3428 -0.1829
16160W        W32344   6.902  10.260  13.249 -0.0595  0.0229 -0.3622
16161W        W32345  15.376   9.112  13.543 -0.1460  0.0159  0.1175
16162W        W32346   9.356   8.542  12.986  0.0034  0.0532 -0.3326
16163W        W32347  10.033  11.004  13.849  0.0479  0.0959 -0.0864
16164W        W32348  15.221  11.956  12.005 -0.0967 -0.0567 -0.0391
16165W        W32349  10.189  15.045  13.539 -0.0480  0.3020 -0.0305
16166W        W32350   2.357  13.347   3.908  0.2098 -0.0905 -0.0785
16167W        W32351   8.115   6.069   0.201  0.2353  0.1115  0.2491
16168W        W32352   3.065   0.382   3.676  0.0130 -0.0155 -0.1669
16169W        W32353   5.291  16.754  14.920 -0.1806  0.1892  0.0032
16170W        W32354   1.940  16.055  15.761  0.3061 -0.0517  0.1715
16171W        W32355  12.596  13.692  15.973 -0.1678  0.1623  0.2788
16172W        W32356   4.072   2.474   5.335  0.0561  0.2405 -0.4588
16173W        W32357  10.113   9.509  15.803  0.0389  0.1818  0.1896
16174W        W32358   9.349  10.550   0.488 -0.1612  0.2241  0.1674
16175W        W32359  14.740  11.458   5.638 -0.2030 -0.3568 -0.0985
16176W        W32360   4.313  16.522  16.160 -0.0938 -0.3047  0.0198
16177W        W32361   0.052  14.317  15.430  0.2519  0.2434  0.1324
16178W        W32362  11.453   1.567   0.097 -0.3185  0.1973  0.0623
16179W        W32363  15.067   0.366   1.662  0.1191  0.0676 -0.0608
16180W        W32364  13.760   4.536   3.637  0.2028 -0.0738 -0.1979
16181W        W32365   3.216   7.664  15.490  0.3439  0.0190  0.1223
16182W        W32366   2.741   9.585   0.144 -0.0076  0.1115 -0.2672
16183W        W32367   9.125   8.053   3.272 -0.0464  0.0671 -0.0587
16184W        W32368  17.209  13.864  14.055 -0.1755  0.1275 -0.0405
16185W        W32369   6.471   6.396   3.558  0.2039  0.0795  0.1482
16186W        W32370   1.988  12.141  11.997  0.1934  0.2018 -0.0294
16187W        W32371   9.300  10.504   4.450  0.1959  0.0361 -0.0891
16188W        W32372   3.236  11.400   1.759 -0.3814 -0.0389  0.0153
16189W        W32373  15.352   2.807   1.128 -0.1405 -0.1044 -0.0832
16190W        W32374  11.231  14.922   3.341 -0.1371  0.0440 -0.1283
16191W        W32375   6.627   6.443  15.000  0.0878 -0.2597 -0.0186
16192W        W32376   6.104   4.944   4.349  0.0926  0.1711  0.0660
16193W        W32377   1.223   2.849  12.538 -0.1496 -0.0282  0.0618
16194W        W32378   1.203   2.091  11.549 -0.2810  0.0522 -0.1017
16195W        W32379   0.998   4.305   1.349 -0.1350  0.2251  0.2612
16196W        W32380  11.609   8.078   2.559 -0.1233  0.2553  0.0559
16197W        W32381  16.751  16.685   1.514 -0.3794  0.1338  0.0904
16198W        W32382   2.138   2.809   3.514  0.0078  0.0599  0.3458
16199W        W32383   1.460  12.661   2.866 -0.0310  0.0543  0.3790
16200W        W32384   7.511   4.946  13.606  0.2859 -0.2226  0.1605
16201W        W32385  10.480   0.762   3.918  0.2578  0.2874  0.0752
16202W        W32386  14.959   1.183   4.918 -0.1627 -0.3380  0.3070
16203W        W32387   6.422  10.434  16.381  0.1276  0.1864 -0.1309
16204W        W32388   7.769  16.626   0.732  0.0500  0.1017 -0.1134
16205W        W32389   9.788   6.736   2.723  0.3018 -0.1034 -0.1676
16206W        W32390   0.611   4.606   0.608 -0.1585 -0.0510 -0.0525
16207W        W32391  12.007   0.942  15.375  0.1241  0.0633  0.1588
16208W        W32392  10.419  14.068   3.502 -0.2095  0.0104 -0.1515
16209W        W32393  12.486  14.161   0.287 -0.1931  0.1872 -0.0307
16210W        W32394   1.188   7.791  14.793 -0.0283  0.1806  0.3578
16211W        W32395  17.030   8.063  15.684  0.2628 -0.2985  0.2081
16212W        W32396   6.091  16.730  11.508  0.1290  0.1021 -0.1726
16213W        W32397  11.567   7.491   0.739 -0.0750 -0.0973 -0.0252
16214W        W32398   6.154   0.618   3.982 -0.1806  0.0209  0.1184
16215W        W32399  16.423  14.294   6.303 -0.0526  0.1580  0.1047
16216W        W32400  12.371  11.748   1.051 -0.2301 -0.2062 -0.1544
16217W        W32401   3.597   3.523   1.982 -0.0520  0.2731 -0.2965
16218W        W32402   1.060  11.530   3.448 -0.0864  0.2699  0.1963
16219W        W32403   4.611   4.998  11.133  0.0223  0.2034  0.1962
16220W        W32404  17.623  17.709   4.861  0.3730  0.0880  0.1081
16221W        W32405  13.597   9.024  11.610  0.0862  0.0848  0.1318
16222W        W32406  16.047  11.784   3.901  0.0989  0.3255  0.0386
16223W        W32407   4.860  11.758  14.140  0.2529 -0.1089  0.0497
16224W        W32408   2.323   5.696  12.764 -0.3019  0.1852 -0.0630
16225W        W32409   2.158  13.099   4.373 -0.0805  0.1762  0.2449
16226W        W32410  13.774  13.792  13.650  0.0907  0.0557  0.0596
16227W        W32411  11.328   4.786  14.266  0.1390  0.3107  0.2094
16228W        W32412  11.669   9.062   0.573  0.1549  0.0209 -0.0642
16229W        W32413  13.558   4.719   2.795  0.1380 -0.1166  0.2957
16230W        W32414   4.067   4.219  11.125 -0.3642  0.2730  0.0476
16231W        W32415  13.146  15.377  12.841 -0.0527  0.0117  0.3690
16232W        W32416  16.151  13.145   0.800 -0.1593 -0.2840  0.1241
16233W        W32417  15.233   7.360   4.479 -0.2041 -0.0271 -0.0547
16234W        W32418   7.870  13.301  14.946  0.1962  0.0491 -0.3123
16235W        W32419   8.465   1.367  13.729 -0.3198  0.0845 -0.0805
16236W        W32420  17.205   1.927   4.503  0.2386 -0.1728  0.6519
16237W        W32421   8.925  10.075   0.189 -0.2073  0.1077  0.0415
16238W        W32422  15.533  16.286   0.871 -0.1291 -0.1264 -0.0782
16239W        W32423  14.481   8.752   1.782  0.0870 -0.2747  0.1198
16240W        W32424  14.193   4.764  16.223  0.2251 -0.1036 -0.0566
16241W        W32425   1.096   0.790   1.858 -0.0176 -0.1920  0.1549
16242W        W32426  12.063   8.525  12.297  0.1423  0.1051  0.0417
16243W        W32427   9.738  17.836  14.181  0.3809  0.2695  0.5454
16244W        W32428  17.748   1.830  13.124 -0.1666 -0.0026 -0.1714
16245W        W32429  12.487   0.495  14.036 -0.2983 -0.1440  0.4358
16246W        W32430   2.795   9.332   0.657  0.0003 -0.0953 -0.1476
16247W        W32431  14.017  10.428   5.907  0.0625  0.0065 -0.1903
16248W        W32432  17.045  12.296  13.026  0.0860 -0.2008 -0.1675
16249W        W32433   8.113   7.685  15.653 -0.0919  0.4901 -0.0204
16250W        W32434  14.116  15.917  14.135 -0.0402 -0.4779 -0.1340
16251W        W32435   4.507   4.672  13.070  0.0098 -0.2950  0.1700
16252W        W32436  17.034   2.405  16.592  0.2609 -0.2495  0.1807
16253W        W32437   5.895   5.495  14.435 -0.0366 -0.3235 -0.0005
16254W        W32438   9.243   9.842   1.901 -0.3291 -0.4043  0.1380
16255W        W32439  10.479   9.458   5.680 -0.0266  0.1694 -0.3597
16256W        W32440   0.524   5.089  15.861  0.0497 -0.1116 -0.1059
16257W        W32441  14.782   1.812  13.841 -0.0740 -0.0217  0.0791
16258W        W32442   1.234   3.928   0.273 -0.0263  0.2087 -0.2672
16259W        W32443  16.394   9.431   3.598 -0.3362 -0.0734 -0.0184
16260W        W32444   1.934   0.903   1.842 -0.2104  0.1143  0.0817
16261W        W32445   3.827   8.750   0.231  0.2550 -0.3188 -0.1006
16262W        W32446  12.481  11.318  16.205  0.0997  0.4542  0.3105
16263W        W32447  15.837  11.693   0.635 -0.1080  0.1737 -0.0897
16264W        W32448   6.065  16.913   0.928  0.1439  0.1614 -0.0804
16265W        W32449   0.661  13.880   0.348  0.1080  0.1193  0.2152
16266W        W32450  11.229  14.140  14.520  0.0505 -0.0263  0.3652
16267W        W32451  17.744   5.763  12.982 -0.1024  0.4185  0.3042
16268W        W32452   3.985  17.609  13.473  0.1071  0.3498 -0.3611
16269W        W32453   6.100  10.805   3.193 -0.0928 -0.0171 -0.0835
16270W        W32454  15.720   3.455  13.346 -0.0691 -0.2427 -0.0758
16271W        W32455   6.257   0.704  15.672 -0.1017  0.0824  0.0123
16272W        W32456   4.476  17.061   6.450  0.0317 -0.0859  0.1206
16273W        W32457   8.536   4.019   3.797  0.2492  0.0896 -0.1012
16274W        W32458   3.924  15.848  12.858 -0.0414  0.0204  0.1853
16275W        W32459  12.572  17.919   3.085 -0.0579 -0.0872 -0.0318
16276W        W32460   4.209   0.608   5.487 -0.2048  0.0567  0.2838
16277W        W32461  13.495   7.292   2.385 -0.3174  0.3266  0.2111
16278W        W32462   2.494   3.357  14.547  0.0062  0.0273  0.1715
16279W        W32463   4.752   2.913   0.312 -0.4786 -0.1778  0.1507
16280W        W32464   8.358   3.411   0.573 -0.2524 -0.3513  0.0483
16281W        W32465  17.733  13.164  15.917 -0.1562  0.0456  0.1120
16282W        W32466  17.312   5.088  15.160 -0.2053  0.0319 -0.0756
16283W        W32467   7.876  10.476   5.026  0.2842  0.0717 -0.1969
16284W        W32468  14.387   7.425   0.250 -0.0901  0.1442  0.0665
16285W        W32469   6.256  11.763   4.913 -0.0206 -0.0803 -0.2169
16286W        W32470  16.917  13.824   3.284  0.2256  0.1767  0.2697
16287W        W32471   1.651  14.827  12.103 -0.0420  0.2812 -0.0677
16288W        W32472   3.124   4.641   4.873 -0.0255 -0.0228 -0.3695
16289W        W32473   0.033  11.267  13.353  0.0405  0.4311  0.2004
16290W        W32474  10.963   9.935   1.322 -0.2618 -0.0606  0.1486
16291W        W32475  10.896   4.007   1.592 -0.0512  0.0419 -0.1852
16292W        W32476   0.337   7.029  15.284 -0.2100 -0.2064  0.3523
16293W        W32477   1.774   4.286   1.064 -0.2542 -0.2969 -0.1746
16294W        W32478   4.460   9.682   1.169 -0.2767  0.0591 -0.0816
16295W        W32479   0.835   6.349  15.052 -0.1200 -0.0939  0.2309
16296W        W32480  14.099   3.626   0.594 -0.4052  0.0721  0.0335
16297W        W32481   0.422   3.472  13.949 -0.0399 -0.0093 -0.1305
16298W        W32482   1.997   2.459  11.209 -0.3075  0.1286 -0.0538
16299W        W32483  10.824   1.053  15.098  0.1426 -0.0867 -0.2858
16300W        W32484   5.107  17.563   0.527  0.0337 -0.1179  0.2134
16301W        W32485   4.575  16.300  15.274 -0.1630  0.0526 -0.1152
16302W        W32486   4.290   8.889  14.497  0.0705  0.2099 -0.0264
16303W        W32487   0.037  13.114  16.022  0.2456 -0.1027  0.1014
16304W        W32488  10.870   8.520   4.927  0.2238  0.3441 -0.0667
16305W        W32489   0.230   5.511  14.173 -0.2454  0.1160  0.3129
16306W        W32490   6.423  17.025   6.495 -0.3652 -0.0335 -0.0591
16307W        W32491   6.031  11.629  12.002  0.2444  0.0808  0.2127
16308W        W32492   9.996   1.268  14.577  0.1201  0.3399 -0.3756
16309W        W32493   3.747   2.930   0.308 -0.1550 -0.1657 -0.0604
16310W        W32494  17.792   5.064   2.394  0.3014  0.3311 -0.1432
16311W        W32495  14.087   8.769  12.547  0.0896 -0.0396 -0.1478
16312W        W32496   2.333  14.325   5.152  0.1741  0.1338 -0.2090
16313W        W32497  16.331  10.462  15.380  0.0991 -0.0712 -0.1075
16314W        W32498   4.981   2.225   2.640  0.0225 -0.3241  0.3514
16315W        W32499   6.009   5.878   0.760  0.0460 -0.0245 -0.0151
16316W        W32500  15.407  14.529  12.919  0.1872 -0.1613 -0.1021
16317W        W32501  11.535  12.819   4.401  0.0788  0.2345 -0.0092
16318W        W32502  12.057  15.501  12.994  0.2212  0.2541 -0.2920
16319W        W32503  17.825   6.932  12.116 -0.0485 -0.0878 -0.0787
16320W        W32504  16.291   4.577  12.314 -0.0015  0.0438 -0.2482
16321W        W32505   1.556   9.949   2.951  0.1969 -0.1687 -0.1283
16322W        W32506   0.688   9.467   1.128  0.3381 -0.0792 -0.1092
16323W        W32507   5.561  10.948   3.530  0.0139  0.0547  0.1283
16324W        W32508   8.948   1.122   5.287  0.0389  0.2061  0.3415
16325W        W32509   4.825   5.448   4.383 -0.2804 -0.0838 -0.0889
16326W        W32510   5.952  11.326  14.981 -0.1596 -0.1513 -0.0273
16327W        W32511  15.674  10.167   1.456 -0.2460 -0.0138 -0.1299
16328W        W32512  13.291  15.307  12.310  0.0463  0.1467 -0.0678
16329W        W32513  16.771  16.402  15.120 -0.0681 -0.1439 -0.0507
16330W        W32514  13.355   4.841  11.442  0.3348  0.0089  0.1838
16331W        W32515   3.457  13.653   1.813 -0.3517 -0.2317 -0.0153
16332W        W32516  12.123  12.317   3.801 -0.0748  0.0550  0.1100
16333W        W32517   3.932  12.518  16.100 -0.0364 -0.0105 -0.4622
16334W        W32518   3.156  11.612  16.121  0.0878 -0.0300  0.0260
16335W        W32519   8.739  11.760   6.521 -0.2589 -0.0157  0.1030
16336W        W32520   4.065   9.535   5.265 -0.0028  0.0459 -0.1950
16337W        W32521  15.790  14.055  16.075 -0.1246 -0.1583 -0.4192
16338W        W32522   1.052  10.351   4.992  0.0847  0.1072  0.0804
16339W        W32523   1.151  14.399  12.707  0.0636  0.1390  0.0292
16340W        W32524  12.374   0.964   4.956 -0.5275  0.0109 -0.2875
16341W        W32525  13.569  13.044   1.041 -0.2587 -0.1542  0.1129
16342W        W32526  11.377  12.145  11.838 -0.0062  0.1114  0.1665
16343W        W32527   2.505   8.134   2.350 -0.2984  0.1422  0.0015
16344W        W32528   1.067   2.443   1.321 -0.0872 -0.1289 -0.2013
16345W        W32529   9.712   6.119   5.381  0.2433  0.1572 -0.1972
16346W        W32530  15.887   8.362  11.247 -0.1239 -0.1264  0.1979
16347W        W32531   9.384  12.946   4.438  0.2800  0.0539 -0.0648
16348W        W32532  12.189  13.877  12.277 -0.0027  0.0428  0.0353
16349W        W32533   1.001  11.922  13.939 -0.0512 -0.0788  0.0671
16350W        W32534   5.019   6.415   1.708  0.0058 -0.2268 -0.0580
16351W        W32535  11.702   8.190  12.055  0.0657  0.0087  0.0509
16352W        W32536  14.865   1.449  15.479 -0.0013 -0.3900 -0.0192
16353W        W32537   1.455  18.111   1.990  0.4280  0.0541 -0.1252
16354W        W32538   6.054  12.391   0.375  0.0818 -0.0033  0.1653
16355W        W32539  18.069   5.881  11.212  0.0750 -0.2259  0.0425
16356W        W32540  10.978   8.600  12.205  0.0232 -0.1498  0.3837
16357W        W32541  10.417  16.991  11.601  0.4235  0.1699  0.3702
16358W        W32542   0.795  13.121   1.573 -0.0129 -0.1016  0.0539
16359W        W32543  17.455   1.823  15.317  0.1372 -0.1550 -0.0750
16360W        W32544  10.780  10.090   2.399  0.1293 -0.1154 -0.4783
16361W        W32545   1.742  17.021  16.680  0.1295 -0.2338 -0.1827
16362W        W32546   2.381   0.005  14.563 -0.1649 -0.0565  0.1328
16363W        W32547  14.866  14.913  12.332 -0.2089  0.1932 -0.0324
16364W        W32548   8.370  13.416  11.904  0.3148 -0.0522 -0.0678
16365W        W32549   0.362   8.928   4.632 -0.1409  0.2596 -0.0594
16366W        W32550   0.540   1.878  12.500  0.2244 -0.2117 -0.3893
16367W        W32551  11.783   7.447   1.279 -0.0365  0.1420 -0.4924
16368W        W32552   4.371  15.036  12.354  0.2296  0.1408 -0.0432
16369W        W32553  14.733  17.032  11.628 -0.1562 -0.1298  0.2027
16370W        W32554   3.177  13.634   0.074  0.3739 -0.2316  0.1046
16371W        W32555  10.076  13.135   0.734 -0.2728  0.2856 -0.1012
16372W        W32556   5.674  17.590  15.327  0.2940 -0.0295  0.4935
16373W        W32557  16.807  10.652  13.068  0.0695  0.1465  0.0010
16374W        W32558   2.668   5.246   1.544  0.0023 -0.1342 -0.1344
16375W        W32559   9.257   5.308  12.186 -0.0369  0.2662 -0.2743
16376W        W32560  17.796  15.884   4.393 -0.0461  0.1218  0.0314
16377W        W32561   0.011   6.378   5.900 -0.0068 -0.1983  0.0492
16378W        W32562   5.921   9.167   1.808  0.2241 -0.0552 -0.0271
16379W        W32563  12.343   8.313   2.199 -0.0062  0.1009 -0.0713
16380W        W32564  15.433  17.965  13.470 -0.0976  0.2628 -0.0582
16381W        W32565  17.894   7.757   4.411 -0.2020  0.1981  0.2435
16382W        W32566   0.838  10.849  15.822  0.2930 -0.0395  0.4672
16383W        W32567  17.601   1.301  12.696  0.2286 -0.0833 -0.4769
16384W        W32568  16.347  12.365   6.000 -0.0175  0.0808  0.4003
16385W        W32569   5.555  16.600   5.097 -0.1346 -0.0899 -0.2934
16386W        W32570   0.168   8.900  12.318 -0.2593  0.0702  0.1343
16387W        W32571   3.802  16.488   4.046 -0.4129 -0.1021 -0.0654
16388W        W32572   1.706   1.165  11.342 -0.1686  0.1743 -0.3216
16389W        W32573  12.953   3.929   2.808 -0.1013  0.1306  0.1638
16390W        W32574  14.563  14.137  13.313 -0.2335  0.2465 -0.0371
16391W        W32575  16.787   0.840  12.682  0.2715  0.0207 -0.1861
16392W        W32576   2.270   6.923  16.539 -0.2611  0.0110 -0.0971
16393W        W32577   6.979   1.372   5.099 -0.0781 -0.1367 -0.2657
16394W        W32578   6.829   6.340   5.952  0.0489  0.2049 -0.1512
16395W        W32579   6.020  11.040  12.579 -0.0706  0.0292  0.2057
16396W        W32580  11.689   2.431   2.214 -0.0423 -0.0482  0.2974
16397W        W32581   8.430   9.940   4.432 -0.0210  0.0174  0.1883
16398W        W32582   1.308   1.914  12.467  0.2881 -0.0445  0.0647
16399W        W32583   9.983  17.057  16.629 -0.1474 -0.1141 -0.1228
16400W        W32584   1.486   5.408  12.662 -0.1727  0.0620 -0.1157
16401W        W32585  10.700   5.317   4.464 -0.5372  0.0213 -0.2826
16402W        W32586   4.571   4.573  16.683 -0.0737 -0.0009 -0.0019
16403W        W32587   2.688   1.978   0.820  0.3850 -0.1859 -0.1020
16404W        W32588   4.397  14.459  13.999 -0.0185 -0.0498  0.1043
16405W        W32589   7.559   8.110   1.079  0.2506  0.1431  0.0791
16406W        W32590   4.523   1.756   4.724 -0.1453 -0.3641 -0.2398
16407W        W32591  14.990  10.253   3.359  0.2179  0.0417 -0.0619
16408W        W32592   3.638  15.399  15.131 -0.2030 -0.3426 -0.1038
16409W        W32593   7.240   2.997   2.053  0.2223 -0.0080  0.0075
16410W        W32594  12.171   3.567  12.055  0.1975 -0.2361  0.0553
16411W        W32595   7.502  16.560  13.756  0.1213  0.0725 -0.0505
16412W        W32596   9.872   6.288  14.000  0.1291 -0.0492 -0.0352
16413W        W32597   4.314  11.588   0.958  0.3682  0.0464 -0.1215
16414W        W32598   1.214   0.867   4.865 -0.0622 -0.1232  0.1693
16415W        W32599   5.937   8.693   5.297  0.0508  0.2708 -0.0611
16416W        W32600  13.942   2.929  13.643 -0.2309  0.2022 -0.0459
16417W        W32601  14.779   7.766  14.182 -0.1292 -0.1232  0.0240
16418W        W32602   2.883   3.820  11.545 -0.2929  0.0198  0.0797
16419W        W32603   9.339  15.646  16.533  0.0076 -0.1762 -0.3022
16420W        W32604   2.687   1.478  14.918  0.1397 -0.2717  0.1269
16421W        W32605   1.747  17.904  12.833 -0.0905 -0.2070 -0.1103
16422W        W32606  13.871  11.358  12.584  0.1280  0.1072 -0.2203
16423W        W32607   6.334   8.091  16.465  0.1962  0.2733  0.0420
16424W        W32608  13.750  11.073   0.656 -0.1977 -0.0311 -0.1818
16425W        W32609  15.027   1.094   2.930  0.0329  0.3660  0.1832
16426W        W32610   5.789  11.313   3.988  0.1666 -0.0189  0.0115
16427W        W32611   2.341  15.119   4.117  0.3480  0.1006  0.0965
16428W        W32612  13.001  11.131   4.800 -0.1325  0.0806  0.2041
16429W        W32613  14.815  16.715   1.082  0.2791  0.1259 -0.2733
16430W        W32614  10.488   0.438   0.983  0.0224 -0.2783  0.1174
16431W        W32615  13.515  12.183   5.567 -0.0913 -0.0233 -0.0585
16432W        W32616   2.646  11.918  14.598 -0.1884  0.1735 -0.1884
16433W        W32617  14.474   1.677   4.602 -0.3468 -0.2893 -0.1846
16434W        W32618   1.978   8.202   2.458 -0.0952 -0.0921  0.2845
16435W        W32619   8.275  17.201  15.760 -0.1816  0.1976 -0.0784
16436W        W32620   9.234   8.209   4.888 -0.0055 -0.2986 -0.0185
16437W        W32621   8.806  17.234  14.391  0.2091  0.0648 -0.2088
16438W        W32622  10.492  16.282  14.954 -0.0793 -0.2467  0.1205
16439W        W32623  16.551   5.442  10.771 -0.2758 -0.2137  0.0240
16440W        W32624  17.966   4.602  11.488 -0.0851  0.1269  0.1598
16441W        W32625   2.068  15.558  10.660  0.2564 -0.1263  0.2854
16442W        W32626  13.479   3.098  13.524  0.0560  0.0550  0.0739
16443W        W32627   7.712  18.166   4.878  0.0456  0.0511 -0.2755
16444W        W32628  12.655   3.265   2.444  0.0515  0.1466 -0.5229
16445W        W32629   0.038  15.110  13.431 -0.1447 -0.0105  0.0534
16446W        W32630   4.634   0.040  16.166  0.3383  0.1835  0.2382
16447W        W32631  14.807  17.966   4.773 -0.2945 -0.3044 -0.0344
16448W        W32632  12.896  15.524   5.757  0.1834  0.2151  0.1065
16449W        W32633  13.341   3.028  12.050  0.2156 -0.1431 -0.0826
16450W        W32634  13.452   4.581   4.473 -0.1483  0.2258  0.1518
16451W        W32635  10.983   2.030   4.218  0.1144 -0.1282  0.0719
16452W        W32636  13.771   7.716   5.328  0.0520  0.1969 -0.5182
16453W        W32637   8.422   3.878   0.448 -0.3779 -0.0817 -0.1825
16454W        W32638   8.729   5.023  16.155  0.2461  0.2816  0.0302
16455W        W32639  16.528  11.874  13.315 -0.3019 -0.2215  0.2182
16456W        W32640   6.099  17.549  15.623 -0.0440 -0.0821  0.1977
16457W        W32641   9.834  10.221  15.659  0.0251 -0.0949 -0.2636
16458W        W32642  17.248   4.670   2.281  0.1583 -0.1914 -0.4781
16459W        W32643   7.413   7.158   5.642 -0.1810 -0.2805  0.1206
16460W        W32644   6.697  12.215  13.227 -0.0177 -0.1849  0.0757
16461W        W32645   3.631  16.734   2.177  0.2641  0.1225  0.0706
16462W        W32646   6.334   1.257  10.679  0.2605 -0.0577 -0.1092
16463W        W32647   2.710  17.014   5.966 -0.0009  0.0493  0.1616
16464W        W32648   7.949   9.903  12.651 -0.3814  0.1372 -0.1866
16465W        W32649   4.441  17.530   3.869 -0.1348 -0.0935  0.2311
16466W        W32650   5.878  14.844  12.285  0.2062 -0.1767 -0.0005
16467W        W32651  15.503  11.889   0.981 -0.3056  0.0354 -0.0362
16468W        W32652  16.354   8.347   3.531 -0.0601 -0.0165 -0.0238
16469W        W32653   3.953  13.621  14.391 -0.0988  0.0202 -0.0886
16470W        W32654  17.706  13.743  15.598  0.1351  0.1730  0.0233
16471W        W32655  16.921  14.481  15.831 -0.1945  0.1433  0.1915
16472W        W32656  16.087  13.495   1.764 -0.0414 -0.3197  0.1240
16473W        W32657   7.611   7.781  15.733  0.4674  0.0050  0.1821
16474W        W32658   9.112   5.793  12.059  0.0582 -0.0634 -0.3684
16475W        W32659   3.102  11.754   5.642 -0.1232  0.1873 -0.4896
16476W        W32660   9.426  17.854  16.196  0.2657 -0.4931  0.0254
16477W        W32661   6.315  15.992   1.562  0.1947 -0.0697 -0.2287
16478W        W32662   9.278   1.727  14.759 -0.1723 -0.1239  0.2944
16479W        W32663   7.386  10.861   6.651  0.2070  0.0585  0.2827
16480W        W32664   6.462  15.652   1.958  0.0953 -0.0250 -0.0554
16481W        W32665  14.555  17.879   2.280 -0.1338  0.1758 -0.0219
16482W        W32666  14.101   7.893   2.028  0.1275 -0.2720  0.0557
16483W        W32667   3.140  14.047   6.389  0.3001 -0.4589 -0.0480
16484W        W32668  16.791  12.033  16.484 -0.5213 -0.0922 -0.3383
16485W        W32669   8.817   4.364   1.927  0.3129 -0.0081 -0.2133
16486W        W32670  13.531  12.706  12.030 -0.1650 -0.0652  0.1721
16487W        W32671  16.520   6.682  14.877  0.3282 -0.2264 -0.2405
16488W        W32672   2.091   3.636   4.583 -0.2722 -0.1668  0.1043
16489W        W32673   6.281  11.401  14.622  0.0414  0.1912 -0.2009
16490W        W32674   0.148   2.404  11.542 -0.2166  0.0025  0.4831
16491W        W32675  10.628   5.123   0.280  0.0848  0.2468  0.0355
16492W        W32676  14.459   8.350  15.077 -0.2099 -0.1788 -0.0354
16493W        W32677   6.159   2.527   0.174  0.0086  0.0160 -0.0993
16494W        W32678   9.187  10.481   5.702 -0.1902 -0.0526  0.0027
16495W        W32679  14.446  12.180  15.611 -0.0900  0.2542  0.0402
16496W        W32680  13.916   8.616   5.315  0.0553 -0.2203 -0.0390
16497W        W32681  15.643  13.331  14.592  0.1511 -0.0331  0.0733
16498W        W32682   1.647   5.144   2.045 -0.3871  0.4009 -0.0357
16499W        W32683  15.278  14.150  14.209  0.2685  0.1143 -0.0375
16500W        W32684   3.243  16.909   2.752  0.1547  0.3475  0.1285
16501W        W32685  13.355   9.742  12.126  0.1055  0.2574  0.1442
16502W        W32686   2.847  12.352  14.962 -0.2587  0.0587 -0.0017
16503W        W32687   9.335  10.353  15.321  0.0139  0.2611 -0.1755
16504W        W32688   9.711   3.072  16.277 -0.0637  0.1083 -0.0672
16505W        W32689   2.813   6.148   4.273  0.0839 -0.1137 -0.0462
16506W        W32690   5.886  17.129   6.142  0.0959 -0.1236  0.4686
16507W        W32691   0.583   7.757  14.796 -0.5048 -0.0564  0.0707
16508W        W32692   6.074   2.394  11.989  0.2140  0.0478 -0.0540
16509W        W32693   0.277  10.911   1.854 -0.0030  0.0004  0.4333
16510W        W32694  15.439   5.471   3.541  0.0054  0.0005  0.0674
16511W        W32695   0.149  11.664   5.433  0.3347 -0.0843 -0.2406
16512W        W32696  11.298   1.782   0.550  0.1704  0.3868 -0.2036
16513W        W32697   7.198  12.366   1.919  0.2771 -0.1283  0.4701
16514W        W32698  10.993   2.535   5.332  0.0632  0.2125 -0.0702
16515W        W32699   0.067  14.244  14.925 -0.1778  0.1193 -0.0944
16516W        W32700  16.521   1.644  14.574 -0.1733  0.0901 -0.0380
16517W        W32701   2.220   9.487  13.046 -0.2011  0.3326  0.0202
16518W        W32702   0.136  14.815  15.644  0.0782  0.1073  0.1428
16519W        W32703  14.843  16.649  16.079  0.1203 -0.1280 -0.2754
16520W        W32704  16.246   8.557  11.559  0.0012  0.1223 -0.0523
16521W        W32705  11.092  12.855   4.658 -0.0294  0.3555 -0.0239
16522W        W32706  17.278  14.418   1.265  0.2122  0.0309  0.0547
16523W        W32707  12.262   3.596   2.522  0.0697 -0.1172  0.0487
16524W        W32708  15.649  16.248   1.418 -0.0198  0.0694 -0.2529
16525W        W32709  10.225  12.793  14.068  0.0148 -0.2933  0.0881
16526W        W32710   7.141   1.068  16.520 -0.2250  0.0701 -0.2444
16527W        W32711  16.400   7.601  11.535  0.0645  0.0733 -0.2309
16528W        W32712  12.550  17.722  11.315  0.0471 -0.0765  0.3389
16529W        W32713  16.554   9.814   3.877  0.0705  0.1066  0.1798
16530W        W32714  15.543   0.459  12.779  0.1671  0.0698 -0.3103
16531W        W32715  15.011  11.789  13.744  0.0593 -0.0614  0.1100
16532W        W32716   2.349   6.225   1.452 -0.0955 -0.0539 -0.1410
16533W        W32717  15.342   0.668  14.131  0.3874  0.1050  0.0577
16534W        W32718   9.521   3.026   5.698  0.2951 -0.1414 -0.3948
16535W        W32719  12.895  14.129   3.920  0.4741 -0.0218  0.1477
16536W        W32720  14.717   5.443  14.651  0.0916 -0.3458 -0.4131
16537W        W32721  11.785   9.561  12.720 -0.0574 -0.1178  0.0432
16538W        W32722   6.773   3.885  15.002 -0.1819  0.0014  0.0979
16539W        W32723   3.732  17.014  16.240  0.0347  0.2246  0.3124
16540W        W32724   1.825  15.463   3.974 -0.0115 -0.0916 -0.1330
16541W        W32725  16.948   3.566   1.327 -0.0082 -0.0093  0.1088
16542W        W32726  15.186   6.589  16.112  0.0511  0.0905 -0.0375
16543W        W32727  13.532  15.779   1.948  0.0676  0.0069 -0.1208
16544W        W32728  13.332  10.515   3.191  0.1423 -0.0588 -0.1471
16545W        W32729   9.690  11.645  15.664 -0.1765  0.0601 -0.0073
16546W        W32730   2.323   6.701   3.646  0.1080 -0.0399 -0.0193
16547W        W32731   1.352  15.392  14.525  0.2643  0.0347  0.0998
16548W        W32732   7.761   1.499  14.451 -0.0241 -0.1998  0.0201
16549W        W32733   3.415   7.389  11.664  0.0789  0.0645 -0.1632
16550W        W32734   1.097  12.395  15.390  0.0798  0.2112  0.2580
16551W        W32735   0.292   0.342   1.292  0.0264  0.0532 -0.0481
16552W        W32736   6.825  14.991  14.505 -0.2917  0.2080 -0.1257
16553W        W32737  16.037  17.777  14.098 -0.2133 -0.1434 -0.1813
16554W        W32738   1.954   2.219   0.392 -0.1295 -0.3409 -0.0019
16555W        W32739   6.819  10.437  14.176  0.0181  0.0026 -0.3470
16556W        W32740   6.954  17.350  12.536  0.1702  0.1703 -0.0601
16557W        W32741   2.186   9.705   5.448 -0.2331  0.1072  0.0671
16558W        W32742   4.240   0.025   5.091  0.3102 -0.0429 -0.1084
16559W        W32743   5.865   5.956   1.960  0.0476  0.0395 -0.0504
16560W        W32744  17.978   2.677  12.483  0.4684  0.0546  0.1238
16561W        W32745   6.762   9.445  14.857 -0.2740 -0.1564 -0.1336
16562W        W32746   5.104  10.784   3.782  0.1249  0.0747  0.3249
16563W        W32747  15.783   4.545   1.561  0.0899  0.1688  0.2662
16564W        W32748   2.480  15.517  15.253 -0.2245  0.0184 -0.0306
16565W        W32749   7.835  16.052   4.381 -0.2200 -0.0598 -0.1188
16566W        W32750   2.164   7.312   6.045 -0.3083  0.0963 -0.0333
16567W        W32751  15.378  16.749  11.352  0.0025 -0.1135  0.2154
16568W        W32752   7.942   9.347  15.735  0.2558 -0.0853  0.0075
16569W        W32753  16.756   1.837  12.861  0.3075 -0.2195  0.0433
16570W        W32754   1.008   3.239  15.675  0.0598  0.2834  0.1306
16571W        W32755  15.324   3.959   0.417 -0.2670 -0.0579  0.2379
16572W        W32756  13.820   3.150   3.236  0.0666 -0.0964  0.0371
16573W        W32757  11.913  12.157   0.975 -0.0674 -0.2113  0.0443
16574W        W32758  11.059   2.065   5.512 -0.0405  0.1064 -0.4013
16575W        W32759   7.513   3.162   0.296 -0.1312  0.1999  0.0352
16576W        W32760  14.967   5.104   2.238  0.0520  0.0385  0.0045
16577W        W32761   9.315  15.131  16.165  0.0124  0.0993 -0.1077
16578W        W32762  10.950  11.001   1.317 -0.2768 -0.1454 -0.1938
16579W        W32763   5.486   9.195   2.513 -0.0198 -0.1855  0.3871
16580W        W32764  10.036  11.779   3.824  0.1798  0.0122  0.1934
16581W        W32765   5.715   6.547  14.081 -0.3502 -0.0255  0.1261
16582W        W32766  16.364   0.042  16.471 -0.2314  0.2231  0.1118
16583W        W32767  10.890   1.700   2.556 -0.2832 -0.0827  0.0805
16584W        W32768   1.943  16.262   2.953 -0.0268 -0.1048  0.0288
16585W        W32769   6.050  14.702  13.933 -0.1612 -0.0520  0.2083
16586W        W32770   2.407   2.458   1.061  0.5172 -0.0942  0.1170
16587W        W32771  10.483  16.746  15.178 -0.2724  0.3965 -0.2285
16588W        W32772  10.390  13.172   1.973  0.1163  0.1940 -0.2662
16589W        W32773  18.056   4.662   1.185 -0.0894 -0.0232 -0.1703
16590W        W32774   6.297   7.532   5.458  0.2562 -0.0602 -0.0250
16591W        W32775  14.128   2.901   3.569 -0.0273  0.2174  0.3561
16592W        W32776  13.903  12.166  15.700  0.0727 -0.0839 -0.2336
16593W        W32777   1.285   6.720  13.711  0.0598  0.2393 -0.0179
16594W        W32778  17.524   6.984   2.865 -0.2568 -0.4427 -0.0962
16595W        W32779   2.015   0.695  11.667  0.2034  0.2770  0.1085
16596W        W32780  17.895   9.454  15.248  0.3333 -0.3766  0.0464
16597W        W32781   5.423  14.973  15.651 -0.4126 -0.0449  0.0235
16598W        W32782  17.954  15.379  13.012 -0.1317 -0.1246  0.0953
16599W        W32783   7.590  11.735  12.913 -0.2172 -0.0003 -0.0258
16600W        W32784  17.809  14.401  16.447  0.0461  0.1389  0.2417
16601W        W32785   9.460   3.764  14.525 -0.0980 -0.2634 -0.0264
16602W        W32786  16.791   1.226  11.993  0.2526  0.0355  0.0806
16603W        W32787  17.597   3.922  10.447 -0.1338 -0.1977  0.0569
16604W        W32788   4.807   7.572  16.326  0.1025 -0.0152 -0.0463
16605W        W32789  13.675   8.058   0.954 -0.2987  0.0661  0.0017
16606W        W32790   8.174  14.765   2.542  0.4980  0.1824  0.1034
16607W        W32791   7.059  15.573  13.789 -0.3379  0.0770 -0.0686
16608W        W32792  17.135   2.177  11.179  0.2632 -0.1047  0.2502
16609W        W32793  10.240  14.201   6.198 -0.0835 -0.1800  0.1177
16610W        W32794   5.306  16.795   1.595 -0.2356 -0.0590  0.2300
16611W        W32795   7.238  10.953   1.723  0.0284  0.1674  0.2304
16612W        W32796  17.848   7.737  15.357  0.1725 -0.0125 -0.0672
16613W        W32797   6.337  15.682   2.532  0.0895  0.0957 -0.2351
16614W        W32798   2.713  17.818  14.397  0.0306 -0.2014  0.0820
16615W        W32799   9.287   1.294   4.279 -0.2964 -0.0833 -0.1010
16616W        W32800   7.080  14.921  13.594 -0.0691  0.3277 -0.2069
16617W        W32801  11.368   0.786  16.174 -0.1809 -0.1679  0.0498
16618W        W32802  15.077  11.978  16.476  0.0750  0.1028 -0.0724
16619W        W32803  10.545  10.979   2.085 -0.0626  0.1029  0.2574
16620W        W32804  15.022   8.260   3.994  0.0175 -0.0289 -0.0136
16621W        W32805   4.653  11.423  13.805  0.3561 -0.0717 -0.2143
16622W        W32806  17.386   5.493   0.578 -0.0677 -0.2291  0.0701
16623W        W32807   6.889   5.892  12.009 -0.2110 -0.4188  0.0886
16624W        W32808   0.884   6.633  12.836 -0.2222 -0.0460 -0.2363
16625W        W32809   4.738   7.883   2.656  0.0197  0.1266 -0.3132
16626W        W32810  10.620  15.131  11.789  0.0273 -0.2257 -0.1178
16627W        W32811   4.676  12.224  14.267  0.1914  0.0529  0.0450
16628W        W32812   2.057   0.628  16.378 -0.0291  0.3164  0.0364
16629W        W32813  10.103   9.236  14.293 -0.2402  0.0968  0.0578
16630W        W32814   8.162  17.066  12.310  0.0226 -0.3632  0.0024
16631W        W32815   9.044   2.537   0.940 -0.3023 -0.0994  0.1193
16632W        W32816   1.751  17.761  15.139  0.0497  0.3512 -0.1293
16633W        W32817   1.758  13.128  14.311  0.3162 -0.0455 -0.1652
16634W        W32818  17.350   8.973   4.567  0.0011  0.4552  0.1075
16635W        W32819  11.891  13.275  15.947  0.0583  0.0069  0.1636
16636W        W32820  15.316  15.410  13.426 -0.1384  0.1594  0.1902
16637W        W32821  15.416   2.834  12.138  0.0064 -0.0548  0.0321
16638W        W32822  18.129  11.865  14.093  0.0153 -0.0225 -0.1299
16639W        W32823   5.473   1.425  16.472 -0.3556 -0.1569 -0.0199
16640W        W32824  17.698  12.871   2.625 -0.1753 -0.0039 -0.1345
16641W        W32825   2.722   3.694   1.861  0.0414  0.2127 -0.1423
16642W        W32826  17.836   3.055  15.152 -0.2199 -0.4362 -0.1417
16643W        W32827   4.362  14.587   5.879 -0.1725  0.0194 -0.1186
16644W        W32828   7.170   2.537   1.659 -0.1488  0.3178 -0.2894
16645W        W32829   7.321   9.088  12.913  0.0977 -0.0892 -0.0505
16646W        W32830   6.298   2.776  14.758  0.0233 -0.0378  0.0576
16647W        W32831  14.613  11.751  16.650  0.0181  0.0151 -0.1489
16648W        W32832  16.909   8.266   4.899  0.2542  0.1464  0.0083
16649W        W32833   7.745  14.443  16.124  0.2532  0.2148 -0.2780
16650W        W32834   8.129  11.669   0.278  0.0337 -0.0999 -0.1042
16651W        W32835   8.896   2.466  12.240 -0.0174 -0.3548  0.0198
16652W        W32836   2.521   0.039  10.780  0.4920  0.0494  0.1060
16653W        W32837   6.087   8.518  16.340  0.0725 -0.0677 -0.0175
16654W        W32838   9.379  16.621  13.864  0.0448  0.0132 -0.0446
16655W        W32839   2.329  15.630   1.127  0.0076 -0.3065  0.4022
16656W        W32840  14.190   0.099  15.450 -0.2396 -0.0562  0.2155
16657W        W32841   4.654   8.783  11.875 -0.3142  0.2285 -0.1463
16658W        W32842  14.916   9.051   4.201 -0.2511  0.0462 -0.0738
16659W        W32843   1.489   0.880   5.738 -0.3461  0.2148 -0.0147
16660W        W32844   3.820   4.954   5.378 -0.1133 -0.1335  0.1227
16661W        W32845  11.462  10.444   1.828  0.1445  0.2359 -0.1777
16662W        W32846  11.570   9.985  15.252  0.1976  0.1362  0.1154
16663W        W32847  14.647  16.926   4.881  0.2296 -0.3379 -0.1315
16664W        W32848   2.280   4.817  14.027 -0.3072 -0.3425 -0.1856
16665W        W32849   4.523   1.308  11.432 -0.1135  0.2305 -0.1463
16666W        W32850   1.971  13.387  16.293  0.0747 -0.0578 -0.0794
16667W        W32851  10.612  10.331  15.527  0.0338  0.1092  0.1146
16668W        W32852  14.768  10.789  16.311  0.1035 -0.1418  0.1176
16669W        W32853   1.517   6.496   0.699 -0.0125  0.5361  0.3040
16670W        W32854  14.081   1.142  14.066 -0.0078  0.1273 -0.2185
16671W        W32855  15.324   3.069   5.640  0.1218  0.1625  0.1599
16672W        W32856   4.220  13.262  15.637  0.1184  0.3093  0.4800
16673W        W32857   3.048   3.121  15.284  0.0095 -0.2431  0.0003
16674W        W32858   8.630   0.019  12.339 -0.0715  0.1607 -0.1908
16675W        W32859   2.431   2.820   2.125 -0.1871  0.4293 -0.3217
16676W        W32860   9.605   9.351  16.097 -0.1679  0.0475 -0.1728
16677W        W32861  14.375  10.912  16.089 -0.0588  0.0102 -0.0489
16678W        W32862   8.510  12.280  13.427 -0.1506 -0.0430  0.4223
16679W        W32863  17.843   2.144  12.197  0.1024 -0.2859  0.0779
16680W        W32864   1.496  15.584  14.993 -0.2257  0.1948 -0.2202
16681W        W32865   0.065   7.473  10.964 -0.2794 -0.0467 -0.0078
16682W        W32866   4.414  17.353   4.444  0.3301  0.1499  0.3069
16683W        W32867   5.068   7.736  12.697  0.0053  0.0099  0.3651
16684W        W32868   3.982   1.506  12.474  0.2791 -0.0560  0.0229
16685W        W32869   4.932   4.123   3.949  0.1303  0.0690 -0.0222
16686W        W32870  10.841  17.632  12.006 -0.0208 -0.1290  0.0292
16687W        W32871   2.434  12.293  13.389 -0.1560  0.2873  0.0660
16688W        W32872   1.126  17.706  16.445  0.4718 -0.1736 -0.1477
16689W        W32873  12.985   4.533   5.790 -0.1508 -0.0147 -0.2297
16690W        W32874   5.758  17.146  15.558 -0.0462 -0.0452 -0.0522
16691W        W32875   0.536  14.663   4.757 -0.0349 -0.4766 -0.1754
16692W        W32876  12.640  16.467  14.589 -0.1250 -0.2150 -0.0542
16693W        W32877  15.420  15.396  15.799  0.2168  0.0622 -0.1220
16694W        W32878  17.160   3.549  11.361  0.1572 -0.0508 -0.3534
16695W        W32879   4.146   7.611  16.127  0.1373 -0.2667 -0.0991
16696W        W32880  17.010   5.810  11.524 -0.0140 -0.1137 -0.1848
16697W        W32881   9.437  11.010  14.020 -0.1802  0.1290 -0.1408
16698W        W32882   1.195   9.306  14.327 -0.1108 -0.3069  0.1137
16699W        W32883  12.246   2.449   4.480 -0.2777 -0.0684 -0.0464
16700W        W32884   6.640   9.789  14.474 -0.0042  0.2830  0.1444
16701W        W32885  11.748   9.057  12.906  0.1239 -0.0300 -0.2436
16702W        W32886   0.905   4.643  12.574 -0.0606  0.1342 -0.2209
16703W        W32887   0.176  15.645  11.722 -0.0202  0.0761 -0.2711
16704W        W32888   0.032   3.154   0.087 -0.0142  0.3051  0.0060
16705W        W32889   4.978  10.712   4.326 -0.2240  0.1428 -0.1365
16706W        W32890   0.677   9.261   0.182  0.1628 -0.0297 -0.0179
16707W        W32891  11.902   7.164  11.127  0.2577 -0.1007  0.0202
16708W        W32892   1.822   6.668   0.163  0.1640  0.1249  0.0169
16709W        W32893   1.315  17.814  11.034  0.0723 -0.0388 -0.3648
16710W        W32894   6.094  13.931  12.196 -0.2947  0.2706  0.1458
16711W        W32895  18.085   7.974  12.285  0.1095 -0.1271 -0.2032
16712W        W32896  12.268  11.603   3.179 -0.2262 -0.2762 -0.2746
16713W        W32897  14.495   7.146  13.554  0.2313  0.0187 -0.1946
16714W        W32898   2.700   3.351   2.869  0.2683  0.3597  0.0048
16715W        W32899  13.092  11.836   0.245 -0.0319 -0.0906  0.0742
16716W        W32900   2.887  17.054  16.369  0.0288  0.0000  0.0664
16717W        W32901   8.364   3.954  15.723 -0.0813 -0.0618 -0.1564
16718W        W32902  16.147   5.515  12.214 -0.1631  0.3506  0.1466
16719W        W32903  14.891  15.022  14.585  0.1404  0.0289 -0.0778
16720W        W32904   7.829   8.962   4.385  0.1095  0.0828  0.0766
16721W        W32905   4.912   3.879   4.452  0.1748 -0.1168  0.0641
16722W        W32906   3.595  16.298  13.394 -0.0674 -0.2521 -0.0462
16723W        W32907  13.931   5.098   0.404  0.1490 -0.0671  0.3996
16724W        W32908   8.073  16.546  15.310 -0.0816  0.1378  0.5105
16725W        W32909  11.010   6.764   4.748  0.4193  0.3517 -0.0719
16726W        W32910  17.612   1.143   3.889 -0.0836 -0.0421  0.1082
16727W        W32911  10.095   8.029   4.787  0.4393  0.2156 -0.0180
16728W        W32912   8.442  11.752  13.450  0.0462  0.2315  0.2834
16729W        W32913   5.655   6.600   0.576  0.0995 -0.0146 -0.0169
16730W        W32914   6.424   2.993  12.942  0.2427 -0.2418  0.0901
16731W        W32915  15.422  16.671  16.408 -0.3412  0.2202  0.0075
16732W        W32916  11.560  12.048   0.429  0.2425 -0.0646 -0.0489
16733W        W32917  10.784  10.058   0.335  0.0140  0.1967  0.2394
16734W        W32918   9.049   3.742   1.264  0.0039  0.0114 -0.1170
16735W        W32919   9.244   1.403   1.313 -0.1460 -0.0941  0.2308
16736W        W32920   4.865   8.517   5.036  0.1738  0.1426  0.0859
16737W        W32921  11.036   4.971  15.219  0.0619  0.0536  0.4373
16738W        W32922   5.398   6.553   1.218 -0.0261  0.0421  0.1104
16739W        W32923  12.314  17.434   2.407  0.0710 -0.0274  0.0716
16740W        W32924   2.325  16.643   3.007  0.3079  0.0498  0.1049
16741W        W32925  14.026  17.914   5.274 -0.1078 -0.2458 -0.1442
16742W        W32926   4.077   3.687   1.803  0.0164  0.0216 -0.3239
16743W        W32927  14.929   9.238  15.337  0.0888  0.1620 -0.1472
16744W        W32928   8.309  10.869   6.293 -0.2967 -0.4661 -0.0139
16745W        W32929  16.745  17.330  12.099  0.0830  0.0146 -0.3584
16746W        W32930   5.543   8.332   3.258 -0.1814  0.0495 -0.0834
16747W        W32931   6.408  13.744   6.080  0.1479  0.1489 -0.0732
16748W        W32932  12.770  12.283  12.241  0.1471  0.1230 -0.1892
16749W        W32933   8.856  15.686  14.957 -0.0235  0.4586  0.0365
16750W        W32934  16.441  13.600  13.431 -0.5429  0.0928 -0.2100
16751W        W32935   1.983   8.183   1.524  0.1562  0.0459 -0.0711
16752W        W32936  17.353  16.724   5.616 -0.0693  0.2750  0.2021
16753W        W32937  18.021   2.200   4.149 -0.0405 -0.1812 -0.0935
16754W        W32938  11.828   6.947  14.609 -0.0805 -0.1869  0.0313
16755W        W32939   6.959  11.574   4.387  0.3198 -0.0887  0.0817
16756W        W32940   7.898  10.917   5.906  0.1151  0.0746 -0.0665
16757W        W32941  12.423   7.868  12.854 -0.0981  0.0405 -0.1359
16758W        W32942   1.941  17.060  14.585  0.2303  0.2446 -0.1435
16759W        W32943   9.386   2.538   3.663 -0.1349 -0.1689  0.1353
16760W        W32944   8.501  18.122   3.200  0.0132 -0.2207  0.2193
16761W        W32945   0.256  17.103   1.625  0.0136  0.2537 -0.2066
16762W        W32946   2.903   8.580  11.573 -0.1359 -0.5276 -0.1182
16763W        W32947  17.622   7.352  14.839 -0.0180 -0.1300  0.0586
16764W        W32948  16.324  13.618  11.741  0.1871  0.2325 -0.0760
16765W        W32949  13.898   7.275   2.836  0.3021 -0.1813  0.1099
16766W        W32950  10.558  11.085   4.483  0.2858  0.2227  0.2091
16767W        W32951   1.449   1.590  11.439 -0.0130 -0.2729  0.1277
16768W        W32952  17.761   6.196  15.485 -0.2438  0.1310  0.0245
16769W        W32953  15.025   1.964   0.707 -0.2562  0.3671  0.1201
16770W        W32954  13.976  10.161   0.943  0.1661 -0.3837 -0.0654
16771W        W32955   2.544  10.059   0.363  0.0944  0.3718  0.0661
16772W        W32956   6.683   1.342   4.651  0.0795  0.1368  0.2365
16773W        W32957   5.470  11.058   4.914  0.1831 -0.1873 -0.1279
16774W        W32958   4.331  11.767  14.108 -0.0621 -0.1526  0.1126
16775W        W32959   6.011  12.826   3.052  0.3859 -0.0086  0.1649
16776W        W32960   8.107  10.420  16.523 -0.0055 -0.0533  0.1972
16777W        W32961  15.488   2.892   4.451 -0.0911 -0.2607  0.0612
16778W        W32962   1.746  13.642  15.195  0.1551 -0.2992 -0.1269
16779W        W32963  15.280  10.854   2.146 -0.0707  0.0022 -0.1802
16780W        W32964   6.906   4.928  13.018  0.0638 -0.0570  0.0542
16781W        W32965   5.996  18.153   3.178  0.3229 -0.3057 -0.0626
16782W        W32966   2.856   6.463  14.589  0.1747 -0.1367  0.0789
16783W        W32967  15.025  16.661  11.718 -0.1139 -0.2027  0.1882
16784W        W32968  14.476  12.959   1.452  0.1755  0.0721 -0.0460
16785W        W32969   3.752   3.280   5.028  0.1140  0.1013 -0.1921
16786W        W32970  16.546   3.512  15.821  0.1826 -0.3731  0.1086
16787W        W32971   2.748   9.696  16.249  0.1417 -0.1110  0.1099
16788W        W32972   0.930   9.021   1.994 -0.1276 -0.0687 -0.6597
16789W        W32973   3.719   5.554   1.738 -0.2975  0.1613 -0.0281
16790W        W32974  13.103  15.930   3.414  0.0856  0.2042 -0.0104
16791W        W32975   4.954   6.732  14.072  0.2307  0.0117  0.0044
16792W        W32976   7.699  14.525  15.609  0.0179  0.0533  0.0411
16793W        W32977   1.677  10.057  13.086  0.1252  0.0764  0.1664
16794W        W32978   5.317  12.799  12.012 -0.2159  0.4232  0.1238
16795W        W32979   5.871  10.504   1.936 -0.1803 -0.1419  0.0110
16796W        W32980  17.188  10.218  14.284 -0.2362 -0.0125  0.2460
16797W        W32981  12.339  15.232   3.287 -0.0613  0.1546  0.3971
16798W        W32982   4.554   2.055   2.906  0.2435 -0.0580 -0.4352
16799W        W32983   8.780  12.494   4.997 -0.0455  0.3480 -0.2975
16800W        W32984  10.707  12.658   5.696 -0.3587 -0.0977 -0.0730
16801W        W32985   7.276  10.188   0.753  0.1439  0.1307 -0.0605
16802W        W32986   7.280   3.638   0.489  0.2619  0.2212 -0.2975
16803W        W32987   9.746   5.062   3.375  0.0847 -0.1339  0.1441
16804W        W32988  17.126  13.388  15.098  0.4610 -0.0288  0.2100
16805W        W32989   7.734   4.369   2.015 -0.1072 -0.1391 -0.3149
16806W        W32990   5.720  13.226  16.192  0.1871  0.1878 -0.2903
16807W        W32991   8.541   1.180  14.195 -0.2690 -0.2017 -0.0668
16808W        W32992  10.331  14.981  14.616 -0.2563 -0.1641  0.2863
16809W        W32993   2.565   8.364   1.059 -0.1208 -0.4226  0.1254
16810W        W32994   9.246   9.382  16.445  0.0702  0.0592  0.2875
16811W        W32995   6.740   3.383  14.472  0.0126 -0.0209 -0.1727
16812W        W32996  16.312  16.957   3.337 -0.3710 -0.0221  0.0484
16813W        W32997   3.766   2.770   4.418 -0.0114 -0.1268  0.0574
16814W        W32998   5.739   1.507  15.800  0.0394  0.0222  0.0599
16815W        W32999   8.294   8.122  15.834 -0.0604  0.1320  0.2478
16816W        W33000   1.453   3.096  13.182 -0.1200 -0.3626  0.0772
16817W        W33001   0.305  13.696  16.071  0.1893  0.0405 -0.2344
16818W        W33002   1.541  12.998  13.888 -0.1035  0.2498  0.2043
16819W        W33003   3.560   0.127  14.169  0.0188  0.0038 -0.0089
16820W        W33004   0.650   3.869   5.686  0.0529  0.0122 -0.1231
16821W        W33005   6.646  11.053   0.520 -0.4167  0.0563 -0.1197
16822W        W33006   0.798   0.915   0.377 -0.2639 -0.1151  0.2527
16823W        W33007   0.349  10.934  14.463 -0.2326 -0.3050 -0.3708
16824W        W33008  14.320   3.659   5.584  0.2489  0.1150 -0.2884
16825W        W33009   1.127  17.808  14.642  0.1427  0.2647 -0.2431
16826W        W33010   2.073  13.512  14.840 -0.1549  0.2844  0.2109
16827W        W33011  15.581  15.497   2.819 -0.0300 -0.0743  0.1663
16828W        W33012   1.791   1.126  11.918  0.3433  0.0342 -0.1364
16829W        W33013  16.807  15.357  15.344  0.1406  0.1822  0.1030
16830W        W33014   5.469  14.257  12.869  0.0779  0.1604  0.1028
16831W        W33015  11.972  13.041  15.448 -0.1058 -0.3064 -0.0348
16832W        W33016  13.073   7.823  12.488  0.0064 -0.3108 -0.2411
16833W        W33017   9.653  12.511   0.245  0.1537 -0.1315 -0.1004
16834W        W33018   9.771   6.599  16.365 -0.0992  0.2227 -0.0629
16835W        W33019   6.425   1.011   4.408 -0.0122 -0.1142  0.0829
16836W        W33020   1.711   0.956   2.993 -0.2012 -0.3198  0.0873
16837W        W33021   2.567   5.574   2.042 -0.3148 -0.5602  0.3055
16838W        W33022   7.833  13.019  13.620  0.0006 -0.2681  0.1903
16839W        W33023  17.085   3.584  14.966 -0.1564 -0.1705 -0.2717
16840W        W33024   4.290  12.523   1.370 -0.2640 -0.0810  0.2050
16841W        W33025   7.770   0.952   1.929 -0.3064 -0.0292 -0.2844
16842W        W33026   0.985   9.879   1.278 -0.0024  0.1046 -0.0585
16843W        W33027  14.000  11.299  12.045 -0.0599  0.0338  0.1716
16844W        W33028  11.540  11.574  13.429 -0.0074  0.1205  0.1704
16845W        W33029  14.586  11.487   2.349  0.2542 -0.1591 -0.1844
16846W        W33030   5.457   3.718  15.749  0.1596  0.2007 -0.0512
16847W        W33031  15.342   5.446  15.686  0.2187 -0.3450 -0.3027
16848W        W33032   0.447  13.130  13.800 -0.1082 -0.3093  0.1671
16849W        W33033  10.214   9.622  12.794  0.1166 -0.0608 -0.0269
16850W        W33034   1.256   9.428   4.910  0.1334 -0.0099  0.0601
16851W        W33035   8.553   2.526   0.963 -0.0845 -0.0960 -0.1282
16852W        W33036   3.163   8.992   2.969  0.4369 -0.0207 -0.0342
16853W        W33037   1.181  12.963  13.530 -0.2114  0.6965  0.1112
16854W        W33038  15.579   0.346  11.792 -0.0189 -0.0703 -0.0285
16855W        W33039   9.081   4.148   4.492 -0.0162  0.0078  0.0806
16856W        W33040  10.408   2.030   5.036 -0.1648  0.1263 -0.1020
16857W        W33041   8.997   4.251   3.923  0.2473  0.0706 -0.0116
16858W        W33042   0.533  15.935   4.074 -0.5017 -0.2365 -0.1429
16859W        W33043  18.163  16.103  13.652  0.1001 -0.4329 -0.2818
16860W        W33044  18.123   8.032  16.247 -0.2410  0.0814 -0.1201
16861W        W33045  16.765  17.689  11.735 -0.0657  0.4110  0.0180
16862W        W33046  12.886   0.405  16.157  0.1118 -0.1644  0.0805
16863W        W33047  14.918  12.946   3.048 -0.0265  0.3735 -0.0465
16864W        W33048   4.831  16.696  13.193  0.1288  0.1419 -0.2671
16865W        W33049  17.800   4.988  14.902 -0.2943 -0.2021  0.0478
16866W        W33050   1.587  11.543   4.733  0.2308 -0.4039  0.4152
16867W        W33051  17.866  17.771  13.638  0.3799  0.1461 -0.2050
16868W        W33052   6.892  14.080   3.667 -0.0877  0.0729 -0.2266
16869W        W33053  15.575  14.474  16.351  0.4971 -0.0627 -0.3331
16870W        W33054   7.030  14.821   0.488  0.2381  0.0163  0.2585
16871W        W33055  10.234   7.864   2.693  0.0523  0.3997  0.2047
16872W        W33056   9.162  13.249  15.020 -0.0550 -0.0832  0.0512
16873W        W33057   3.302  16.176   5.394 -0.1716  0.1570  0.3954
16874W        W33058  16.315   0.986  12.783  0.1027 -0.1662 -0.2156
16875W        W33059   2.321  14.641   4.020  0.3271  0.1553 -0.3146
16876W        W33060  18.016   7.137  13.526 -0.1659 -0.0107  0.0830
16877W        W33061   9.424  15.502  14.113  0.1507  0.0028  0.1152
16878W        W33062   0.743   8.861  14.854 -0.0974  0.1032  0.1358
16879W        W33063  12.532  12.537  15.179 -0.2381 -0.0725  0.1820
16880W        W33064   5.401   0.657  12.185 -0.0626  0.1555 -0.0440
16881W        W33065   2.401  15.434  12.063  0.0815  0.0658 -0.2423
16882W        W33066   9.569   6.845  11.746  0.0113 -0.0479  0.1941
16883W        W33067   9.040  13.712  15.135  0.0166  0.0516  0.2888
16884W        W33068  17.068  12.826   0.641  0.1916  0.1106  0.2358
16885W        W33069   8.670   5.411  14.300  0.0674 -0.3147  0.3747
16886W        W33070   0.240   0.946  12.748  0.3542  0.1025 -0.1330
16887W        W33071   6.196   9.947   2.951 -0.0980  0.0637 -0.0816
16888W        W33072   9.346   5.284  13.242 -0.0301 -0.0604 -0.2158
16889W        W33073   5.336  14.748   1.911  0.3027 -0.3321 -0.3632
16890W        W33074  10.863  11.711   0.251  0.1535 -0.3101  0.0429
16891W        W33075   5.355   9.328   5.710 -0.0737 -0.2377  0.0843
16892W        W33076  10.704  13.472  14.199  0.0094  0.0313  0.0091
16893W        W33077   9.909   3.162  12.685 -0.2283  0.2686  0.0101
16894W        W33078  11.017  13.421  13.345  0.0978  0.0020  0.1210
16895W        W33079   1.166  15.049   2.033 -0.2136 -0.0571  0.1006
16896W        W33080  14.835   0.971  12.107 -0.0516 -0.0091  0.0112
16897W        W33081   2.138  13.529   5.143 -0.0947 -0.4702 -0.0068
16898W        W33082  12.176   0.709   2.108 -0.0868 -0.0157 -0.0158
16899W        W33083   1.078  18.114   0.620 -0.2660 -0.1703 -0.1050
16900W        W33084  13.393   5.168  13.366 -0.1395 -0.2250 -0.2085
16901W        W33085  11.814   2.060   4.540  0.0848  0.3397  0.1675
16902W        W33086   0.643   8.091   2.209 -0.0086 -0.1168 -0.0307
16903W        W33087  12.595   4.117  16.674 -0.5286  0.2322 -0.0090
16904W        W33088  12.058  12.031  12.990  0.2247  0.1093  0.2426
16905W        W33089   2.449  10.307   3.029  0.0449 -0.0640  0.1572
16906W        W33090   0.700  14.156   1.471 -0.0407 -0.0261 -0.3964
16907W        W33091   8.551  16.872   2.579 -0.1163 -0.2119  0.0594
16908W        W33092  11.009   0.836  13.356 -0.1449  0.0236  0.3135
16909W        W33093   8.218   4.655   2.129  0.0055  0.1804  0.0017
16910W        W33094   0.551   6.958  14.442  0.1038 -0.2649  0.3557
16911W        W33095   6.484   9.172  12.262  0.3148 -0.1345  0.2509
16912W        W33096   0.376  11.405   1.803 -0.0594  0.1695  0.1271
16913W        W33097  15.276   8.153   2.000 -0.1661 -0.1717 -0.1092
16914W        W33098   0.302  13.473  14.712 -0.0351 -0.0435 -0.0371
16915W        W33099   4.113  16.431   4.914  0.1406  0.0674  0.1292
16916W        W33100  12.982  14.150  11.861 -0.0151 -0.3179 -0.0020
16917W        W33101   1.679   3.611   3.103  0.1592  0.1767  0.2616
16918W        W33102   2.941   6.235   0.448 -0.0686  0.2451  0.2118
16919W        W33103   3.105   4.042  12.782  0.1124  0.0374  0.0612
16920W        W33104  12.006   2.735  15.558  0.0937 -0.0068 -0.0803
16921W        W33105   8.282   9.384  16.346 -0.2950 -0.1169  0.3020
16922W        W33106  15.863   1.865  11.806 -0.1732  0.4964  0.2607
16923W        W33107   4.051  11.300  12.538 -0.1279 -0.1735 -0.0551
16924W        W33108   6.479  11.519  16.531  0.0068  0.0141 -0.0422
16925W        W33109   8.990  14.733  13.439  0.0316 -0.1474 -0.1526
16926W        W33110   9.613   3.550   0.569 -0.2299  0.2038  0.2610
16927W        W33111   4.295  12.193  11.998 -0.1935 -0.1677  0.1203
16928W        W33112   1.983  15.058   2.073 -0.3174  0.1722  0.2660
16929W        W33113   1.319   4.265   3.888  0.0708 -0.2313  0.0284
16930W        W33114  16.921   3.915  14.042  0.1771  0.3700  0.0226
16931W        W33115   0.170  10.742  14.047 -0.0917  0.4407 -0.0584
16932W        W33116  11.092   3.991  12.215 -0.2751  0.1080  0.0932
16933W        W33117   2.575   7.787  15.881  0.3756  0.0466 -0.2719
16934W        W33118  10.126   4.156  11.715 -0.0166  0.0251  0.1428
16935W        W33119  16.636   2.191   1.258 -0.0465  0.0483 -0.3091
16936W        W33120   3.685  15.839  12.045  0.1079  0.1834  0.0727
16937W        W33121   4.399  13.589   3.637 -0.2976  0.0218  0.2295
16938W        W33122  13.052  15.019   5.648  0.2098  0.1025 -0.1414
16939W        W33123  13.619  16.363  14.519 -0.0023 -0.2273  0.1499
16940W        W33124   0.552  15.137  15.795  0.1982  0.0819  0.0302
16941W        W33125   1.615   1.911   1.370 -0.3495 -0.0651  0.0013
16942W        W33126   6.348  15.652  12.806 -0.1188 -0.0663  0.0908
16943W        W33127   3.686   5.803   3.540 -0.2444 -0.1999  0.0283
16944W        W33128  11.708  12.939   0.029  0.0268 -0.0969  0.0264
16945W        W33129  18.069   9.345  14.077 -0.2318  0.0135  0.1492
16946W        W33130   2.362   0.461  12.188  0.2194 -0.0505  0.0402
16947W        W33131  15.863  14.943   4.800  0.3063 -0.1171 -0.0151
16948W        W33132   3.496  10.749  14.682 -0.1332 -0.0987  0.2236
16949W        W33133  15.384   9.336   3.072 -0.0756 -0.2040  0.2359
16950W        W33134  10.954  17.932  13.830 -0.0776  0.0028 -0.0476
16951W        W33135  10.411   2.171   1.168 -0.2711 -0.2144  0.1580
16952W        W33136   3.498   4.155  13.492  0.3900 -0.0978 -0.4013
16953W        W33137  11.839   1.278  14.999 -0.1203 -0.0768  0.3268
16954W        W33138   4.436  14.244  14.549  0.0997  0.1511  0.1940
16955W        W33139  13.005   0.374  12.659 -0.0268 -0.1640 -0.1781
16956W        W33140  15.015   5.715   4.310  0.0882  0.0766  0.0924
16957W        W33141   5.771   6.198  12.747  0.1504  0.1217  0.0425
16958W        W33142   4.847   9.724   1.702  0.3754  0.0511  0.3301
16959W        W33143   1.669  12.679   6.035 -0.1403 -0.2381  0.1904
16960W        W33144   6.470  17.358  12.549  0.2119  0.0432  0.2728
16961W        W33145  13.495   1.131   4.319 -0.0474 -0.0398  0.4570
16962W        W33146   8.118   2.247   0.790 -0.1929  0.2570 -0.4434
16963W        W33147   4.260  15.592  15.685  0.1065 -0.0592  0.1345
16964W        W33148   9.996  10.337   2.318  0.0053 -0.0410 -0.3571
16965W        W33149   8.293  11.695  15.799  0.4391 -0.0665  0.0547
16966W        W33150   3.187  11.257  13.599  0.0691  0.3787  0.0026
16967W        W33151  10.517   1.062  15.447 -0.2008  0.0093  0.1012
16968W        W33152  15.159   8.115   3.148 -0.3301  0.0936  0.3145
16969W        W33153  11.887   3.225  16.438 -0.1734 -0.2091 -0.1578
16970W        W33154  13.740   6.860  11.898  0.1976 -0.1800 -0.0945
16971W        W33155  17.226   8.643   4.123  0.0881  0.0872 -0.0687
16972W        W33156  17.383   4.639   0.373 -0.2013  0.3474 -0.0112
16973W        W33157  10.143   4.955   2.981  0.0068 -0.0279 -0.3193
16974W        W33158  14.385   3.872  16.641 -0.3945 -0.1374  0.1937
16975W        W33159  16.600  12.476  11.214  0.0296  0.1730 -0.3120
16976W        W33160   0.405   2.542  12.501 -0.3761  0.1778 -0.0448
16977W        W33161  13.853  13.669   0.696 -0.2024  0.2110  0.3619
16978W        W33162   3.648   1.877  12.285 -0.0602  0.0868 -0.2955
16979W        W33163  13.901  16.074   0.210 -0.3005 -0.0024  0.0605
16980W        W33164   0.380   3.209   0.998  0.0652 -0.0818  0.1300
16981W        W33165   5.304   9.668   3.113  0.2859  0.1927 -0.1680
16982W        W33166  15.228  15.569  14.887 -0.0572  0.0316 -0.0458
16983W        W33167  12.799   2.437  15.640  0.2185  0.1064 -0.1015
16984W        W33168  16.717  15.319   1.534 -0.1022  0.1183 -0.0856
16985W        W33169  12.618  16.473  11.213  0.0770 -0.0425 -0.0393
16986W        W33170   7.254  16.667   2.891 -0.1926  0.1510  0.2079
16987W        W33171  13.323  15.045  15.121  0.4662 -0.0273  0.3009
16988W        W33172   5.281   9.150   4.842 -0.1473 -0.2045  0.0072
16989W        W33173  15.787  12.156   5.359 -0.1265 -0.0310 -0.1016
16990W        W33174   6.381   6.716   5.121  0.0301  0.1350  0.0462
16991W        W33175   6.732  11.149  11.970  0.0605  0.1281 -0.0076
16992W        W33176   8.600  12.922   3.366  0.0168 -0.0507  0.2440
16993W        W33177  13.087  13.418   2.847 -0.0802  0.0735 -0.1044
16994W        W33178  10.394  14.720   1.523 -0.1337  0.2033  0.0616
16995W        W33179   5.356   1.929  12.392  0.1190  0.0275 -0.0095
16996W        W33180  13.315  14.730   2.125 -0.0925 -0.1912 -0.2102
16997W        W33181  11.692  13.625  12.020  0.2996 -0.1970 -0.2026
16998W        W33182   2.090   3.821   0.525  0.0249  0.1952 -0.1618
16999W        W33183   0.804  14.408  13.671  0.2784  0.1624 -0.0019
17000W        W33184  17.733  14.403   1.516  0.1001  0.0660  0.3087
17001W        W33185   4.199   4.622  15.820  0.1951  0.3740  0.0441
17002W        W33186   7.765   6.967  16.280  0.2687  0.0345 -0.4609
17003W        W33187   2.985  12.296   0.132  0.0841  0.0622 -0.1846
17004W        W33188  14.064  14.612   5.748  0.2395 -0.1709 -0.3167
17005W        W33189  13.240   5.599  11.823 -0.0838 -0.0614  0.0393
17006W        W33190  10.166   1.946   2.351 -0.1081 -0.0639  0.1432
17007W        W33191   3.127   1.258  15.103  0.0279  0.0186 -0.1896
17008W        W33192  13.577  10.054  11.815 -0.0861  0.2780  0.2640
17009W        W33193   9.051   0.449  11.480 -0.0365  0.0739  0.0842
17010W        W33194  11.275  11.251   3.328 -0.1012  0.1073  0.1094
17011W        W33195   8.020   2.562   3.626  0.0638 -0.1367  0.0014
17012W        W33196  14.292  15.493   5.344  0.5264 -0.2862  0.1362
17013W        W33197   8.561  16.032   2.153 -0.1620 -0.0709  0.0783
17014W        W33198  16.589   1.413  11.579 -0.2471  0.0329  0.0008
17015W        W33199  17.875  14.779  13.665 -0.1396  0.1994 -0.2666
17016W        W33200  16.376   8.794   3.872  0.0147 -0.1306  0.0004
17017W        W33201  12.798   5.670  15.254 -0.0435  0.1109 -0.1066
17018W        W33202  16.309   7.151  11.801 -0.2618 -0.0772  0.2061
17019W        W33203   4.051   8.362  15.632 -0.1176 -0.1980 -0.0291
17020W        W33204   8.503  16.239   5.174 -0.0065 -0.0423 -0.3326
17021W        W33205  11.562   6.065   2.133  0.2049 -0.1573 -0.1806
17022W        W33206  10.030  13.909  13.002 -0.3542  0.1701  0.1530
17023W        W33207   2.379   7.340  13.615  0.0640  0.1217 -0.1934
17024W        W33208   3.172   4.704   4.054 -0.1185 -0.0912 -0.4600
17025W        W33209  16.066   9.629  15.479 -0.3563  0.0744 -0.1019
17026W        W33210   1.724   3.731  14.393 -0.1494  0.1186 -0.1348
17027W        W33211  16.725   9.105   0.453  0.1217 -0.0859  0.3198
17028W        W33212   0.730  13.976  12.801 -0.2345 -0.3049  0.2837
17029W        W33213  11.219  16.380  11.642 -0.0663 -0.0452 -0.0414
17030W        W33214   1.669  10.776   2.091 -0.3001  0.1507 -0.3671
17031W        W33215  17.417  10.497  15.621  0.2173  0.2853  0.0928
17032W        W33216  13.315  15.349  13.639 -0.1380 -0.1888 -0.1784
17033W        W33217  10.576  12.539   3.349 -0.3823  0.0674  0.0884
17034W        W33218   6.280   2.385  15.033  0.0499 -0.2571 -0.0200
17035W        W33219  15.433   6.917   1.938 -0.0970  0.1860 -0.0184
17036W        W33220  15.165   9.339  15.760 -0.1244  0.1081 -0.4662
17037W        W33221   4.148   6.683  15.979 -0.4742  0.0569 -0.0017
17038W        W33222   4.507  13.578  12.880 -0.1107 -0.2870 -0.3514
17039W        W33223  11.590   8.501   0.586  0.2003  0.1763  0.1271
17040W        W33224  15.096   2.818  11.102 -0.1573  0.2091 -0.0717
17041W        W33225  10.675   2.865  14.232 -0.1432  0.2663  0.0306
17042W        W33226  16.350   4.133  14.717  0.2450  0.1406  0.1332
17043W        W33227  16.795  15.035   2.548  0.1291  0.3157 -0.2243
17044W        W33228   3.646  13.215  15.000  0.1810  0.0980 -0.5675
17045W        W33229   0.092  11.573  12.314  0.0687 -0.1210  0.0558
17046W        W33230   4.933   6.353  16.309  0.2040 -0.2460  0.0043
17047W        W33231   6.713  16.736   1.677 -0.0240  0.1883 -0.2414
17048W        W33232  14.997   4.806   4.891  0.0539  0.1214  0.3786
17049W        W33233  15.269  10.952   2.750  0.0654 -0.2399 -0.1697
17050W        W33234  16.439  15.097   2.106  0.3591 -0.1394 -0.1575
17051W        W33235   5.668   7.586   4.259 -0.0280 -0.2192  0.0848
17052W        W33236  14.818  17.601   1.222 -0.1862  0.2385  0.1316
17053W        W33237   0.207  15.129   3.613  0.2451 -0.1120 -0.1240
17054W        W33238   4.891   0.794  13.064 -0.3578 -0.0181  0.2547
17055W        W33239   8.701   3.323   2.587 -0.3031 -0.0591  0.2717
17056W        W33240  16.464   1.275   1.784  0.2408  0.0143  0.0751
17057W        W33241  17.491   1.835  11.545 -0.1624 -0.0617 -0.2478
17058W        W33242  18.026   0.536  14.951  0.0669 -0.0359 -0.0283
17059W        W33243   7.865   8.538   1.504  0.2760 -0.2522 -0.0811
17060W        W33244   1.866   3.780   0.981 -0.3170 -0.0111  0.2526
17061W        W33245  13.338   2.169   1.769 -0.1369  0.1207 -0.1196
17062W        W33246   7.667  11.036   2.979 -0.2702 -0.0606  0.1074
17063W        W33247   3.650  15.164   0.246 -0.1176  0.2042  0.3050
17064W        W33248   2.972   8.496   5.341 -0.1700  0.3636 -0.3603
17065W        W33249   0.285  16.580   3.444  0.0139  0.0509  0.1882
17066W        W33250  10.297  11.757   5.215  0.0059  0.3669 -0.0673
17067W        W33251  15.527   1.328   5.496  0.0236 -0.1784  0.1665
17068W        W33252  10.109   7.608   1.778  0.2550  0.1513 -0.1343
17069W        W33253  17.911   0.660  13.415 -0.0104 -0.2427 -0.1658
17070W        W33254  14.100   2.048   1.031 -0.0572 -0.1405 -0.2287
17071W        W33255  15.488  13.008   3.851  0.0227 -0.1609  0.0976
17072W        W33256   5.460  11.921   1.592  0.0158 -0.0880  0.2723
17073W        W33257   6.867  13.582   2.307 -0.2240 -0.0693  0.0594
17074W        W33258  14.241   8.115  13.715  0.1227 -0.3119 -0.1637
17075W        W33259  11.717   8.377   1.109  0.0387 -0.1608 -0.1651
17076W        W33260   6.961   6.447   3.290  0.0941 -0.1076  0.0524
17077W        W33261  18.166   3.818  13.448 -0.0732  0.2692 -0.0919
17078W        W33262   7.533  14.036   1.205  0.2456  0.2645  0.0357
17079W        W33263  12.402   9.098   3.537  0.4118 -0.0236 -0.0637
17080W        W33264  14.092   7.409   0.718  0.0016 -0.2021 -0.0223
17081W        W33265  17.243  15.780   2.554  0.1865 -0.1349  0.0350
17082W        W33266   1.352  15.122   3.912  0.0347  0.1654  0.0245
17083W        W33267  10.088   1.298  15.177  0.1286 -0.0538 -0.4453
17084W        W33268   3.790   3.436   3.770  0.1539  0.0308  0.1062
17085W        W33269  17.733   2.136  13.523 -0.5613 -0.0105 -0.1393
17086W        W33270   2.784   0.797   0.824 -0.3253  0.3342  0.0041
17087W        W33271   4.126  17.667   3.472  0.2236 -0.0037 -0.2054
17088W        W33272  17.783   0.486   1.951 -0.2712 -0.0058  0.1969
17089W        W33273  10.163  10.064   6.368 -0.1799 -0.1044 -0.0116
17090W        W33274   1.720  13.337   0.313  0.0963  0.1485  0.2944
17091W        W33275  13.234   5.763   2.943 -0.2122 -0.2343  0.0620
17092W        W33276   2.454   5.478   0.010  0.1153 -0.0657 -0.1721
17093W        W33277   0.627  16.965   1.264 -0.0801 -0.0085  0.1122
17094W        W33278  16.995   2.939  11.155  0.1935 -0.2342  0.0674
17095W        W33279   6.770   7.063  12.816  0.1667  0.3752 -0.2271
17096W        W33280  11.624   1.754  12.429 -0.1363  0.0974  0.0265
17097W        W33281  10.227   5.333   5.262  0.0877  0.0890 -0.2720
17098W        W33282   5.364  17.837   4.244 -0.0227 -0.0730  0.1038
17099W        W33283   0.416   9.913  12.366 -0.2964  0.2393  0.0905
17100W        W33284   8.336   3.357  15.817 -0.0187 -0.4276 -0.2297
17101W        W33285   8.781  17.392   4.374  0.0113  0.0422 -0.1072
17102W        W33286  16.588  15.842  13.080  0.2902 -0.2357  0.0958
17103W        W33287  13.754  16.157   4.013  0.1816  0.2057  0.2322
17104W        W33288   2.770   0.814  12.126  0.3216 -0.2938 -0.3649
17105W        W33289  13.161   8.529   4.738  0.3297  0.1112  0.3130
17106W        W33290  12.435   9.477   3.230 -0.2475 -0.1306  0.1810
17107W        W33291  13.516  17.326   0.601  0.2982  0.0619 -0.2144
17108W        W33292   5.050   1.973  14.203 -0.0075  0.0046 -0.2706
17109W        W33293   4.100   4.729   4.273  0.1299 -0.2637  0.0698
17110W        W33294   4.344   7.499  14.591 -0.1113 -0.1207 -0.2710
17111W        W33295   1.398  12.650   0.880 -0.0241  0.0542  0.0717
17112W        W33296   2.453   8.529  11.754  0.0587  0.1297 -0.0037
17113W        W33297  15.964   4.025  16.609  0.0651  0.1606 -0.2228
17114W        W33298   4.227  11.559  13.405  0.3140 -0.0228  0.2737
17115W        W33299  15.613  12.062  13.098 -0.3982 -0.1567 -0.2833
17116W        W33300   1.711   0.604  14.117 -0.0474  0.1986 -0.1090
17117W        W33301   7.913  12.982  12.709  0.2391  0.1444 -0.3700
17118W        W33302  17.887   6.645   2.722 -0.1632 -0.0390  0.1480
17119W        W33303   2.002   9.672   2.266 -0.3684 -0.1749  0.1487
17120W        W33304   1.004   2.848  13.381  0.0656  0.0792  0.0405
17121W        W33305  12.704  10.520   5.875 -0.4099 -0.1235 -0.0720
17122W        W33306  12.860  18.121   4.609 -0.5309  0.3241 -0.2252
17123W        W33307   2.749   6.209   2.755  0.0441  0.1885  0.2437
17124W        W33308  18.053   3.318  13.921  0.0505 -0.0262 -0.0471
17125W        W33309   8.315   5.465  11.889  0.0305 -0.0449  0.0483
17126W        W33310  15.532   0.881   3.846  0.0737 -0.0483  0.0024
17127W        W33311   0.368  15.621  13.811 -0.1705 -0.2246 -0.2098
17128W        W33312  12.101  17.227  12.112  0.0758  0.3484 -0.1136
17129W        W33313  10.426  11.290   4.035  0.0459  0.1700 -0.1463
17130W        W33314  15.859   0.303  11.212  0.2816  0.1710 -0.0166
17131W        W33315  10.971  18.034  14.704 -0.2520  0.0411 -0.0800
17132W        W33316   2.792  14.547  13.395 -0.3840 -0.2366  0.2650
17133W        W33317   1.126   4.471  13.999  0.0127 -0.1683  0.1139
17134W        W33318  15.417   3.627  13.886 -0.0051 -0.0909  0.0154
17135W        W33319   3.264   3.300   2.995  0.1007 -0.0917 -0.0718
17136W        W33320   5.721  17.637  14.822  0.2528  0.0573  0.2444
17137W        W33321  17.617   2.188   2.375  0.0500 -0.0997  0.2313
17138W        W33322  15.051  11.048  12.665  0.0055  0.1129  0.0184
17139W        W33323   1.085   6.663   4.706 -0.2188 -0.0877  0.0575
17140W        W33324  12.901   2.938  11.902 -0.0641 -0.1117  0.0936
17141W        W33325   1.386  12.553   4.584  0.0894  0.1673 -0.1229
17142W        W33326  17.178   1.572  15.700 -0.0842  0.1048 -0.2115
17143W        W33327   0.136   6.647   4.124  0.1565 -0.0612  0.1203
17144W        W33328  15.807  10.809  10.956  0.3113 -0.1371 -0.2664
17145W        W33329   6.857   0.166  13.368 -0.2142 -0.1219 -0.0714
17146W        W33330  11.786  14.332   3.846 -0.2542 -0.2054 -0.0449
17147W        W33331  10.556   1.881   3.195  0.2332 -0.0931 -0.0878
17148W        W33332   5.072   8.912  11.988 -0.0200 -0.0872 -0.1132
17149W        W33333   1.725   1.462  14.400 -0.1798  0.1240 -0.4753
17150W        W33334  13.343  15.144  15.614 -0.2267  0.1422 -0.1821
17151W        W33335   1.971  15.268  13.672 -0.1960  0.1863  0.1305
17152W        W33336   2.153   6.902  14.498  0.2283 -0.1861  0.0695
17153W        W33337   7.383   4.276  13.164 -0.1128 -0.0121 -0.0598
17154W        W33338   6.369  12.396  15.727  0.0052 -0.1531 -0.2629
17155W        W33339   0.012  13.622   3.513 -0.0390  0.0731 -0.1224
17156W        W33340   9.724  15.046  13.198  0.1285  0.1089 -0.2497
17157W        W33341   0.456   0.898   1.283 -0.1054 -0.1389  0.0203
17158W        W33342  16.271   4.378   2.487 -0.2911 -0.3742 -0.0780
17159W        W33343  13.490  14.038   0.800  0.4199  0.3948 -0.0253
17160W        W33344   5.526   1.593  11.402  0.2035  0.3608 -0.0683
17161W        W33345   8.119  10.281  15.393  0.1560  0.0274  0.3314
17162W        W33346   1.044   7.741   0.138 -0.0241  0.0732 -0.1738
17163W        W33347  11.549   3.069  13.953  0.0944 -0.2510 -0.0443
17164W        W33348  14.810   3.594  16.610  0.0165 -0.1809  0.0568
17165W        W33349   3.297  13.990   0.413 -0.1276  0.1948  0.1621
17166W        W33350   7.025  11.386   1.891  0.0627 -0.4706  0.1940
17167W        W33351   1.635   2.746  14.031 -0.1777 -0.2059 -0.0877
17168W        W33352  16.588   7.135   4.352  0.6462 -0.0199 -0.1532
17169W        W33353  17.130  18.054  12.482  0.0302 -0.0902 -0.2157
17170W        W33354   8.603   8.251  15.370 -0.2826  0.1639 -0.0100
17171W        W33355  17.029  16.117  16.085 -0.2409  0.3061  0.0108
17172W        W33356   3.445   2.954  14.217 -0.1528 -0.0047  0.1859
17173W        W33357  16.008  13.723  14.541  0.1623 -0.5131  0.1543
17174W        W33358   8.594  17.160   1.308  0.1453  0.1470 -0.0800
17175W        W33359   8.537  17.935  11.545  0.0419  0.2304  0.2743
17176W        W33360   7.510  10.750   2.582  0.1435  0.1486 -0.0941
17177W        W33361  15.167  17.672   2.020 -0.1343 -0.0460 -0.0029
17178W        W33362  11.703  13.308   4.957 -0.4438 -0.0811 -0.0303
17179W        W33363  10.936   8.289   3.084  0.0200  0.0576  0.3708
17180W        W33364  15.837   9.345   1.577 -0.0861 -0.2931 -0.1922
17181W        W33365  14.635  17.832  13.010 -0.0499  0.0602 -0.0760
17182W        W33366   7.115  15.773  13.319 -0.0902  0.1252 -0.0003
17183W        W33367   3.706   4.730  15.712  0.3252  0.2227 -0.0040
17184W        W33368   0.275  11.320  15.387  0.3971  0.0802 -0.2966
17185W        W33369  16.229   9.525   2.627  0.1322 -0.1266 -0.0287
17186W        W33370  10.712   9.516  15.017  0.0075 -0.0594  0.2338
17187W        W33371   7.694   1.704  13.156 -0.0021  0.0125  0.0882
17188W        W33372  12.800   6.720   1.144 -0.2336 -0.3619  0.1713
17189W        W33373   4.557   4.980   2.233  0.0889  0.1874  0.0984
17190W        W33374  17.240  15.249   2.563  0.0133  0.0674  0.3344
17191W        W33375   2.857   8.485  14.971 -0.1294  0.0587  0.2099
17192W        W33376  16.963   2.302   4.804  0.0208 -0.4000  0.1000
17193W        W33377  15.956   1.221   0.026  0.3348  0.2241  0.0443
17194W        W33378   9.712  12.581   2.189  0.1222  0.1173 -0.2196
17195W        W33379   4.694   1.947   4.130 -0.0926 -0.4531 -0.0534
17196W        W33380  17.229   2.457   4.367 -0.2455  0.1425 -0.2035
17197W        W33381  14.281   4.023  11.858 -0.3136 -0.2220 -0.0084
17198W        W33382  10.695  15.853   6.013  0.1852  0.1865 -0.0966
17199W        W33383  15.298  10.916   5.511  0.2448 -0.1505 -0.0901
17200W        W33384  12.354  12.325   4.706 -0.0753  0.0664 -0.0870
17201W        W33385   8.240  15.006  13.672 -0.1326 -0.1844 -0.1615
17202W        W33386  15.903   7.076   4.882 -0.0757 -0.1133  0.1647
17203W        W33387  10.053   9.786  15.411 -0.0666  0.1834 -0.2629
17204W        W33388   0.992   0.070   5.566 -0.0270 -0.0423  0.0844
17205W        W33389   4.734   9.463  15.025 -0.1463  0.2143  0.1226
17206W        W33390  13.640   2.152  15.564  0.2207  0.2284 -0.1754
17207W        W33391  17.438  11.976  12.057  0.1325 -0.2631 -0.1561
17208W        W33392   8.784  11.233  13.411 -0.1815  0.3025  0.2102
17209W        W33393   4.610  16.618  14.938 -0.0976  0.0249  0.2416
17210W        W33394   2.162  14.933  15.335 -0.2099 -0.0126  0.3214
17211W        W33395   4.032   4.889   3.379  0.2595 -0.1619 -0.1560
17212W        W33396   8.319   3.444  11.840 -0.1887 -0.1360 -0.0325
17213W        W33397  14.435  12.461   5.733 -0.0295  0.0029 -0.1751
17214W        W33398  14.357   7.556   2.748 -0.0388  0.2035 -0.0611
17215W        W33399  12.294  17.513   3.845  0.2987 -0.0686  0.0770
17216W        W33400  17.078   2.590  14.767 -0.0868 -0.1737 -0.0808
17217W        W33401  11.433   6.653  15.772  0.1104 -0.3328 -0.3087
17218W        W33402   3.381  15.438  16.137 -0.0577 -0.1952  0.0162
17219W        W33403  10.668  15.898   4.978 -0.2082  0.1036  0.4679
17220W        W33404  17.471  11.225  15.166  0.3961  0.1889  0.2790
17221W        W33405  17.219   5.435  15.656 -0.4759 -0.2230 -0.0500
17222W        W33406  12.304  14.093   4.746 -0.1159 -0.0595 -0.1291
17223W        W33407   1.730   5.854   4.755  0.0841  0.2792  0.2646
17224W        W33408  15.258   0.214   4.798 -0.3238 -0.2308  0.0407
17225W        W33409  12.618   3.873   1.449 -0.1509 -0.1746 -0.0470
17226W        W33410   1.915  10.357   2.870  0.2688  0.0269 -0.1470
17227W        W33411  16.098   3.885   0.935  0.2488  0.3584  0.1947
17228W        W33412  14.498   0.223  13.200  0.1796  0.1947  0.2152
17229W        W33413  15.608   4.870   4.865  0.2507 -0.2042  0.0952
17230W        W33414   9.103  15.834   5.753  0.3427  0.1833  0.1431
17231W        W33415  18.155   6.219  16.318 -0.2256  0.0659  0.2272
17232W        W33416  12.993  17.031  16.177  0.0791 -0.1918 -0.1534
17233W        W33417  13.205   3.039  13.141  0.0858  0.2774 -0.1745
17234W        W33418  10.896   7.648  11.790  0.2404  0.1286  0.0158
17235W        W33419  14.854   4.815   2.653  0.1197  0.0770 -0.0473
17236W        W33420   8.948   2.618   1.920 -0.4205 -0.0454  0.2024
17237W        W33421   8.909  12.510  14.232 -0.1261  0.0802  0.0063
17238W        W33422  15.267   3.188  10.820 -0.1267  0.0616 -0.4165
17239W        W33423   9.231   2.927   0.722  0.1950 -0.3477 -0.0705
17240W        W33424   8.276   5.833  15.408  0.1415  0.2416 -0.0951
17241W        W33425  16.109   3.787  15.917  0.1613 -0.1264  0.1279
17242W        W33426   9.608   3.643   4.262  0.1076  0.0703 -0.1014
17243W        W33427  11.741   7.895  14.862 -0.2016  0.0516 -0.0627
17244W        W33428   0.655   2.893  10.865 -0.1581 -0.2286 -0.1681
17245W        W33429   4.024   6.119  15.449 -0.1999 -0.2141 -0.0672
17246W        W33430   6.350   1.774   1.495  0.0299 -0.0862  0.5300
17247W        W33431   1.030   8.262   0.794 -0.0014  0.1106  0.0448
17248W        W33432   5.889  11.459  15.895 -0.0198 -0.3422 -0.1743
17249W        W33433  17.933   0.924   4.800  0.0076 -0.1873 -0.2997
17250W        W33434  10.418   4.418   4.538  0.2094 -0.1159 -0.1167
17251W        W33435   6.453   9.303   3.638  0.1174  0.0543  0.3370
17252W        W33436  12.360  14.677   0.356  0.0197  0.0659  0.0392
17253W        W33437  16.210  16.767   0.803  0.0937 -0.1748 -0.0491
17254W        W33438  16.491  17.666  14.183  0.0014  0.0289  0.0977
17255W        W33439   1.287  13.041  14.557  0.2210 -0.3194  0.0715
17256W        W33440  16.422  13.631   2.209  0.3508 -0.3538  0.1680
17257W        W33441   5.849  17.763  13.240 -0.2250 -0.2502  0.0832
17258W        W33442   0.767  12.726  12.057 -0.1079 -0.2137  0.0509
17259W        W33443  15.271  16.021  13.833  0.0486 -0.1189 -0.0512
17260W        W33444   9.208   6.686  16.346 -0.0305 -0.0938  0.2694
17261W        W33445  14.077   2.329  15.778  0.1320  0.0425 -0.2644
17262W        W33446   4.715   2.033  13.408  0.2311  0.1312  0.1375
17263W        W33447   8.912   8.109   0.167 -0.1831  0.1599 -0.1600
17264W        W33448  12.326  12.068  11.594 -0.0364  0.1466  0.0350
17265W        W33449   9.110   2.173   3.249  0.3397 -0.0061 -0.2263
17266W        W33450  12.542  10.925   3.554 -0.1017  0.0421 -0.0212
17267W        W33451  16.216   1.119  13.282 -0.2353 -0.4236  0.0480
17268W        W33452   9.369  14.690  13.933  0.0310  0.2204 -0.1767
17269W        W33453   7.383   0.380   3.508  0.0398  0.0393  0.3343
17270W        W33454  13.011  11.378   6.092 -0.0008  0.2720 -0.1419
17271W        W33455  17.609  17.047  16.511 -0.4885 -0.1098 -0.0979
17272W        W33456  15.628   4.346   0.256  0.0294  0.0761  0.3627
17273W        W33457  12.226  10.253   4.405  0.3249 -0.0420 -0.1387
17274W        W33458  16.762  17.493  13.750  0.0544  0.1388 -0.2558
17275W        W33459   1.682   4.207   4.814  0.3040  0.3055  0.0283
17276W        W33460   9.019   6.055   4.948 -0.3219 -0.0359  0.0269
17277W        W33461  11.020  16.812   4.347  0.0836 -0.1196 -0.0637
17278W        W33462   9.754   4.596   0.372 -0.2088 -0.1037  0.0893
17279W        W33463   3.176   7.698  14.940 -0.1532  0.0648 -0.1271
17280W        W33464   0.894  13.856   3.785 -0.2505  0.1501 -0.3421
17281W        W33465  12.925   1.003   4.924  0.1008 -0.1191  0.0903
17282W        W33466   1.123  16.770  11.737  0.4130 -0.2769 -0.0794
17283W        W33467   6.564  17.483  15.413  0.0089  0.1670  0.0506
17284W        W33468   0.325   2.953  13.964 -0.0369  0.1806 -0.2649
17285W        W33469   6.106  12.002  12.502  0.0699 -0.1489 -0.0092
17286W        W33470   9.473   6.853   1.238 -0.0264 -0.3358 -0.4418
17287W        W33471  18.083   2.622   5.451  0.1012 -0.3801  0.1169
17288W        W33472  11.344   1.448  13.708  0.0512 -0.3212 -0.1599
17289W        W33473  11.986   9.144  11.588  0.1566  0.1174  0.0014
17290W        W33474  15.671   7.322   3.160 -0.1053  0.2422 -0.1973
17291W        W33475   4.380   0.732  12.361  0.2961  0.1617 -0.2115
17292W        W33476   5.439   4.835   3.184  0.0497  0.0667 -0.0339
17293W        W33477  13.832  11.259   5.556  0.1803 -0.1386  0.0259
17294W        W33478  14.087   4.415  13.191 -0.1121 -0.1745 -0.0508
17295W        W33479  13.581   3.751  15.365  0.0981 -0.0510  0.1776
17296W        W33480   9.743   2.719   4.097  0.3114  0.0024 -0.3878
17297W        W33481   0.715   7.974  12.294 -0.0275 -0.3444  0.1273
17298W        W33482   0.705   4.338  14.309  0.0578 -0.2547  0.1228
17299W        W33483   2.216  11.085  14.339  0.2693 -0.0658  0.2282
17300W        W33484  13.768  16.382  13.020  0.3113  0.0024 -0.1202
17301W        W33485   4.794  15.562  16.288  0.1993 -0.1249 -0.1468
17302W        W33486  15.953   7.802  13.857 -0.0546  0.1687 -0.0068
17303W        W33487  16.329  10.994   0.208  0.2922 -0.1778 -0.2775
17304W        W33488  14.360   5.322   2.668  0.1770  0.1068  0.2562
17305W        W33489   0.101   3.289  15.865 -0.0553  0.0334 -0.1426
17306W        W33490   5.173  12.682   0.295 -0.0045 -0.0014 -0.0398
17307W        W33491   8.014   5.471  15.697 -0.0908 -0.0383 -0.0917
17308W        W33492  15.121  13.689   3.548 -0.3275 -0.3501  0.3746
17309W        W33493   3.403  13.109  16.600 -0.2167 -0.2075  0.2515
17310W        W33494   7.375   4.813  13.095  0.0909  0.0876 -0.0186
17311W        W33495  12.209   7.877   4.011  0.0162 -0.1255  0.1085
17312W        W33496   9.288   9.171   1.299  0.2933 -0.2326  0.1968
17313W        W33497  12.988  15.953   0.063 -0.0199 -0.1706  0.3313
17314W        W33498  11.413  15.772  15.872 -0.1863  0.0377  0.2194
17315W        W33499   8.199   5.170  14.869 -0.1564  0.1487 -0.1558
17316W        W33500  10.843  10.188   4.608 -0.0301  0.1481  0.0484
17317W        W33501   0.617   1.915   0.073 -0.4090  0.0302  0.0712
17318W        W33502   0.632   8.820   0.017 -0.2521 -0.2198  0.1531
17319W        W33503   7.359  18.148  14.584 -0.0337 -0.2199 -0.1017
17320W        W33504   9.320   2.058  15.870 -0.1161  0.0774  0.5664
17321W        W33505   8.394   6.014   1.354  0.1100 -0.2412  0.0751
17322W        W33506  14.445  16.555   4.644  0.0630 -0.1398  0.3169
17323W        W33507   9.910   8.435   0.928 -0.0345 -0.0114 -0.3238
17324W        W33508  14.979   8.052   1.543 -0.2181 -0.1249 -0.2159
17325W        W33509   9.513   7.690  15.444  0.0158 -0.4275 -0.0879
17326W        W33510   7.192   7.981   2.380  0.1301  0.0757 -0.1734
17327W        W33511   7.365  14.057  15.953  0.2670  0.1584  0.0494
17328W        W33512   3.862   6.145   3.898  0.1551 -0.2000  0.0013
17329W        W33513   0.671  10.618  13.639 -0.2771  0.2751 -0.1710
17330W        W33514   7.473  12.087  13.627  0.3908 -0.0741 -0.0290
17331W        W33515  16.268   5.772   3.515 -0.3032  0.1569  0.2298
17332W        W33516  10.394   4.676  15.758 -0.1402  0.0366 -0.1477
17333W        W33517  12.509  12.791  11.829  0.0935  0.1681 -0.1488
17334W        W33518   6.982   0.861   2.430 -0.1861  0.0313  0.2720
17335W        W33519   0.172   9.725  14.253 -0.0596  0.2066  0.0364
17336W        W33520   9.108  15.185  12.009 -0.1126 -0.1456 -0.0692
17337W        W33521   9.988   5.208   2.554 -0.1192 -0.1964 -0.0128
17338W        W33522   5.044   4.589  16.450 -0.0396  0.3079  0.0949
17339W        W33523  15.632   7.179   4.192  0.3032 -0.1575 -0.0203
17340W        W33524   8.594  15.106   3.099  0.1436  0.4039 -0.2285
17341W        W33525   5.965   4.738   0.539 -0.2187 -0.0978  0.0983
17342W        W33526   0.351  13.863   3.806 -0.0670  0.0449  0.2506
17343W        W33527  18.011   9.390   3.163  0.0968 -0.0469 -0.2125
17344W        W33528  12.490  16.465   2.299  0.0994  0.0734  0.0071
17345W        W33529  11.451   4.180   4.940  0.0714  0.1555 -0.1237
17346W        W33530   2.082   6.066   3.216  0.2836  0.1053  0.1954
17347W        W33531   6.391  13.032  15.427  0.2191 -0.0186 -0.0200
17348W        W33532   4.274  10.577  13.387 -0.0574  0.0037 -0.0346
17349W        W33533  13.905   1.178  12.021 -0.1670  0.0721 -0.0880
17350W        W33534   5.104  17.404  13.405  0.0563 -0.0679  0.1446
17351W        W33535  14.781  13.155   4.948  0.2028 -0.0198  0.2622
17352W        W33536  16.562   1.685  11.141 -0.2686  0.4757 -0.0689
17353W        W33537   9.754   2.710   4.587  0.1153 -0.0287  0.1810
17354W        W33538   7.585  12.481   1.082  0.3468  0.0775  0.1305
17355W        W33539  13.464   3.822   3.002 -0.3155 -0.0551 -0.0936
17356W        W33540   4.742  16.668  16.313  0.1111  0.1353 -0.0232
17357W        W33541   3.772  12.341   2.747  0.3427 -0.2571  0.0525
17358W        W33542  15.691   6.840   3.200 -0.0090  0.0911  0.1594
17359W        W33543  17.372   5.869   3.823 -0.0210 -0.0034  0.1482
17360W        W33544  18.113   9.873   1.460  0.2071 -0.2670  0.3150
17361W        W33545   5.388  11.714  14.572  0.4757  0.1451  0.0339
17362W        W33546   7.262  15.710  15.298 -0.1062  0.1065 -0.1364
17363W        W33547   5.512  16.597  11.810  0.0724 -0.1013 -0.0253
17364W        W33548   6.562   8.863   3.037  0.1321  0.2380  0.1748
17365W        W33549   4.115   6.114  12.856 -0.2251 -0.0745 -0.1330
17366W        W33550  11.242   8.437   4.519 -0.0797 -0.2165  0.0282
17367W        W33551   5.932   1.572   3.681  0.0670 -0.2322  0.4725
17368W        W33552   9.756   3.011   2.972  0.1627 -0.1616  0.0253
17369W        W33553   1.509  10.536  12.962  0.3528 -0.3087  0.3037
17370W        W33554   5.927  10.442  16.180 -0.3906  0.1159  0.3038
17371W        W33555  12.366   8.715  11.892 -0.2704  0.1326  0.4673
17372W        W33556   2.896   8.222   2.767  0.1151 -0.0180 -0.1609
17373W        W33557   9.600  14.112  13.141 -0.1816 -0.1535  0.0866
17374W        W33558  12.022  17.736   5.206  0.3904  0.0267  0.0834
17375W        W33559   8.159   7.847   4.107  0.1350  0.0961  0.1518
17376W        W33560   9.672   6.642  15.450 -0.1457 -0.4377  0.0597
17377W        W33561  13.277   0.594  16.471 -0.1878  0.0062  0.2682
17378W        W33562   7.337   7.614   0.867  0.1173  0.0075  0.2278
17379W        W33563  15.635  17.199   5.852  0.1337 -0.0178  0.2021
17380W        W33564   6.010  15.901  13.053 -0.1792 -0.0126  0.0052
17381W        W33565  13.519  16.733   4.804  0.2338 -0.0396  0.0750
17382W        W33566  17.026   6.743  11.601 -0.4511  0.2132  0.0035
17383W        W33567  13.950  14.905   3.039 -0.1054 -0.1407  0.0321
17384W        W33568   2.382   3.708  11.719  0.0738 -0.4352 -0.1536
17385W        W33569  16.798  14.493  13.042  0.0258  0.1588 -0.0613
17386W        W33570  16.233   7.505  16.569  0.2010 -0.4812 -0.3084
17387W        W33571   7.567   0.273  13.379 -0.1248  0.3029  0.1575
17388W        W33572  15.032   6.768  13.357  0.0324 -0.1344  0.0398
17389W        W33573  11.947   5.046  11.966 -0.0175  0.1465 -0.1179
17390W        W33574   1.387   5.865  13.125  0.0735  0.0107  0.0440
17391W        W33575   9.287  14.360   4.073  0.1706  0.0378 -0.0933
17392W        W33576   2.584   4.491  12.865 -0.1370  0.1492 -0.1090
17393W        W33577   5.831   5.175   0.848  0.0217 -0.3144 -0.0633
17394W        W33578   8.566   5.252   5.765  0.0295  0.1761 -0.2063
17395W        W33579  15.081   6.115  10.596  0.1555 -0.0546 -0.1431
17396W        W33580   0.272  14.624   3.063  0.1043 -0.2185 -0.1242
17397W        W33581  12.378   2.026  13.119 -0.0168  0.1974 -0.0692
17398W        W33582  14.382  17.987  13.449 -0.3890 -0.1444 -0.2131
17399W        W33583   6.607  17.666   1.735 -0.1240 -0.0949  0.0277
17400W        W33584   5.723  17.741   4.609 -0.1407 -0.2478 -0.0240
17401W        W33585   8.087   2.519  13.707  0.3732 -0.1873  0.3552
17402W        W33586   6.422   1.031  14.906 -0.1511  0.1633  0.3109
17403W        W33587   3.278   5.143   1.128 -0.1207 -0.0461 -0.1440
17404W        W33588  10.365  10.526  13.930  0.0708 -0.0284 -0.0697
17405W        W33589  14.399  14.238  16.336 -0.2624 -0.0361 -0.0915
17406W        W33590  14.121  11.504  16.428  0.1459 -0.1984  0.3370
17407W        W33591   0.011  12.663  13.036  0.2413  0.0285 -0.5006
17408W        W33592  15.457   2.017  14.103 -0.2442 -0.1941 -0.2761
17409W        W33593   6.554   4.624  15.173 -0.1637 -0.0362  0.2640
17410W        W33594   7.781   4.217   3.320  0.0601  0.0629  0.0736
17411W        W33595  16.368  17.080   5.691 -0.0396  0.2137  0.3093
17412W        W33596  16.843  13.491   1.533 -0.0103  0.1074 -0.2578
17413W        W33597  17.971   7.038   5.337  0.1864 -0.2695 -0.0870
17414W        W33598  13.328   3.665   5.038 -0.1901 -0.1473  0.2364
17415W        W33599  15.609   4.434  12.659  0.4701 -0.0734  0.0499
17416W        W33600   7.779   6.281   6.055  0.0349  0.3146 -0.0013
17417W        W33601   1.047  16.025  12.222 -0.1573  0.1874  0.1103
17418W        W33602   8.499  12.759  14.468 -0.0648  0.0477  0.0612
17419W        W33603  13.878   0.014   1.958 -0.1363  0.0850  0.2107
17420W        W33604  13.178   8.617  16.285  0.1687  0.1563  0.0053
17421W        W33605  11.249   5.636  13.465 -0.0565  0.0416 -0.0853
17422W        W33606  13.589   9.693   2.254 -0.1421 -0.1608 -0.0026
17423W        W33607   0.798  17.032   0.283 -0.1118 -0.0463  0.1356
17424W        W33608   8.138   7.922   3.209  0.1572 -0.1988  0.3401
17425W        W33609   5.627   4.136  11.967 -0.0682  0.2847 -0.2219
17426W        W33610  16.622  11.687   3.711  0.3539 -0.2368  0.0945
17427W        W33611  13.019  15.562  15.952  0.0090 -0.3509  0.0047
17428W        W33612  17.002   3.076  11.648  0.1545 -0.2136 -0.2475
17429W        W33613   9.814  16.589  16.313 -0.2233  0.1119  0.1533
17430W        W33614   8.092   8.936   0.770  0.1212 -0.2204  0.0779
17431W        W33615   3.301   4.029  11.727 -0.2476  0.3436 -0.1643
17432W        W33616  16.594  13.488   2.980 -0.0410 -0.1970 -0.1304
17433W        W33617   3.652  13.676   0.444 -0.2292  0.2570 -0.0468
17434W        W33618  12.004  15.574   4.107  0.1863  0.0182 -0.1836
17435W        W33619   4.170   9.177   1.415 -0.0056  0.0380  0.1983
17436W        W33620   9.048   1.638   5.026  0.0642 -0.1290  0.0354
17437W        W33621   9.492  16.043   1.556  0.1755 -0.1785 -0.2319
17438W        W33622   8.749   4.459  11.629 -0.3104 -0.0988 -0.0217
17439W        W33623   8.485  11.676   6.051  0.3253  0.1921  0.0387
17440W        W33624   8.565  12.228  10.929  0.1558 -0.1296 -0.3601
17441W        W33625   5.603  11.615  13.388 -0.2462 -0.0890 -0.0201
17442W        W33626  17.510   4.358   0.881 -0.0896  0.1491 -0.0285
17443W        W33627  10.043  17.964  14.508  0.0127 -0.0600 -0.0389
17444W        W33628  14.307  15.675  14.549  0.1145  0.2306 -0.0920
17445W        W33629  14.445  14.769   3.057  0.0704  0.0109  0.1754
17446W        W33630   8.155   4.072   0.803  0.0983 -0.0797 -0.1810
17447W        W33631  16.902   3.536  11.833  0.2974 -0.0290 -0.3035
17448W        W33632   1.730   0.281   3.786  0.0300 -0.0328 -0.0164
17449W        W33633   4.776  10.217  13.787 -0.6012 -0.0746  0.0643
17450W        W33634   6.439   0.456   1.221 -0.0542 -0.2405 -0.2623
17451W        W33635  15.579   4.451  16.070  0.0643 -0.0642 -0.0386
17452W        W33636   6.022   5.627  13.152  0.0386  0.1867 -0.1332
17453W        W33637   0.252  17.869   2.283 -0.4783  0.1612 -0.1353
17454W        W33638   5.187   9.253   3.893  0.1091 -0.1772 -0.1709
17455W        W33639  11.395  10.794  14.074  0.1268  0.0987 -0.2529
17456W        W33640   7.536   1.819  10.650 -0.1871  0.0219 -0.0120
17457W        W33641   1.215   6.594  15.314 -0.0193 -0.0617 -0.4276
17458W        W33642   0.086   8.478  13.859 -0.2632 -0.2330  0.3420
17459W        W33643   3.111   0.469   0.615 -0.2531 -0.0345  0.1200
17460W        W33644  14.342  13.526  15.575  0.0004  0.0995  0.3365
17461W        W33645   1.636  16.913  13.789  0.0723  0.1529  0.0055
17462W        W33646  13.055   3.946   3.722 -0.3143  0.2611 -0.0926
17463W        W33647  13.394   7.266   3.721  0.4063 -0.0479  0.0316
17464W        W33648  13.592   9.641  12.989  0.0998  0.0270 -0.0466
17465W        W33649   3.377   1.228  13.134  0.0419  0.1075  0.2606
17466W        W33650  17.178   0.762  11.429  0.0397 -0.2055  0.1661
17467W        W33651  14.674   1.507   2.805  0.0727  0.4319 -0.0259
17468W        W33652  12.315   8.173   3.119  0.1582 -0.0687 -0.1721
17469W        W33653  11.318  12.833   5.112 -0.1071  0.0281 -0.0753
17470W        W33654   0.345   4.716  13.546 -0.1355 -0.3096  0.1149
17471W        W33655   7.564   8.082  11.012 -0.3145  0.0988  0.2153
17472W        W33656  10.887  17.029   3.922 -0.0649 -0.0727  0.3326
17473W        W33657   2.770  15.898  15.176 -0.2057  0.2098  0.3719
17474W        W33658  15.323   4.006  15.828  0.0677 -0.2328 -0.0922
17475W        W33659  10.173   3.586   0.747  0.3179 -0.3739 -0.2043
17476W        W33660  13.101   7.181  16.464  0.0083  0.3676 -0.1300
17477W        W33661  13.349  13.611  13.905 -0.2366 -0.0700  0.0572
17478W        W33662   1.121   0.840   3.322 -0.1342  0.2100 -0.1845
17479W        W33663  14.079   8.087  14.918 -0.2406  0.3703  0.0194
17480W        W33664  15.207  17.247  13.605  0.0369  0.0409 -0.0087
17481W        W33665  12.308   6.727  14.762 -0.1742  0.0817  0.1996
17482W        W33666  13.578  17.880  12.421 -0.4698 -0.3434 -0.1536
17483W        W33667  15.717  14.467   3.360 -0.1039  0.0939 -0.1442
17484W        W33668   4.289  12.226   0.607 -0.2300 -0.2319 -0.1615
17485W        W33669  13.396   0.317  16.062 -0.0504 -0.0156  0.1768
17486W        W33670  13.310   3.638   4.493 -0.2013  0.3466 -0.0553
17487W        W33671   5.567  17.996   5.949  0.1998 -0.0762 -0.0563
17488W        W33672   2.141   4.854   3.838 -0.1597  0.0161  0.1473
17489W        W33673  17.459   5.636  10.567 -0.0907 -0.0771 -0.1364
17490W        W33674  17.366   0.078  12.051 -0.1493  0.0625  0.0047
17491W        W33675   2.274   0.478  14.269  0.4286 -0.1800 -0.2151
17492W        W33676   5.514  10.400  13.096  0.3120 -0.1629 -0.0568
17493W        W33677  14.370  11.664   5.354 -0.2426 -0.0921  0.0769
17494W        W33678  17.974  15.532   1.166 -0.0255 -0.5454 -0.0855
17495W        W33679   1.425   7.771  12.992 -0.1494 -0.3008  0.0324
17496W        W33680  15.440  16.376  15.904  0.4141 -0.0691 -0.0828
17497W        W33681  18.157  12.335   3.238 -0.0284  0.1960  0.1602
17498W        W33682   2.560   4.037   0.625 -0.0140 -0.0020 -0.3254
17499W        W33683  17.757  10.707   3.277 -0.0956  0.0336  0.0281
17500W        W33684   7.403  17.168   5.007 -0.0125  0.1791 -0.4701
17501W        W33685   6.407   9.303  16.605 -0.0871 -0.1308 -0.0381
17502W        W33686  16.491  15.882  14.388 -0.1310 -0.1192  0.2028
17503W        W33687  15.788  13.793  12.660  0.0541  0.1596 -0.1063
17504W        W33688   6.666  17.991   5.028  0.2321 -0.0729  0.0971
17505W        W33689   9.244   7.219   2.110 -0.0471  0.0417 -0.1155
17506W        W33690  12.771   6.864  16.233  0.1308 -0.0885  0.2266
17507W        W33691   7.912   3.353   4.842  0.1868  0.1496 -0.0607
17508W        W33692   4.919  15.957  15.229 -0.0003  0.3307  0.0929
17509W        W33693  12.373  15.083  11.997  0.0908 -0.0409  0.0294
17510W        W33694   2.488   7.321   3.407  0.1317  0.0653 -0.0833
17511W        W33695   1.978  11.779   0.964  0.2455 -0.0014 -0.0061
17512W        W33696   4.022  12.790  15.686 -0.0883  0.2311  0.4414
17513W        W33697   9.838   1.543  16.198  0.3103  0.0137 -0.2043
17514W        W33698  15.554  10.422   2.061  0.0266  0.0134 -0.2777
17515W        W33699  10.921   5.435  15.031 -0.0460 -0.0434  0.0169
17516W        W33700  15.308   3.157   4.941  0.0476  0.2795 -0.1608
17517W        W33701  15.131   5.499  11.163 -0.1027  0.1633 -0.1909
17518W        W33702  15.355   7.387  11.464  0.0184  0.4823 -0.2620
17519W        W33703  10.293   8.978   0.652  0.0335 -0.1845 -0.2841
17520W        W33704   7.793  10.966  14.185 -0.0056  0.0309  0.0939
17521W        W33705   4.800  16.395   2.834 -0.4369  0.2774 -0.0063
17522W        W33706   8.284  16.403   0.845  0.0281  0.1398 -0.2081
17523W        W33707   0.677   8.678   2.310  0.3600 -0.0257 -0.0393
17524W        W33708  11.527  11.455  16.244  0.1221 -0.2600 -0.5640
17525W        W33709   7.224   8.060  11.805  0.1843  0.2859 -0.0718
17526W        W33710   2.363  16.488   1.269 -0.0814  0.3469  0.3680
17527W        W33711   3.745   8.598  11.509  0.1064 -0.3492 -0.0238
17528W        W33712   2.521   5.283   5.920 -0.2260 -0.0920 -0.1118
17529W        W33713  13.797  13.102  12.215 -0.0259  0.0655  0.1089
17530W        W33714   3.196  15.842   0.258 -0.0186 -0.1740  0.2089
17531W        W33715  14.747   7.451   4.439 -0.0881 -0.0843 -0.0437
17532W        W33716  10.462   1.926  13.274 -0.3370  0.4163  0.6335
17533W        W33717   4.449   0.606  12.879  0.0788  0.0137 -0.1368
17534W        W33718   9.300   1.179  14.839  0.2610 -0.1188 -0.1274
17535W        W33719  11.242  10.856   0.830 -0.0011 -0.0388  0.1848
17536W        W33720  14.429  10.506  15.023  0.1316  0.0884 -0.1824
17537W        W33721  10.260   2.319  12.034 -0.1168  0.1336  0.0797
17538W        W33722   2.005   3.468   4.092 -0.0955  0.4833 -0.2407
17539W        W33723  11.394  13.516   0.617  0.3068 -0.1519 -0.1054
17540W        W33724  14.986  14.537  14.440  0.0917  0.2316  0.1742
17541W        W33725   0.769  11.116  15.320  0.3673  0.0044 -0.3870
17542W        W33726  12.126   5.422  13.591  0.2727  0.1966 -0.3134
17543W        W33727   1.917   2.361  13.741  0.2504  0.0612 -0.1515
17544W        W33728   2.516   6.390  11.138  0.0044 -0.1138 -0.1852
17545W        W33729   0.110   1.918  11.766  0.1769 -0.2151 -0.2643
17546W        W33730   5.440   2.574  12.959  0.0925 -0.5020 -0.1892
17547W        W33731  12.696  17.731   1.315  0.2130 -0.1407  0.1999
17548W        W33732  14.900   0.674   4.521  0.1390  0.1655  0.2279
17549W        W33733  16.876   7.525   3.208  0.2807  0.1773  0.0450
17550W        W33734   9.811   8.715   2.545  0.2964  0.0581  0.0947
17551W        W33735  16.645   7.083   3.185 -0.0375 -0.2180  0.1542
17552W        W33736  11.683   7.104  15.860  0.3067  0.1421 -0.0962
17553W        W33737   4.377   5.437  10.899 -0.1956 -0.1518 -0.2564
17554W        W33738   0.236  12.992  15.491 -0.2067  0.1924  0.0722
17555W        W33739   3.754   4.018  11.458 -0.0089 -0.0827 -0.0485
17556W        W33740   8.433   7.078   6.333  0.2264  0.3546 -0.3211
17557W        W33741  13.644  16.412   0.442  0.0932 -0.2168 -0.2504
17558W        W33742  13.038   5.443   9.933  0.1444 -0.1184  0.1539
17559W        W33743   9.185   9.738  13.392 -0.5416  0.0915 -0.4556
17560W        W33744   5.545   3.834  14.430  0.2460 -0.4493  0.3788
17561W        W33745  14.821  10.835  15.212 -0.4307 -0.1017 -0.2419
17562W        W33746   5.729  17.134   4.719  0.0786  0.0151 -0.0455
17563W        W33747   2.224   2.040  11.482  0.1515  0.1069  0.2955
17564W        W33748  15.123   0.117   3.918 -0.1092  0.0877 -0.0987
17565W        W33749   8.084   3.417   2.035  0.0199 -0.0473  0.4126
17566W        W33750  16.564   0.157   5.150  0.5724 -0.2057 -0.0550
17567W        W33751  11.128   0.687  15.301  0.0633 -0.0607  0.1292
17568W        W33752  17.918  11.871   4.102  0.2020  0.1046  0.1695
17569W        W33753  17.524  14.571   2.954  0.1611 -0.0099 -0.0557
17570W        W33754   2.195   5.514  10.992 -0.1996  0.0286 -0.0127
17571W        W33755  10.851  11.236   0.823  0.0744  0.0288 -0.1593
17572W        W33756   4.220   9.602  12.836 -0.1468  0.1079 -0.0021
17573W        W33757   9.462   2.944   1.212 -0.0232 -0.1489  0.0421
17574W        W33758   6.796   0.947  16.000  0.4652  0.0686  0.0395
17575W        W33759   3.256  17.298  16.106  0.2893  0.1504  0.0995
17576W        W33760   7.731   4.854   0.638  0.0802  0.1710 -0.2677
17577W        W33761   3.162   0.694   5.249  0.3196 -0.5370 -0.0070
17578W        W33762  13.544   0.238   5.098 -0.0345 -0.3007 -0.0464
17579W        W33763   8.027   4.116  16.466  0.2499  0.1175  0.0061
17580W        W33764   6.163   3.230  15.016  0.6808  0.3413 -0.0792
17581W        W33765  10.231   2.709   3.871  0.3229 -0.1340  0.0273
17582W        W33766  14.811  17.881   3.841  0.1477 -0.0263 -0.2182
17583W        W33767   6.285   9.689  14.847 -0.0339  0.2302  0.3421
17584W        W33768   9.901  13.502   2.600 -0.2820 -0.3597 -0.0566
17585W        W33769   2.602   3.095  14.971  0.2469  0.4695  0.0292
17586W        W33770   5.606  14.035   4.088 -0.0936  0.0049 -0.1814
17587W        W33771   5.101   0.737   2.382  0.0326 -0.2383  0.0268
17588W        W33772  15.884  13.980   5.051  0.2127  0.0184 -0.1832
17589W        W33773  15.584   3.013  16.144 -0.0691  0.0289  0.2811
17590W        W33774   3.966   8.314  13.282 -0.1006 -0.2719  0.0122
17591W        W33775   3.416  14.437   5.671 -0.1218  0.0550 -0.0479
17592W        W33776   9.885  14.140   4.552  0.0226  0.1366 -0.1843
17593W        W33777  16.379  17.037  15.887  0.3473 -0.2166  0.0982
17594W        W33778   1.141   2.690  13.834 -0.1865 -0.1019  0.2744
17595W        W33779   2.790  16.324   1.027  0.0323 -0.1735 -0.0971
17596W        W33780   1.959   6.393   1.744 -0.1079  0.0024  0.2657
17597W        W33781   8.151   1.522  13.402  0.0091  0.2126  0.0547
17598W        W33782   4.885  11.849  14.667  0.0308  0.1201 -0.1820
17599W        W33783  16.565  10.420   4.111 -0.1965  0.1631  0.0382
17600W        W33784   3.563  14.184   6.667 -0.1022 -0.3454  0.0181
17601W        W33785  15.230  15.106  11.668 -0.1849  0.1375 -0.3355
17602W        W33786  15.975  15.510   0.383 -0.0827 -0.0158  0.1561
17603W        W33787   7.180  15.845   5.160 -0.1743  0.0695  0.0639
17604W        W33788  12.148  14.207   3.281 -0.4342  0.2342  0.1883
17605W        W33789  12.983  11.479   1.126  0.2675  0.0790 -0.2287
17606W        W33790   6.627  13.451   1.139  0.2160  0.0460 -0.0987
17607W        W33791   9.314   2.475   2.222 -0.0523 -0.3809  0.0679
17608W        W33792  17.477  12.587   0.302  0.0977  0.3653 -0.2218
17609W        W33793   5.954   1.777   1.819  0.0160 -0.0969  0.4681
17610W        W33794   9.128   4.402  13.095 -0.2025  0.0392  0.1484
17611W        W33795  11.512   0.875  15.569  0.2117 -0.1458  0.0814
17612W        W33796  15.064  13.724  13.286  0.1942  0.1865  0.3189
17613W        W33797  14.174   2.695   4.073 -0.1797 -0.0638 -0.0121
17614W        W33798  17.059   5.635   3.430  0.0880 -0.0892 -0.1348
17615W        W33799   9.668   7.192   2.404 -0.0244 -0.1975  0.5229
17616W        W33800   6.183  15.641   4.337 -0.0010 -0.1061  0.0110
17617W        W33801  18.126  11.249   1.676 -0.3473 -0.0156 -0.1502
17618W        W33802  16.677   9.051   2.814 -0.1408  0.2142 -0.1303
17619W        W33803   0.138  16.111  13.089  0.0681 -0.0367  0.0557
17620W        W33804  12.259   3.239   0.961 -0.0841 -0.0902 -0.2143
17621W        W33805   2.517  15.061  11.791 -0.1884 -0.2884 -0.3024
17622W        W33806  15.140   6.684   3.159 -0.3700 -0.1400  0.0324
17623W        W33807  10.179  15.850  15.774 -0.0754  0.3104  0.3176
17624W        W33808   1.673   1.259  12.815  0.0268 -0.2630  0.0652
17625W        W33809   6.960   2.037   0.017 -0.0379 -0.1286 -0.1521
17626W        W33810   5.556   7.211  12.037 -0.3028  0.0785 -0.0418
17627W        W33811   2.696  14.057  12.063  0.0606 -0.0973 -0.0528
17628W        W33812  12.402  13.590   4.995  0.2859 -0.1072 -0.0368
17629W        W33813   8.900   5.382  15.229 -0.0541  0.0189 -0.2361
17630W        W33814   5.647  14.386  14.720  0.3637 -0.1368 -0.1123
17631W        W33815   3.484  14.868  12.688 -0.0127  0.1730 -0.2340
17632W        W33816   3.368   3.541  11.507  0.1258 -0.0086 -0.2556
17633W        W33817   5.125   1.912   3.833  0.0843 -0.1492  0.1331
17634W        W33818  16.631   4.367   1.082  0.2247 -0.0317  0.1659
17635W        W33819   7.693  11.556  11.709  0.2035 -0.2629  0.1476
17636W        W33820   9.663  12.535  14.628 -0.0445 -0.2229  0.0221
17637W        W33821   7.156   2.789   4.408 -0.1942 -0.2108 -0.1224
17638W        W33822   3.365   9.421   1.461  0.1062  0.2693  0.0432
17639W        W33823  10.472  10.895   3.757 -0.2199  0.1229 -0.4391
17640W        W33824  10.482   1.345  14.260 -0.2506  0.0935 -0.0830
17641W        W33825   7.758   0.531   4.965 -0.2171 -0.1614  0.1400
17642W        W33826   3.021   7.778  13.140 -0.2113 -0.0454 -0.2430
17643W        W33827   9.610   8.820   4.118 -0.1774  0.0496 -0.1334
17644W        W33828   8.115   5.246  14.052  0.0568 -0.3083 -0.0697
17645W        W33829   2.842  11.377  16.414  0.0877 -0.1403 -0.1055
17646W        W33830   4.246  13.337  12.416  0.2917  0.1720  0.0616
17647W        W33831  12.016   9.208   0.203 -0.2518  0.0181  0.1542
17648W        W33832   4.591  10.767   6.055 -0.0011 -0.2644 -0.0283
17649W        W33833   4.154  12.299  16.488  0.2348 -0.0605 -0.1350
17650W        W33834   2.479   7.506   3.918 -0.1019 -0.0887 -0.0417
17651W        W33835   7.181  14.764  14.787  0.3168  0.1286 -0.1701
17652W        W33836  16.799  13.648  13.784  0.0955 -0.0950  0.1812
17653W        W33837  11.967   1.039  11.927 -0.2589 -0.0996 -0.1456
17654W        W33838   6.185   3.261  14.509 -0.1136  0.1390 -0.2397
17655W        W33839  15.859  17.543   5.429 -0.2384 -0.0445 -0.1529
17656W        W33840  14.466   1.245  15.677 -0.1201 -0.0229 -0.0242
17657W        W33841   8.149  16.036   0.016  0.0066  0.1581  0.1635
17658W        W33842   0.181   1.341  13.446 -0.1855 -0.4212  0.0659
17659W        W33843  10.466   3.323   0.013 -0.0887  0.3044  0.1312
17660W        W33844  10.404  12.292   4.998  0.0181 -0.3241 -0.0954
17661W        W33845  13.023   9.009  16.047  0.1769 -0.1383  0.1309
17662W        W33846   8.099   0.588  15.230  0.1698  0.2711  0.3569
17663W        W33847  13.575  13.497   2.940 -0.0194  0.0563  0.0317
17664W        W33848   4.991  12.885  15.631  0.0956  0.2251 -0.1532
17665W        W33849  13.648  17.663  14.971  0.0304 -0.0220 -0.2882
17666W        W33850   2.756   8.667   4.981 -0.1211 -0.1715  0.2528
17667W        W33851   3.836   7.629  11.875 -0.0780 -0.1869  0.2389
17668W        W33852   4.554   3.579   1.608 -0.0482 -0.1780 -0.3038
17669W        W33853   4.752   1.735   1.295 -0.2784  0.3506 -0.3344
17670W        W33854  11.501  12.419   4.713 -0.0763  0.1913  0.0415
17671W        W33855  17.671   5.574   3.371  0.3187  0.0214  0.1444
17672W        W33856  16.269  16.753  14.057  0.2976 -0.1775  0.4070
17673W        W33857   8.902  15.093   4.233  0.0314 -0.0926  0.0286
17674W        W33858   7.075   9.592  12.785  0.0131 -0.1024 -0.1564
17675W        W33859  10.182   6.659  13.391  0.0151  0.2081 -0.2711
17676W        W33860   2.203  15.554   0.249 -0.1128 -0.1926 -0.0285
17677W        W33861   2.722   1.318  15.455 -0.1270  0.1133  0.4649
17678W        W33862  15.100   6.301   5.744 -0.2480  0.4006 -0.1159
17679W        W33863   9.660   0.294   5.214  0.0607  0.0867 -0.0047
17680W        W33864  10.015   3.442  16.532 -0.1076  0.2243 -0.2655
17681W        W33865   6.291   0.043  13.723  0.0206  0.1109 -0.2154
17682W        W33866   0.967  10.458   0.815  0.3320  0.4061 -0.0602
17683W        W33867  12.544  14.422  15.522 -0.1194  0.3575  0.0977
17684W        W33868  10.394   8.672  14.559 -0.1873 -0.1546  0.0107
17685W        W33869  12.571   2.651   4.882 -0.0472  0.0955 -0.0751
17686W        W33870   7.138  17.542  14.987  0.0227 -0.1155 -0.1714
17687W        W33871   7.007   5.547   4.071  0.1001 -0.0052 -0.0447
17688W        W33872   7.285  10.698   3.332  0.0411  0.0754  0.1690
17689W        W33873   7.095  14.404   0.173 -0.1475  0.1562 -0.1895
17690W        W33874  13.255  12.658  16.495 -0.1147  0.0978 -0.1069
17691W        W33875   2.050  17.740  14.682  0.1234 -0.0661  0.2983
17692W        W33876  12.653  14.440   4.710 -0.0145  0.0513 -0.1130
17693W        W33877  11.844   3.760  11.728 -0.2671  0.1465  0.1205
17694W        W33878  11.575   4.447   1.235  0.1981  0.3456  0.3127
17695W        W33879   6.402  17.686   2.629  0.2199  0.0965 -0.1474
17696W        W33880   7.853  10.483   2.330  0.0178  0.1766  0.3105
17697W        W33881  17.162  12.930  14.636 -0.0447  0.2122 -0.3092
17698W        W33882   6.108  15.198   4.756  0.0151  0.0221 -0.0104
17699W        W33883   6.891   9.684   3.725  0.0182  0.2219  0.2416
17700W        W33884   1.828  15.235  15.851  0.1853 -0.0092 -0.1584
17701W        W33885   8.318  14.436   0.741  0.2098  0.0382  0.0835
17702W        W33886   5.999  13.267   0.465 -0.2053 -0.0842  0.0514
17703W        W33887   9.938  10.939  13.365  0.0708  0.2579  0.1318
17704W        W33888   7.610   8.551   1.984  0.0703  0.0891 -0.3141
17705W        W33889  13.699   4.979   9.784 -0.3193 -0.0028 -0.3579
17706W        W33890   0.699  14.886  13.686 -0.2062  0.1768 -0.1697
17707W        W33891   4.035   4.302   0.898 -0.0422 -0.3382  0.1811
17708W        W33892  14.970   5.052  15.800 -0.0019 -0.0265 -0.0147
17709W        W33893   1.633   2.908   0.783 -0.2002 -0.2044  0.1993
17710W        W33894   2.018   4.833  16.218  0.2825  0.0753  0.0972
17711W        W33895  11.829   8.394  14.999 -0.0408  0.1572  0.3885
17712W        W33896  11.259   0.420   0.393 -0.1856  0.1227  0.4151
17713W        W33897   0.009   1.467  13.931 -0.2100  0.1484  0.1219
17714W        W33898   0.076  13.802  15.529  0.2148 -0.1668 -0.1759
17715W        W33899   2.182   5.075  11.309 -0.3160 -0.1813 -0.2687
17716W        W33900   6.834   7.780   2.710  0.3836  0.0164 -0.0210
17717W        W33901   0.118  10.006   4.685  0.0285 -0.2269  0.2083
17718W        W33902   4.274   1.359   3.771  0.0106 -0.4112  0.1604
17719W        W33903  17.216   2.439  10.759 -0.0264  0.2336 -0.0399
17720W        W33904  11.327   8.862  13.136  0.0804 -0.4198 -0.0689
17721W        W33905   8.673   9.850  13.366 -0.3139  0.0002  0.1902
17722W        W33906   0.957   9.505   2.312 -0.1656  0.0080  0.1186
17723W        W33907  13.898   7.714  13.751 -0.4399  0.2698 -0.0480
17724W        W33908  17.151  16.731   3.752 -0.0537 -0.1092 -0.0092
17725W        W33909   9.185  15.631  16.084  0.0657  0.0385  0.0472
17726W        W33910  15.684   3.340   4.231  0.0857  0.2554  0.0056
17727W        W33911   0.135   5.351  13.045  0.0992  0.1457  0.0308
17728W        W33912   3.191  12.703   4.134  0.0805 -0.2704  0.0323
17729W        W33913   5.846  11.970   0.439  0.0258  0.0596  0.1951
17730W        W33914  11.215   5.653   0.901  0.0743  0.0470 -0.1338
17731W        W33915   3.817   9.604   1.248 -0.0346 -0.0617  0.1739
17732W        W33916  15.160  15.843   0.841 -0.3839 -0.2662 -0.1084
17733W        W33917   2.302  12.722   4.071 -0.0669 -0.0316  0.0989
17734W        W33918   7.196   3.667   4.059 -0.1054  0.0677  0.3199
17735W        W33919   5.224  11.737   0.604 -0.1473  0.2856 -0.0291
17736W        W33920  11.054  11.799   2.954  0.1788  0.0259  0.0740
17737W        W33921  10.778   4.098  13.041  0.1241  0.0090  0.0639
17738W        W33922   8.106   7.334   2.707  0.1751 -0.1713  0.2028
17739W        W33923  10.193  14.916  14.076 -0.3121 -0.2034 -0.0216
17740W        W33924  17.500   6.504  13.975 -0.1057 -0.1714 -0.0559
17741W        W33925  14.259  13.186  12.445 -0.4303 -0.0871  0.1416
17742W        W33926   2.034   4.192  11.321 -0.0777 -0.0013  0.0234
17743W        W33927  13.807  16.972   1.309  0.0226 -0.4962  0.2405
17744W        W33928   4.803  11.743  15.472  0.0864 -0.0969 -0.0710
17745W        W33929   4.755   7.425   3.327 -0.1449  0.3912  0.1620
17746W        W33930  13.531   6.210   1.065 -0.1894 -0.0548 -0.3387
17747W        W33931  11.370   1.666  14.172  0.3510 -0.2703 -0.1640
17748W        W33932   4.721   7.845   5.180  0.1068 -0.0987  0.1406
17749W        W33933  12.162  15.986   5.610 -0.0820 -0.0013 -0.1965
17750W        W33934  12.607  11.589  15.784  0.1092 -0.0237  0.1106
17751W        W33935   2.650   1.328   3.396 -0.0764 -0.1026  0.2587
17752W        W33936  12.289  16.390  11.626  0.1267 -0.2515  0.2993
17753W        W33937  13.279   3.894  13.895 -0.0299 -0.0263  0.4760
17754W        W33938  16.380  14.884  12.634 -0.0361 -0.3658  0.0092
17755W        W33939   9.858   8.832  12.860  0.0285  0.0755  0.1793
17756W        W33940  10.208   3.028  14.203 -0.4667 -0.1993 -0.3138
17757W        W33941   6.478  14.856   0.660 -0.0921 -0.3622  0.2072
17758W        W33942  11.019  15.195  13.037 -0.1262  0.1254 -0.1645
17759W        W33943   6.230  14.483   0.992  0.2861 -0.3482 -0.0997
17760W        W33944   5.002   1.303   2.911 -0.2593  0.0371 -0.1537
17761W        W33945  10.525  11.254   3.265 -0.0624 -0.2776 -0.0048
17762W        W33946   4.703  15.878  15.810  0.0494 -0.0758  0.1655
17763W        W33947  17.028   7.951   0.342 -0.0330 -0.2878  0.0905
17764W        W33948  11.288  15.423  14.561  0.0922  0.1686 -0.2600
17765W        W33949   9.185   8.573   2.816  0.0147  0.3259  0.1366
17766W        W33950   0.408   9.149  13.261 -0.0289 -0.2123 -0.4103
17767W        W33951   1.470   1.824  11.851  0.2980  0.1121  0.2297
17768W        W33952  12.066   4.398  13.787 -0.3048 -0.1173  0.1507
17769W        W33953   5.360  11.755  14.041 -0.1463 -0.1063  0.2070
17770W        W33954   0.689  18.078  16.412 -0.0953  0.0784 -0.0887
17771W        W33955   2.382   6.179   3.667 -0.1660  0.0713  0.0730
17772W        W33956   4.485   4.850   1.713 -0.1342 -0.2858 -0.3322
17773W        W33957   0.101   6.688  16.179 -0.4835 -0.3177  0.2076
17774W        W33958  14.734  14.140  14.242 -0.0838  0.2012 -0.0757
17775W        W33959  11.316  10.483  12.512 -0.0383 -0.1617  0.2886
17776W        W33960   4.113  10.177   1.257 -0.0677 -0.1177 -0.3252
17777W        W33961   5.130  10.240   3.607 -0.4385 -0.2051 -0.1573
17778W        W33962   5.054   5.745  14.174 -0.0477 -0.2157  0.2757
17779W        W33963  10.030  17.422  12.461 -0.2524 -0.1573 -0.1266
17780W        W33964  16.956  13.085  15.458  0.1928  0.0523 -0.0497
17781W        W33965  12.773   1.528  15.096 -0.1200  0.1101 -0.0548
17782W        W33966   9.101  17.957   1.669 -0.0712 -0.0341 -0.3682
17783W        W33967   2.713  10.990   4.135  0.1070 -0.0111  0.0726
17784W        W33968  12.762  11.333   0.041  0.0132 -0.2913  0.2136
17785W        W33969   6.259   2.255   1.093  0.0654  0.1726  0.0955
17786W        W33970   0.386   2.153  16.199  0.0249 -0.1709 -0.1370
17787W        W33971  10.188   5.939   3.390  0.0054 -0.2670 -0.0827
17788W        W33972  10.218  12.676   2.325  0.0729 -0.1252 -0.2077
17789W        W33973  14.403  15.649   4.363 -0.1757 -0.0066  0.0226
17790W        W33974   2.404   2.352  13.434 -0.1231  0.1376  0.1928
17791W        W33975  16.073  11.165   1.637 -0.1531 -0.3760  0.0395
17792W        W33976  10.369   3.851  15.843 -0.1480  0.0028 -0.1373
17793W        W33977  12.144  16.210  12.947  0.0950  0.4182  0.0925
17794W        W33978  16.906   3.584   9.739 -0.0726  0.0256 -0.0699
17795W        W33979   1.532  14.156   3.028  0.1407 -0.2419 -0.2427
17796W        W33980  14.444  10.008   0.846  0.1282 -0.4048  0.0578
17797W        W33981   3.920   6.819  14.996 -0.0604 -0.0887 -0.1487
17798W        W33982   6.583  16.339   1.399 -0.0796 -0.2336 -0.0424
17799W        W33983   9.122  16.074  15.801 -0.0421  0.1648  0.1362
17800W        W33984   3.843  11.672  14.298  0.0446  0.2449 -0.0453
17801W        W33985  15.533  17.869  13.976  0.1453 -0.1011 -0.1631
17802W        W33986   8.967   6.541   0.913 -0.2126 -0.0504 -0.0229
17803W        W33987   4.403  13.986  10.895 -0.1732 -0.1770  0.0625
17804W        W33988   6.081   8.151   1.232  0.2058  0.0216  0.2155
17805W        W33989   1.989   9.840   2.737  0.1775 -0.1233 -0.1865
17806W        W33990  12.372   4.039  13.552 -0.2255  0.3065  0.1420
17807W        W33991  16.329   2.631  14.386 -0.0938  0.0626 -0.0922
17808W        W33992  15.940   4.160  10.021  0.2877 -0.1575  0.0364
17809W        W33993  12.355   8.919  13.197  0.0634  0.2074 -0.0495
17810W        W33994   1.421  12.384  12.567  0.2835  0.0614  0.1315
17811W        W33995  12.503  11.384   1.399  0.1152 -0.0510 -0.0210
17812W        W33996  14.091  15.074   0.608 -0.1347  0.0389 -0.0563
17813W        W33997  17.961   4.952   3.788  0.2811 -0.2930 -0.3230
17814W        W33998   1.581   7.031   2.931  0.1455 -0.1160  0.1002
17815W        W33999   7.755  11.203  15.912 -0.2490 -0.1661  0.0568
17816W        W34000   5.916  17.351  10.756  0.0933  0.1530 -0.1283
17817W        W34001  11.185  17.926   3.769 -0.2129 -0.2211 -0.0507
17818W        W34002   1.972   8.843   0.521 -0.0268 -0.2180  0.0377
17819W        W34003   2.607   0.623   5.284  0.0643 -0.1321  0.0608
17820W        W34004   1.273  10.031  13.387  0.1108 -0.1162  0.1158
17821W        W34005  17.589   4.261  13.174  0.2005  0.0774  0.2046
17822W        W34006   9.274  14.155   5.276 -0.1177 -0.1463  0.0590
17823W        W34007  17.146  15.707  14.287  0.1177  0.1130 -0.0474
17824W        W34008  16.063  11.452  15.219 -0.2114  0.1013 -0.3786
17825W        W34009   6.215  17.258   3.479  0.0903  0.2514  0.1059
17826W        W34010  10.424   8.838   4.444 -0.0221  0.0976  0.0252
17827W        W34011  11.354  11.757   0.076 -0.0944  0.1629 -0.0479
17828W        W34012  11.756   3.929  13.965 -0.0032  0.0570  0.1591
17829W        W34013   6.044  10.896  15.872 -0.0680 -0.1198  0.0816
17830W        W34014   7.660  11.064  14.919  0.2851  0.0406  0.0197
17831W        W34015   1.390   8.725   3.190  0.0386  0.1493 -0.0499
17832W        W34016  11.108   2.074  14.030  0.3728  0.1848 -0.2437
17833W        W34017  15.004  10.971  11.203 -0.1046  0.2531  0.1492
17834W        W34018  10.687  12.553   4.580  0.2426  0.3936 -0.0856
17835W        W34019   5.709  10.387  15.215  0.1050  0.1298  0.0945
17836W        W34020  14.670   8.677  12.337  0.1362  0.1474 -0.0955
17837W        W34021   2.609   1.169   1.533  0.0868  0.1686 -0.0836
17838W        W34022  17.112   5.519   2.122  0.1906  0.2360  0.2068
17839W        W34023   0.545   1.340  15.573  0.0306 -0.0490 -0.1902
17840W        W34024  11.935   9.797  11.999  0.0176  0.1388 -0.2162
17841W        W34025  12.289   4.275   2.373 -0.0820  0.4961 -0.1842
17842W        W34026   1.235   7.028  11.619  0.3473 -0.0251  0.1838
17843W        W34027   1.389   3.928   1.237 -0.0741 -0.1946 -0.4475
17844W        W34028  14.020   2.854   0.919 -0.1107 -0.0357  0.1082
17845W        W34029  11.302   4.423   3.610  0.3234 -0.1573  0.1724
17846W        W34030   0.237   1.115   2.073  0.0263 -0.3011  0.3418
17847W        W34031  15.423  17.061   0.336 -0.1194 -0.1588 -0.0295
17848W        W34032   7.563   6.361  15.303  0.1226 -0.1852  0.2366
17849W        W34033  13.484  11.387   0.936 -0.0552 -0.0170 -0.5886
17850W        W34034   3.187  17.599   5.064 -0.1022 -0.1847  0.0152
17851W        W34035  10.480   4.933  13.655  0.1980  0.2074 -0.0569
17852W        W34036   4.368   5.073   1.248 -0.0365 -0.0573  0.0952
17853W        W34037  16.564  14.648   3.543  0.0321  0.1939  0.1306
17854W        W34038   6.109  16.841  12.024 -0.2498 -0.1671  0.0930
17855W        W34039  17.333  14.585   4.398  0.0625 -0.1300 -0.2239
17856W        W34040  15.907  10.421   5.015 -0.2172 -0.0207  0.0025
17857W        W34041  13.406  15.411   5.698  0.0198  0.2067 -0.1512
17858W        W34042  11.293  17.638   0.625  0.2049 -0.1955  0.1726
17859W        W34043   2.373   5.716  14.113 -0.0320  0.1359 -0.2434
17860W        W34044   5.399  13.524  14.608  0.0172  0.1180  0.1768
17861W        W34045   0.795   3.816   0.146 -0.3649  0.0481  0.1716
17862W        W34046  15.533  16.790  11.849 -0.0161 -0.1582 -0.1630
17863W        W34047  12.382  13.783   5.526 -0.1012  0.2875 -0.3457
17864W        W34048   5.634  13.589  13.117 -0.0217 -0.0156 -0.1888
17865W        W34049   1.551   3.426  12.095 -0.1259 -0.1010 -0.1544
17866W        W34050  13.625  16.173  12.019  0.0710 -0.0498 -0.0935
17867W        W34051  13.279  12.129   3.271  0.1333 -0.3299  0.0490
17868W        W34052   8.134  10.490   1.855 -0.1145 -0.2553  0.1363
17869W        W34053   1.858  11.704   5.108  0.0669 -0.1657  0.1257
17870W        W34054  14.293  11.805  14.880 -0.0306  0.0989  0.0954
17871W        W34055   4.166   1.084   5.145 -0.2766 -0.0103 -0.0213
17872W        W34056   6.016   0.096   1.576 -0.1017  0.1182 -0.1412
17873W        W34057  13.351   0.869  14.668 -0.0721 -0.1750  0.0429
17874W        W34058  16.081   9.875  14.853  0.0211 -0.0372  0.2556
17875W        W34059  14.060  14.028  11.964 -0.1324 -0.0959  0.0587
17876W        W34060   6.738   0.841  15.526  0.2841 -0.2863 -0.0771
17877W        W34061  10.074  16.509   4.475 -0.0357 -0.2134 -0.2879
17878W        W34062  14.096   4.837  12.022 -0.0735 -0.2387  0.1599
17879W        W34063  16.562   6.016  13.331 -0.0465  0.0313 -0.1288
17880W        W34064   3.949  17.264  13.092 -0.0913 -0.0764  0.0899
17881W        W34065   1.932  10.008  14.983  0.0021 -0.4346  0.1279
17882W        W34066   4.338   4.770   0.496 -0.2174 -0.1090 -0.0544
17883W        W34067   4.935   6.564   3.014  0.2884 -0.2102  0.2036
17884W        W34068   6.345   9.279   0.935  0.0125 -0.2410  0.1137
17885W        W34069  13.767  15.625   2.379 -0.1931 -0.2337 -0.0010
17886W        W34070   7.614  15.099   5.432 -0.0654 -0.0447 -0.2324
17887W        W34071   4.049  17.719   5.279  0.0290  0.2306 -0.0210
17888W        W34072   6.244   0.923   0.004  0.2302 -0.2800  0.0813
17889W        W34073   5.920  17.769   2.821  0.2299 -0.0020 -0.1707
17890W        W34074  13.124   0.455  13.926  0.0666 -0.1848  0.1375
17891W        W34075  13.218   8.658  12.375  0.3029  0.0382  0.2401
17892W        W34076   7.078  10.023   2.964  0.2078  0.0412 -0.1352
17893W        W34077  17.574   8.440   3.821 -0.0327  0.0536  0.0055
17894W        W34078  13.043   3.154  15.930  0.1509 -0.1413 -0.2533
17895W        W34079   6.060  12.552   4.897 -0.2236  0.0971  0.0239
17896W        W34080   1.688   3.375   0.664 -0.1908  0.0745  0.0841
17897W        W34081   4.707  17.300  12.964 -0.1985 -0.3354 -0.1614
17898W        W34082   5.085   6.006  11.711  0.1004 -0.1094 -0.0645
17899W        W34083  10.034  14.889  15.512  0.0915  0.0477 -0.1726
17900W        W34084   4.723   3.389   3.264 -0.1421 -0.0818  0.0415
17901W        W34085   1.331  12.334   0.447  0.1037  0.1115 -0.0957
17902W        W34086   7.264  17.816  16.172  0.0905 -0.1504 -0.4639
17903W        W34087   3.914  10.580   2.751 -0.1013 -0.3485  0.2793
17904W        W34088  14.158  17.670   6.171  0.0371 -0.0695  0.3450
17905W        W34089   4.501  10.785  15.578 -0.1161 -0.0090 -0.0569
17906W        W34090   5.410  15.441  15.456 -0.0609 -0.2904 -0.3004
17907W        W34091  15.666  17.822  12.023  0.1477  0.0383 -0.2634
17908W        W34092   0.569  14.985  16.379  0.1439 -0.0127  0.1748
17909W        W34093  17.160  13.821   2.534  0.1961  0.0519 -0.0499
17910W        W34094   9.959   0.064  12.865  0.3480 -0.1357  0.0273
17911W        W34095   4.951   4.896   3.917  0.0209  0.2226  0.1691
17912W        W34096   7.467  12.012   0.983  0.1859 -0.1538 -0.0040
17913W        W34097  11.939  10.183   6.074  0.0933 -0.0949 -0.0892
17914W        W34098   6.657   9.707   0.730 -0.1983 -0.2369 -0.1956
17915W        W34099  11.552   3.682   4.897 -0.3997  0.2958  0.0482
17916W        W34100   2.763   8.549  12.113  0.0335  0.1148 -0.3330
17917W        W34101   2.217   5.913  16.361 -0.3885  0.1351  0.0708
17918W        W34102   8.918  17.858  15.976 -0.3209 -0.1579  0.1372
17919W        W34103  17.794   6.201   5.596 -0.3112 -0.0675  0.0012
17920W        W34104   3.930   8.932   3.865 -0.1852 -0.1023 -0.5224
17921W        W34105  13.463   1.767  15.860  0.4011 -0.1755 -0.0459
17922W        W34106  10.956  17.371  16.254  0.0233  0.5115  0.1290
17923W        W34107   4.906  14.462  14.672  0.1334  0.1725 -0.2767
17924W        W34108  18.014   5.650   2.545 -0.1030 -0.0568 -0.4757
17925W        W34109  15.946  16.235   2.565 -0.2363  0.2910  0.0838
17926W        W34110  10.329   7.266   4.399  0.2897  0.4105 -0.0252
17927W        W34111   2.887   8.086  11.818 -0.2780  0.2493  0.0067
17928W        W34112   1.314   2.431   4.389  0.3040  0.3596  0.2135
17929W        W34113  10.461  14.879   0.492 -0.1071  0.2871  0.0629
17930W        W34114   4.715  14.250  13.671 -0.1698 -0.1104  0.1688
17931W        W34115   0.539  15.501   1.584  0.3912 -0.1404 -0.3267
17932W        W34116  17.266   4.035  11.361  0.3674 -0.0091 -0.1281
17933W        W34117   1.493   8.097   4.807 -0.2637  0.3600 -0.2273
17934W        W34118   0.153   6.079   3.293 -0.0270  0.2169  0.0166
17935W        W34119  15.585  13.249  16.240 -0.1970 -0.3415 -0.1926
17936W        W34120   1.703   8.870   0.960  0.0659 -0.2259  0.2828
17937W        W34121  11.337   8.483  11.807 -0.0867  0.0456 -0.2642
17938W        W34122   7.775   2.090   3.391  0.1281  0.3257 -0.1699
17939W        W34123  17.115  15.056   0.766 -0.0078 -0.0453  0.4207
17940W        W34124   3.560   6.999   0.564 -0.0606 -0.0517  0.2303
17941W        W34125   5.031   4.387  14.678  0.1460 -0.1491  0.0120
17942W        W34126   5.195  12.218  14.385 -0.1103  0.3318  0.0552
17943W        W34127   2.596   5.315   3.036  0.0119 -0.0830 -0.2351
17944W        W34128   3.504  15.515   1.947 -0.2555  0.2258 -0.1918
17945W        W34129   7.895   3.503   3.215  0.0110 -0.1588  0.0902
17946W        W34130   8.557   5.180  12.695 -0.3000  0.0533  0.2969
17947W        W34131  13.823  13.089   4.111  0.0344 -0.0301 -0.0532
17948W        W34132   9.586  10.057   1.593 -0.0339  0.1501 -0.0031
17949W        W34133   7.326  17.282   4.102  0.2023 -0.1844 -0.0392
17950W        W34134  14.411   9.007   4.200  0.1626 -0.1901 -0.0586
17951W        W34135  16.252  11.179  15.755  0.0869  0.1166  0.1339
17952W        W34136  12.695   9.799   5.164 -0.1501 -0.1591 -0.1219
17953W        W34137   6.828  10.142   4.501  0.0545  0.0350 -0.2027
17954W        W34138  12.761  11.889  11.847 -0.0929  0.1151  0.2183
17955W        W34139  11.065  16.544  13.721 -0.0306 -0.0293 -0.0600
17956W        W34140  16.730   7.371   5.286 -0.2575  0.4540 -0.0848
17957W        W34141   8.947   9.525   0.448  0.2036 -0.1866  0.3530
17958W        W34142  15.439  14.799   1.624 -0.0674  0.1173 -0.0855
17959W        W34143  14.473  18.027   4.379  0.1126  0.0076 -0.2161
17960W        W34144  12.594  12.690  12.853 -0.0383 -0.1250  0.2633
17961W        W34145  11.272   5.765  12.045 -0.1393  0.1729 -0.0514
17962W        W34146  12.771   2.296  12.954 -0.4672 -0.5590  0.2556
17963W        W34147  10.606   3.231  15.862 -0.0039 -0.0087  0.0767
17964W        W34148  17.738   0.706  16.619 -0.0562  0.0055 -0.2133
17965W        W34149   3.235   9.231   5.596  0.5641 -0.0300  0.0659
17966W        W34150   2.598  14.323   4.209 -0.2090  0.1312 -0.2105
17967W        W34151   4.045   7.355   1.212 -0.0943 -0.0439  0.3504
17968W        W34152  14.098  17.614  13.634  0.4764 -0.2547 -0.0486
17969W        W34153   7.530   9.493   1.174 -0.0899 -0.0115 -0.0605
17970W        W34154   6.005   3.111   4.665  0.1142 -0.3045 -0.0471
17971W        W34155  17.111   3.392  12.274  0.2607 -0.0050 -0.1939
17972W        W34156  15.551  10.490   5.422 -0.1807  0.2667  0.1421
17973W        W34157   8.192  16.141  11.566 -0.1275 -0.0983 -0.0088
17974W        W34158  15.275   6.844  11.449 -0.0348  0.3696  0.0397
17975W        W34159   1.762   5.737  12.504  0.1758 -0.2727  0.2419
17976W        W34160   3.676   5.760  15.660 -0.2259  0.2931 -0.4652
17977W        W34161  16.845  16.085   4.968  0.1908  0.0285  0.2052
17978W        W34162  15.003  16.984  12.785  0.2706 -0.1913  0.1072
17979W        W34163   9.305   6.685   4.952  0.0797 -0.1825  0.2206
17980W        W34164  17.455  17.807   2.891  0.0617 -0.2539 -0.0225
17981W        W34165  16.607  10.745  12.284 -0.0164  0.4505  0.5216
17982W        W34166   3.381  17.835   4.616 -0.0784 -0.2217  0.3487
17983W        W34167  13.077   9.580  12.748  0.0158 -0.0565  0.0814
17984W        W34168   5.947  17.861   0.672  0.1501 -0.2378 -0.1819
17985W        W34169   7.246   3.006  13.221  0.2465 -0.1211  0.1746
17986W        W34170   3.077   4.176   0.965  0.1439 -0.2754  0.2307
17987W        W34171  17.484   0.696   4.711 -0.0652  0.0426  0.0555
17988W        W34172  15.979   6.607  14.740 -0.0903  0.1605  0.1024
17989W        W34173  10.302   4.371   3.170  0.2354 -0.1055 -0.3135
17990W        W34174  13.687  10.589   2.843 -0.0472  0.0384 -0.0038
17991W        W34175  12.134   2.988   1.415 -0.1290 -0.2295 -0.2817
17992W        W34176  11.900   4.093   1.877 -0.0965  0.2356 -0.0342
17993W        W34177  11.689   9.325  11.944  0.0749 -0.0825 -0.3009
17994W        W34178   8.466   2.030   1.563  0.0810  0.1831 -0.2337
17995W        W34179  12.014  14.564  15.305  0.1135 -0.3545  0.1767
17996W        W34180   9.234   3.710  16.670 -0.0971 -0.3466  0.2446
17997W        W34181  15.857  17.124   3.123 -0.2692 -0.2536  0.2152
17998W        W34182   7.267   0.461   2.345 -0.0507  0.1020  0.1223
17999W        W34183  16.572   1.137   4.722 -0.1557 -0.1198 -0.1310
18000W        W34184  10.132  12.897  15.816  0.2765 -0.0601 -0.1234
18001W        W34185   1.664   2.007   0.877 -0.0704 -0.2451 -0.1414
18002W        W34186   1.506  13.317  13.144 -0.0136 -0.3484  0.0767
18003W        W34187  17.619   9.192   0.817  0.1961  0.1709  0.1125
18004W        W34188  11.582   7.573   5.794  0.1546  0.0566 -0.0433
18005W        W34189  17.823  12.678   3.120  0.3338  0.0198  0.2776
18006W        W34190  15.704   9.496   2.561  0.0355  0.3160 -0.1606
18007W        W34191  13.929  14.952  13.449  0.1659  0.1135 -0.0683
18008W        W34192  15.308  12.624   0.685 -0.3511 -0.0023 -0.3670
18009W        W34193   6.525   3.574   1.878 -0.1675 -0.3861 -0.5525
18010W        W34194   9.365  10.275   2.198  0.0020  0.0005 -0.1951
18011W        W34195   1.725  11.009   4.736 -0.2419 -0.1213 -0.1126
18012W        W34196  15.128   8.112   0.132  0.2729 -0.1518 -0.1472
18013W        W34197   2.489   3.344  15.915 -0.1680  0.2125 -0.0220
18014W        W34198  10.315  13.086  12.213 -0.1901 -0.2506 -0.2860
18015W        W34199  14.659   0.264  10.487 -0.1682 -0.1073 -0.0813
18016W        W34200  10.626   5.188   5.868 -0.1370 -0.0397  0.1614
18017W        W34201   8.775   1.611  13.980  0.1825  0.0397 -0.3307
18018W        W34202  11.949   2.357   0.317  0.0807 -0.2264 -0.2030
18019W        W34203  11.333   3.994   1.278 -0.2615  0.1247  0.2872
18020W        W34204  11.835  15.225   4.790 -0.0593 -0.2231  0.3869
18021W        W34205  16.212   1.911  16.114 -0.0335 -0.2188  0.0577
18022W        W34206   3.896   2.559  14.913 -0.0668 -0.1689 -0.0325
18023W        W34207   4.437  17.432  15.143  0.1342 -0.3965 -0.0163
18024W        W34208   0.448  17.752   0.225  0.0841 -0.2727  0.0548
18025W        W34209   2.123   2.302   3.150 -0.1045  0.1328  0.1499
18026W        W34210  10.629  12.591  13.619 -0.0496 -0.0044 -0.2126
18027W        W34211   1.275   5.868  12.647 -0.2282 -0.0460  0.2934
18028W        W34212   9.247   2.916  14.055  0.0768 -0.0315 -0.2464
18029W        W34213  17.918   5.312  10.782  0.0888 -0.0600 -0.1955
18030W        W34214  16.275   0.700  16.450  0.0344 -0.0325  0.0932
18031W        W34215  10.412  14.938  16.170 -0.2339 -0.3319 -0.0453
18032W        W34216   1.275   1.680   0.737 -0.0454 -0.1021 -0.0315
18033W        W34217   5.072  10.790   4.852 -0.0646 -0.0676  0.1981
18034W        W34218  14.579  13.856   5.963  0.0094  0.0792  0.1249
18035W        W34219   1.312  12.577  13.934  0.0114  0.1256  0.0053
18036W        W34220   6.595  11.970   4.571  0.0122  0.0150  0.1449
18037W        W34221  16.053   1.975   1.386 -0.3285  0.0251  0.3757
18038W        W34222  15.983   5.399  13.236 -0.0398 -0.0831 -0.3266
18039W        W34223   5.018  17.141  16.354 -0.0165  0.0550 -0.0728
18040W        W34224   4.637   8.936  12.359 -0.3504 -0.1374 -0.2368
18041W        W34225  12.189   6.744  12.399 -0.0084  0.1033 -0.2224
18042W        W34226   3.964  17.012  14.188 -0.1136  0.0978  0.0126
18043W        W34227  15.797   4.506   4.519 -0.3296  0.0468  0.0353
18044W        W34228  15.154  17.231   4.854 -0.0157 -0.0769  0.1482
18045W        W34229   0.878   5.910   1.498  0.2247 -0.0965  0.3288
18046W        W34230   6.689   0.304  13.791 -0.2309  0.0493 -0.2194
18047W        W34231  17.314   3.702   3.310  0.0826  0.0337 -0.0453
18048W        W34232   6.483  16.567  12.968 -0.0521  0.0267 -0.0154
18049W        W34233  10.400  14.045  14.898  0.0412  0.2202  0.0933
18050W        W34234   2.133   9.940   3.226  0.1545 -0.1552 -0.0203
18051W        W34235   1.196   5.404  14.848  0.0456 -0.3032 -0.0064
18052W        W34236   2.070  15.690  14.132 -0.2541  0.0494  0.1249
18053W        W34237  10.478  16.791   3.663  0.1129  0.1261  0.4391
18054W        W34238  16.107  15.450  12.032 -0.0309  0.0207  0.2116
18055W        W34239  13.072  17.485   4.268 -0.1193  0.1471 -0.0932
18056W        W34240   3.261   4.823   3.113  0.0953 -0.3000  0.0699
18057W        W34241   5.265  12.791   1.801 -0.1025  0.1234  0.1985
18058W        W34242  16.600   2.737   4.462  0.1094 -0.0148 -0.0593
18059W        W34243  17.860   5.882   5.208 -0.2961  0.0481  0.0337
18060W        W34244  14.035   7.788   4.911 -0.1186  0.0229 -0.0937
18061W        W34245  11.249  13.728   0.008  0.1117  0.2708 -0.2331
18062W        W34246  10.399  13.880   4.571 -0.0122 -0.1940 -0.1497
18063W        W34247   4.478  10.329  16.205  0.0157 -0.1545 -0.1751
18064W        W34248  10.163   0.337  14.390  0.0728  0.1339  0.1327
18065W        W34249  16.363  14.947   4.530 -0.2115 -0.0384  0.2203
18066W        W34250   6.037   9.078  14.867  0.3577 -0.0470  0.0971
18067W        W34251   2.632   8.029   5.731 -0.0333 -0.0412 -0.2888
18068W        W34252  12.286   5.143   3.842 -0.0764  0.3961  0.0753
18069W        W34253  13.934  13.556  15.863 -0.1482  0.1471  0.2944
18070W        W34254   7.792  11.544   5.138 -0.0942 -0.1308  0.0607
18071W        W34255  10.540   5.706   0.228  0.0247 -0.3079  0.0026
18072W        W34256  17.675   4.011  12.288  0.0242 -0.1108 -0.0093
18073W        W34257   9.218  11.469  15.460  0.3668 -0.0729 -0.2269
18074W        W34258   9.080   5.182   5.928  0.3206 -0.5035 -0.1469
18075W        W34259   8.681   8.467   1.062  0.1408 -0.0189 -0.2103
18076W        W34260   1.329  10.607   0.486 -0.3596  0.0115 -0.3217
18077W        W34261  16.893  13.432  15.827  0.1466  0.1869  0.1812
18078W        W34262   7.466   9.380   0.589 -0.0473 -0.0533  0.2717
18079W        W34263   5.063   8.963   5.249 -0.0778 -0.1920  0.0866
18080W        W34264   8.028  10.717   5.480 -0.0710  0.0685  0.2669
18081W        W34265  11.803   7.661  12.820 -0.1365  0.0573 -0.1072
18082W        W34266   9.640  14.028  12.669 -0.1420 -0.1103 -0.0339
18083W        W34267  14.782  15.091   3.864  0.0676 -0.5973 -0.0155
18084W        W34268   2.009   3.997   2.708 -0.2096  0.1968 -0.2465
18085W        W34269   6.652   8.135   2.411  0.2788  0.0355 -0.1395
18086W        W34270  17.504   4.986   3.594  0.2720  0.0808 -0.1699
18087W        W34271  16.659  11.254   4.574 -0.2219  0.1005  0.0914
18088W        W34272   3.913   1.190   2.272  0.2021 -0.0201 -0.2076
18089W        W34273  16.439   5.582  13.140  0.2486 -0.0639  0.1148
18090W        W34274  12.580   9.823   0.018 -0.1546 -0.2658  0.1877
18091W        W34275  12.782  15.934   0.786  0.1485 -0.1331  0.3503
18092W        W34276   9.849  15.758  14.399  0.0023 -0.3930 -0.1437
18093W        W34277  15.225  12.163   0.554 -0.1520 -0.0948 -0.0429
18094W        W34278  14.331  13.590  10.751 -0.1224 -0.3447 -0.0698
18095W        W34279   0.574   5.934  10.889 -0.1021  0.0900 -0.1065
18096W        W34280   7.289   7.652  13.509  0.1297 -0.5606  0.1233
18097W        W34281   5.852   0.764  11.869 -0.2615  0.2106  0.0765
18098W        W34282   9.486  12.373   4.479 -0.0425 -0.0327 -0.2518
18099W        W34283  14.313  18.102  15.908 -0.2442 -0.0045  0.1894
18100W        W34284   2.951   8.739   4.019  0.0686 -0.0884  0.0786
18101W        W34285   8.854  13.347  15.495  0.0185 -0.1549 -0.3018
18102W        W34286   9.758  14.309   0.002 -0.0436  0.1545 -0.0570
18103W        W34287  16.868   0.666  11.825  0.1270 -0.0876 -0.2064
18104W        W34288   3.681   8.881   5.692  0.1486  0.1914 -0.2572
18105W        W34289   4.916  12.499   5.110  0.0750  0.4102  0.4046
18106W        W34290   6.090   7.162   5.141  0.1668  0.1808  0.1202
18107W        W34291   2.138   7.445   1.916  0.1908  0.0732 -0.0207
18108W        W34292   3.066   6.831  13.403  0.1029  0.0087  0.1041
18109W        W34293  10.765   4.368  12.306 -0.0554 -0.1708  0.1041
18110W        W34294   7.258  13.218   4.503  0.0127  0.1384 -0.0784
18111W        W34295   9.031   6.293   1.840  0.3203 -0.0091 -0.0715
18112W        W34296  17.481  13.366  14.663  0.2708  0.2270 -0.2828
18113W        W34297   9.782   9.218   3.837  0.2399 -0.0434 -0.2105
18114W        W34298   4.824  14.394   5.774 -0.3220 -0.0585 -0.0456
18115W        W34299   9.889   7.944   2.179 -0.0840  0.0507 -0.2306
18116W        W34300   0.910   9.340  14.782 -0.2380 -0.0715 -0.0612
18117W        W34301   8.770   3.191   3.131 -0.2080 -0.3223 -0.1148
18118W        W34302  16.666   5.584  12.317  0.0348 -0.4816 -0.0621
18119W        W34303  14.919  16.080   0.368 -0.1731  0.3817  0.2805
18120W        W34304  15.777   0.250  15.707 -0.1280  0.0012 -0.0324
18121W        W34305   0.498   9.831   5.484 -0.1207  0.0279 -0.1706
18122W        W34306   8.411  17.727   2.765  0.2081 -0.1214 -0.1003
18123W        W34307   0.469   9.356   2.159  0.1621 -0.3084 -0.0848
18124W        W34308   9.236   3.909   2.162 -0.1107 -0.2589  0.1296
18125W        W34309   4.497   5.174  13.166  0.1887 -0.0571  0.2998
18126W        W34310   1.652   4.275  15.754 -0.0459  0.3762 -0.1284
18127W        W34311   5.271   5.487  16.076  0.0903  0.1053  0.0324
18128W        W34312  10.429   9.887  15.172 -0.2653 -0.1798  0.0319
18129W        W34313  13.078  15.430  16.420  0.1496 -0.0499 -0.0994
18130W        W34314   6.061   9.559  16.329  0.0363  0.0013  0.0860
18131W        W34315  15.627  14.440   1.925 -0.1785  0.3230 -0.0189
18132W        W34316   5.156  10.811  15.700  0.0334  0.0212 -0.0102
18133W        W34317  11.507   6.247  15.342 -0.0580 -0.0189  0.2008
18134W        W34318   3.411  11.061   3.716  0.3011 -0.0518  0.0782
18135W        W34319   2.898  17.613   0.650  0.2329 -0.0444 -0.0595
18136W        W34320   5.985   1.190  14.866 -0.1548  0.2303  0.0231
18137W        W34321   9.017   3.017  12.872 -0.0930 -0.0761  0.1998
18138W        W34322   9.789   4.674  11.794  0.0335 -0.0100  0.1485
18139W        W34323   5.637  12.928   4.654  0.2655  0.2083  0.1469
18140W        W34324   0.661   3.189  14.873 -0.2377  0.0051  0.1644
18141W        W34325  15.556   9.115  11.157  0.1013 -0.1632 -0.2706
18142W        W34326  11.544  16.387  12.968 -0.1099 -0.0455 -0.2851
18143W        W34327   1.668   3.134  11.094 -0.2551 -0.1363  0.0578
18144W        W34328  12.022   7.751   0.922  0.0799  0.3039  0.1382
18145W        W34329   7.273   3.009  11.787 -0.1263 -0.0359  0.0745
18146W        W34330  10.343  10.147   2.633  0.0964  0.0745  0.3007
18147W        W34331   5.682  12.272  14.500  0.1067  0.2354  0.0937
18148W        W34332  10.037   2.955  16.659 -0.2283 -0.3632  0.0984
18149W        W34333  17.953   7.659   0.592  0.0034 -0.1669  0.0242
18150W        W34334   3.757   0.278   1.055  0.2405  0.0310 -0.2274
18151W        W34335  10.794   4.556   5.295  0.0728 -0.0486  0.1792
18152W        W34336  15.871  11.423  16.552  0.2679 -0.0470  0.0636
18153W        W34337   3.269   4.744  12.424  0.1229 -0.0474 -0.0136
18154W        W34338   0.855   3.184   4.326 -0.1677 -0.0194 -0.2142
18155W        W34339  17.246  15.223  12.024 -0.2590  0.3851 -0.1730
18156W        W34340  16.959   3.268   5.263 -0.0225 -0.2275  0.0689
18157W        W34341  17.145  11.400   0.009  0.1515 -0.0451  0.2078
18158W        W34342  16.773  10.659   5.409  0.2643  0.1794  0.1089
18159W        W34343   4.390   8.608   5.190 -0.1822 -0.1007  0.3245
18160W        W34344   5.725  10.755   5.591 -0.0003 -0.0474  0.0448
18161W        W34345  17.261   9.992  16.080  0.0962  0.1126 -0.3292
18162W        W34346   6.981   8.050   3.119  0.1014 -0.2518 -0.1372
18163W        W34347  16.782  13.249   5.399 -0.2200  0.3910 -0.0982
18164W        W34348  10.954   7.242  12.582 -0.1093 -0.0379  0.1154
18165W        W34349  13.752   0.866  13.266  0.3153  0.1483 -0.2118
18166W        W34350  17.202   0.154   3.199  0.0960  0.0306 -0.1282
18167W        W34351   8.508  11.086   0.247 -0.2777 -0.4295  0.1018
18168W        W34352  16.423   9.946   2.259 -0.1694 -0.4166  0.1075
18169W        W34353  16.616   7.793  15.556  0.0588 -0.2153  0.0347
18170W        W34354  14.402   7.603  11.522 -0.0944 -0.2536 -0.2201
18171W        W34355  11.758  10.361  14.872  0.0237 -0.1953 -0.1980
18172W        W34356   2.468   1.006  16.079 -0.0973 -0.0121  0.0251
18173W        W34357  16.021   2.279   3.743  0.0446  0.1012 -0.0666
18174W        W34358  14.735  14.704   3.472  0.3934  0.2780  0.0422
18175W        W34359   4.215   1.936  15.748  0.0817 -0.0654  0.1083
18176W        W34360  14.923  14.226   2.674 -0.1932 -0.0837  0.1175
18177W        W34361   5.601   5.705   6.318 -0.2280  0.1132 -0.0097
18178W        W34362  10.513   9.202  15.863  0.2493  0.3045 -0.3230
18179W        W34363   4.130  10.968  11.623  0.0760 -0.1397  0.2801
18180W        W34364  12.127  14.458  14.775 -0.3645  0.2343  0.2643
18181W        W34365  15.123  17.194   3.813 -0.2162 -0.0414 -0.0246
18182W        W34366   3.927   0.583   4.400 -0.3257 -0.0246 -0.0115
18183W        W34367   8.957  15.637  14.430  0.0203  0.0320 -0.1008
18184W        W34368  14.116  12.573   3.353  0.0864  0.1344  0.0060
18185W        W34369  13.957  16.382   5.430 -0.1712  0.1254 -0.2126
18186W        W34370   7.804   7.661   3.486 -0.0105  0.1169 -0.1924
18187W        W34371  15.062   5.675   1.670 -0.3712 -0.0398 -0.0876
18188W        W34372  15.162   5.116  13.623 -0.0828  0.0739  0.0322
18189W        W34373   8.384   9.660   2.289 -0.0548  0.0137  0.1479
18190W        W34374   2.794   7.375  13.416  0.1840  0.2129 -0.1811
18191W        W34375   3.476   5.400   0.705  0.0629  0.0814  0.0416
18192W        W34376  10.441   7.056   3.932 -0.2432  0.0691  0.2731
18193W        W34377  15.087  11.603   2.539  0.0610  0.2294  0.1068
18194W        W34378   2.696  15.553  13.488 -0.3936 -0.1037 -0.3246
18195W        W34379   5.024  10.022   2.625  0.3227 -0.1672  0.4698
18196W        W34380  13.067  16.433  14.891 -0.0798  0.3163 -0.3852
18197W        W34381   0.896  13.182  12.757 -0.0512  0.0567  0.5162
18198W        W34382   2.653  16.062  16.260 -0.0614 -0.0597 -0.0060
18199W        W34383  10.686   5.089   5.189 -0.2974  0.1151 -0.0665
18200W        W34384  12.889  15.825  14.859  0.1113 -0.0287 -0.1841
18201W        W34385  16.966  17.016   1.836 -0.1986  0.0064 -0.0743
18202W        W34386   6.368   4.611   5.716 -0.1106 -0.0560 -0.1916
18203W        W34387   8.692   7.376  13.300 -0.0178 -0.3230  0.0628
18204W        W34388   4.312   1.857  14.018  0.2329 -0.0820  0.1041
18205W        W34389   8.668  10.368  13.553  0.0045  0.2425  0.3790
18206W        W34390  13.689   1.530   2.462  0.2876  0.2257 -0.1679
18207W        W34391   5.402   0.385  13.549 -0.2278 -0.3865  0.0496
18208W        W34392   1.403   6.412   1.935  0.0865  0.3579  0.0419
18209W        W34393   5.524   9.566  14.142  0.2114  0.3241 -0.1491
18210W        W34394   1.918   7.422  12.187  0.0069 -0.0430 -0.5163
18211W        W34395   0.367   8.151   4.917 -0.0503 -0.2412  0.1730
18212W        W34396  16.565  14.587   2.331  0.0610  0.1466  0.1873
18213W        W34397  14.934  16.830   1.595 -0.0970  0.0048  0.1302
18214W        W34398  14.374   9.065   2.265  0.1481 -0.3121 -0.0951
18215W        W34399  10.118  11.948  12.426  0.0482  0.0317 -0.1427
18216W        W34400   7.561   8.346  12.159  0.0715 -0.3199 -0.0215
18217W        W34401   5.214  15.357  11.836 -0.1202  0.1201  0.0609
18218W        W34402  17.463  17.022  15.980  0.0761  0.1068  0.1026
18219W        W34403   6.931   0.896   4.616 -0.0854  0.3303 -0.3086
18220W        W34404   4.537  11.451   1.674  0.2846  0.1710  0.1845
18221W        W34405   0.184   4.996  14.888  0.1715  0.0071  0.2256
18222W        W34406   8.039  10.160   2.805 -0.0908 -0.0270 -0.2647
18223W        W34407  14.451   4.288  13.948 -0.0997 -0.0057 -0.2393
18224W        W34408  15.172  10.746  12.180 -0.0765 -0.0745  0.0185
18225W        W34409  15.813   0.021   0.537  0.3416  0.0437 -0.1312
18226W        W34410  12.280  15.535   4.531  0.2469 -0.3058  0.1045
18227W        W34411  11.786  15.781   4.757 -0.1814 -0.3664 -0.0308
18228W        W34412  17.997   9.856   0.028 -0.1238 -0.0332  0.0988
18229W        W34413  17.239   1.025   3.162 -0.0617  0.1791  0.0637
18230W        W34414  17.268   7.809   1.834 -0.2491 -0.1266 -0.1078
18231W        W34415   9.900   3.844   1.610 -0.0089 -0.0578  0.0021
18232W        W34416  11.353   4.913   0.354  0.1799 -0.1411 -0.4769
18233W        W34417   7.711   5.215  16.504 -0.1936  0.0452  0.3721
18234W        W34418   6.310  11.464   0.332  0.0028  0.1317 -0.0841
18235W        W34419   6.485   4.322  12.336  0.0083  0.1180 -0.2089
18236W        W34420   2.936   4.018  14.144  0.0720  0.0934  0.0389
18237W        W34421   9.796  14.121  14.340 -0.0742  0.2365  0.1532
18238W        W34422  17.489  11.078   5.553  0.0619  0.0559 -0.3851
18239W        W34423   3.323   8.883  14.180  0.0624 -0.2636 -0.0058
18240W        W34424   7.356   8.274  12.628 -0.0208 -0.3881 -0.0279
18241W        W34425  13.882  14.296  16.294 -0.2221  0.1270  0.0523
18242W        W34426   2.546  11.240   1.639  0.1931  0.0317 -0.2389
18243W        W34427   8.890   3.036  14.545 -0.0624 -0.1009  0.1255
18244W        W34428   2.723   3.937   1.361  0.0127 -0.2096 -0.3390
18245W        W34429   3.182   5.418  16.053 -0.0722 -0.1956  0.0911
18246W        W34430   6.298   6.258  12.718  0.2894 -0.0599  0.3672
18247W        W34431   9.869  15.140   5.741  0.0871 -0.0871 -0.1550
18248W        W34432   4.565   0.040  13.224 -0.4912  0.0939 -0.0576
18249W        W34433   5.273  16.999   3.500  0.3744 -0.1973  0.2467
18250W        W34434  14.497   4.265  15.051  0.0841  0.0651 -0.2219
18251W        W34435  13.858  13.003  13.410  0.0674 -0.1780 -0.0490
18252W        W34436   2.465  12.421   3.695 -0.1007  0.1069 -0.1756
18253W        W34437   9.263  16.767  15.708 -0.1624  0.2107  0.1799
18254W        W34438   9.528   6.765   5.379 -0.2457 -0.2275 -0.0245
18255W        W34439   1.165  11.612  15.670 -0.1658 -0.0421  0.1285
18256W        W34440  12.689   8.694  11.498  0.0461  0.0163  0.2189
18257W        W34441   7.335   5.862   2.457 -0.0464  0.1098 -0.2700
18258W        W34442   7.384   8.298  15.922  0.1022 -0.3895 -0.1231
18259W        W34443  13.223  16.856   2.050 -0.0624  0.2657  0.1482
18260W        W34444  16.557   4.933   1.022 -0.0172  0.2060 -0.0477
18261W        W34445   0.333   4.116   0.322  0.4633 -0.0811 -0.3065
18262W        W34446   8.610  16.917  12.212  0.1295 -0.2134 -0.0222
18263W        W34447   8.817  15.565  16.541  0.0704 -0.0731 -0.0696
18264W        W34448  10.644  10.119  11.977  0.2545 -0.0470 -0.1527
18265W        W34449   5.590   4.292   2.269  0.0579 -0.2218 -0.0472
18266W        W34450  12.918  16.706   1.197  0.0734  0.1716  0.1192
18267W        W34451  15.116   2.306  16.676  0.2442  0.0442 -0.0699
18268W        W34452   1.884  16.615  12.177 -0.3372  0.0470 -0.1094
18269W        W34453   0.971  11.305   1.385 -0.2933  0.0058  0.1698
18270W        W34454  17.043   4.636   1.118 -0.0508  0.1771  0.1983
18271W        W34455   5.373   4.018   2.806 -0.1175 -0.0967 -0.2716
18272W        W34456   2.203  11.563  15.904  0.2887  0.1825 -0.2121
18273W        W34457  17.884  10.674  14.242 -0.0858 -0.1084 -0.0896
18274W        W34458  17.082  16.298   5.494  0.5791 -0.0469 -0.2723
18275W        W34459   2.091   6.160  15.356  0.2810 -0.1678 -0.0484
18276W        W34460   8.978   1.561  16.569  0.3484  0.3371  0.2064
18277W        W34461  15.907  12.831   2.169  0.1798 -0.4973 -0.3097
18278W        W34462  12.167  12.267  15.414 -0.3541 -0.2405  0.0703
18279W        W34463   3.930   0.067   4.256 -0.3393 -0.1329  0.2615
18280W        W34464  17.431   2.343  13.118 -0.0281  0.1545  0.0858
18281W        W34465   9.203  13.807   1.463  0.2534  0.3530 -0.2890
18282W        W34466   4.372   8.743   0.198 -0.0418 -0.1314 -0.0935
18283W        W34467  10.748   5.268   2.165 -0.2403 -0.2768 -0.1439
18284W        W34468   4.418   7.027   3.158 -0.0326  0.0375 -0.2002
18285W        W34469  10.742   0.903  16.284  0.1280  0.0123  0.0351
18286W        W34470  13.389   8.127  12.717  0.1140  0.0935 -0.1983
18287W        W34471   8.014   2.011   3.827 -0.2551 -0.0109  0.1615
18288W        W34472  16.138  13.209  16.182  0.0668 -0.1190  0.0466
18289W        W34473  12.108  16.711   4.289 -0.0025 -0.1583 -0.2211
18290W        W34474   9.115   8.689   4.576 -0.0106 -0.1798 -0.2371
18291W        W34475   7.749  10.047  16.579 -0.1022 -0.2854  0.0065
18292W        W34476   3.897   8.034  12.174  0.0246  0.2104  0.0303
18293W        W34477  16.439   3.398   9.985 -0.0467  0.0283  0.0713
18294W        W34478  16.275   9.418   1.195  0.0652 -0.3677 -0.1174
18295W        W34479   5.201   9.062  15.380 -0.1936  0.2683  0.3599
18296W        W34480   8.212  14.206  14.243  0.0208 -0.1361 -0.2874
18297W        W34481   2.980   0.283  15.608  0.0752 -0.1158  0.0494
18298W        W34482   3.477  11.506   3.561 -0.0441  0.2410  0.1230
18299W        W34483  12.532   7.950   4.925 -0.1486 -0.0122  0.0325
18300W        W34484   9.460   1.655  16.556  0.1402  0.0183 -0.0836
18301W        W34485  15.251   3.199  13.498 -0.0238 -0.4329 -0.1593
18302W        W34486  13.303  16.676   0.722 -0.2070  0.1908  0.1719
18303W        W34487   1.232   3.149   0.557 -0.1771  0.2132 -0.1446
18304W        W34488   2.872   8.180  12.937 -0.0630 -0.1253  0.2441
18305W        W34489   3.922  13.618  12.705  0.0210 -0.0492 -0.3861
18306W        W34490   9.314   3.374  15.366  0.1890  0.1136  0.0150
18307W        W34491  12.074  17.878   5.715  0.0322  0.1695 -0.0918
18308W        W34492   6.139   8.486   4.840  0.0791 -0.0760  0.1750
18309W        W34493  10.893   4.050  13.532  0.0881 -0.1270  0.1183
18310W        W34494   9.429  14.460  13.503 -0.2413  0.1428  0.0644
18311W        W34495  11.675   6.461   3.444  0.1626 -0.2124 -0.2077
18312W        W34496   6.416   7.495   0.582  0.0786 -0.0755 -0.0348
18313W        W34497  12.619   0.761   1.852 -0.1048  0.3317 -0.1256
18314W        W34498   3.348   7.342   2.292 -0.0780  0.0915 -0.0096
18315W        W34499  12.476   1.209  14.682  0.2375  0.0317  0.0015
18316W        W34500  14.214   1.537  15.316 -0.4666 -0.0187 -0.2938
18317W        W34501   0.491   0.208   4.158  0.1616 -0.1426 -0.2454
18318W        W34502  17.978   9.929  12.876  0.0682  0.2064  0.0562
18319W        W34503   3.043  10.667  14.506  0.0124 -0.1997  0.1164
18320W        W34504   9.744   3.703   1.074  0.0192  0.2419 -0.4554
18321W        W34505  11.089   5.771  12.956 -0.0333  0.5352 -0.2604
18322W        W34506  17.870   1.890  13.981  0.1146 -0.4154 -0.0281
18323W        W34507  13.999   4.004   2.779 -0.2267  0.0002  0.2215
18324W        W34508   9.052  11.584   3.208 -0.0334 -0.1272  0.0090
18325W        W34509   4.737   6.473   5.451 -0.1428 -0.2290  0.2486
18326W        W34510  11.199  14.183   1.732 -0.0146  0.1371  0.0141
18327W        W34511   0.957  11.814   5.741  0.2048  0.2755  0.2615
18328W        W34512  10.285   6.094   2.112  0.1646  0.0165  0.0006
18329W        W34513   7.077  13.265   4.008 -0.2822  0.0597 -0.1141
18330W        W34514  10.921  13.427   5.616  0.1230  0.1025 -0.2301
18331W        W34515  13.044  10.220  11.532 -0.0069  0.2190 -0.1978
18332W        W34516   9.626   8.282   4.012  0.0316 -0.1114 -0.1420
18333W        W34517   9.482  17.657  12.689  0.1395  0.4832  0.0145
18334W        W34518   4.673   4.798   0.850 -0.0991  0.2852  0.2025
18335W        W34519   6.575   1.234  16.446  0.1225  0.3629  0.2910
18336W        W34520   2.755   3.019   5.819  0.0081 -0.0952  0.1784
18337W        W34521   9.207  14.345  14.374  0.2158  0.3013 -0.2063
18338W        W34522  10.132   5.644   6.692 -0.0342  0.3552  0.1133
18339W        W34523   9.253  16.056   2.831  0.0426 -0.2086 -0.2245
18340W        W34524   3.651   4.766  11.064  0.0731 -0.5370  0.1875
18341W        W34525   5.246   4.330  12.211  0.0415  0.0411  0.0038
18342W        W34526  11.597  10.223  12.907  0.1322 -0.0497  0.2916
18343W        W34527   7.413   8.389  11.513 -0.3693 -0.3363 -0.2002
18344W        W34528  11.561  16.130   4.436  0.3093  0.1987 -0.0303
18345W        W34529  15.961   9.338   0.117  0.0777  0.0416  0.0238
18346W        W34530   2.165  14.165   4.284 -0.0623 -0.3310 -0.0788
18347W        W34531  11.225  10.552  13.525 -0.0167 -0.0819 -0.1967
18348W        W34532   6.014   5.500  11.609 -0.0263 -0.2236  0.0301
18349W        W34533  13.753   8.097  11.338 -0.0520 -0.3729  0.1019
18350W        W34534   8.264   9.309  13.204  0.1316 -0.0926 -0.1525
18351W        W34535  16.426   1.450  16.113 -0.0063  0.2215 -0.1242
18352W        W34536   1.452   0.747   2.443  0.1864  0.1341 -0.2299
18353W        W34537  11.356   7.983  15.683 -0.0600 -0.1365 -0.1358
18354W        W34538   5.456  15.151   4.973 -0.4058  0.3948 -0.0464
18355W        W34539  16.723  16.903  14.151 -0.1988 -0.1053 -0.1463
18356W        W34540   2.313  13.464   2.168 -0.3012 -0.3675  0.1441
18357W        W34541   1.204   7.062  10.628 -0.0082  0.0756  0.1509
18358W        W34542   7.014   4.279  15.231 -0.0766  0.0840 -0.0509
18359W        W34543  12.421   9.515   3.877  0.1494  0.2686  0.4183
18360W        W34544  17.832   4.575  10.891 -0.0722 -0.2019 -0.1178
18361W        W34545   7.110   0.506  12.425  0.0212  0.1211 -0.1532
18362W        W34546   4.155  14.861   2.633  0.0437 -0.2741 -0.3163
18363W        W34547  15.808   2.202  11.415 -0.3078 -0.3474 -0.0784
18364W        W34548   1.057   4.197   5.704 -0.3120  0.0126  0.0779
18365W        W34549  12.427  13.318  15.609 -0.1350 -0.4866  0.2060
18366W        W34550   1.748   9.603  12.890 -0.3270 -0.1442  0.1638
18367W        W34551   9.311  12.695   2.687 -0.1919 -0.3256 -0.0103
18368W        W34552   6.169   3.976   1.128 -0.0458 -0.4272  0.3411
18369W        W34553   2.514  12.774  14.297  0.2544  0.0542 -0.0693
18370W        W34554   5.269  13.311  15.791 -0.0447  0.2051 -0.0483
18371W        W34555  16.830  13.047   2.900  0.0738  0.2887 -0.2723
18372W        W34556   8.930   1.555   4.490  0.0262 -0.3728 -0.2558
18373W        W34557  18.168  13.314   2.771  0.2865  0.1122  0.1273
18374W        W34558   9.019   5.547   4.996  0.1173  0.1047  0.1083
18375W        W34559   6.313  13.753  12.604  0.1669  0.0967 -0.1345
18376W        W34560   3.747   2.722  16.513 -0.1139  0.2156 -0.0183
18377W        W34561   9.665  10.429   5.845  0.0278  0.4634  0.1588
18378W        W34562   6.383   9.418   1.684  0.0737  0.0414  0.0727
18379W        W34563   6.723   9.162   5.283 -0.0819 -0.1103 -0.0636
18380W        W34564   7.165   4.455  11.747 -0.1863 -0.1104 -0.1958
18381W        W34565   5.739   5.574   1.121  0.0750 -0.0631 -0.1216
18382W        W34566  13.032   3.228   4.299  0.2154  0.3102 -0.0788
18383W        W34567  12.509  15.684   6.094 -0.1910  0.5704 -0.1584
18384W        W34568  16.813   2.940   1.630  0.4058 -0.2998 -0.0227
18385W        W34569   1.242  12.093  11.333 -0.1088 -0.1783 -0.0706
18386W        W34570   8.225   3.584  12.526  0.0703  0.1138 -0.0535
18387W        W34571   4.731   4.087   2.894  0.2390 -0.0948  0.0048
18388W        W34572  15.047   3.189   2.294  0.1517 -0.3225  0.0336
18389W        W34573  16.073   6.691   2.512  0.2456 -0.0482 -0.1712
18390W        W34574  18.169  18.077  12.601  0.0423  0.4405 -0.3167
18391W        W34575  15.591   1.612  10.803  0.0272  0.0379 -0.2793
18392W        W34576   4.112   2.329  14.360  0.1151 -0.0970  0.2607
18393W        W34577   6.117  10.521   4.142  0.0506  0.3858 -0.3324
18394W        W34578   3.328  15.248   1.160 -0.0392  0.0674  0.1631
18395W        W34579  10.140   6.819   4.309  0.0922 -0.1477  0.1856
18396W        W34580   1.416   9.649  12.430 -0.1340  0.1660 -0.1109
18397W        W34581  16.721   0.785  16.678 -0.2635  0.1507  0.1503
18398W        W34582  15.304   9.106   5.215 -0.1851 -0.1124 -0.1010
18399W        W34583   9.087   1.182   2.628 -0.2601 -0.0573  0.1220
18400W        W34584   8.788  13.183  14.382 -0.2658  0.1256  0.1430
18401W        W34585   2.576   3.999  14.500 -0.1099  0.2615  0.1815
18402W        W34586  13.640  11.152  13.418  0.0291 -0.1589 -0.2563
18403W        W34587  11.685  12.540   5.291  0.1134  0.0150  0.1747
18404W        W34588  16.921  14.209   4.541  0.2773  0.0451 -0.0831
18405W        W34589  14.051  12.953   1.768 -0.0049  0.1806  0.0337
18406W        W34590  13.488   6.768  12.423  0.3886  0.0595  0.0692
18407W        W34591  12.092  12.331   6.175 -0.0772  0.1563 -0.4055
18408W        W34592   8.201  14.750   3.033 -0.0369  0.0798  0.1174
18409W        W34593  12.544   7.686  14.800  0.2950 -0.0965 -0.1259
18410W        W34594   2.554  11.607   2.679  0.0865  0.0986  0.1934
18411W        W34595   1.771  15.570  16.634  0.0503  0.0705 -0.0625
18412W        W34596   9.339   3.606   6.490 -0.4208  0.2145 -0.0661
18413W        W34597  11.354   5.324   2.530 -0.0765 -0.0107 -0.2112
18414W        W34598   1.893  11.955   1.464  0.2992  0.4332 -0.1089
18415W        W34599   0.867   6.937   0.853  0.0641  0.1004  0.0084
18416W        W34600  16.864   9.650  13.700  0.0733  0.4354 -0.1203
18417W        W34601   3.744  14.338   3.370 -0.0071  0.1650  0.1074
18418W        W34602   7.765  14.765  12.251 -0.4021 -0.0699 -0.0047
18419W        W34603  18.037   4.281   0.693  0.0227 -0.1012 -0.1948
18420W        W34604   0.521   3.669  11.045 -0.2285  0.1840 -0.3362
18421W        W34605  18.038   1.557  16.504 -0.1329  0.0861 -0.1732
18422W        W34606   5.023   5.488  12.012 -0.1055  0.0428  0.0841
18423W        W34607   2.191  15.499  12.600  0.4323 -0.1448 -0.1040
18424W        W34608  10.459   3.993   4.077 -0.0176 -0.2009  0.0596
18425W        W34609   9.329   5.615   6.087  0.1935 -0.0264 -0.2703
18426W        W34610   5.970   6.268   3.953  0.1582  0.1118  0.0629
18427W        W34611  17.226   3.858   1.653 -0.0082  0.1169 -0.2271
18428W        W34612   2.816   5.600   4.464  0.0600 -0.0903 -0.1198
18429W        W34613   6.565  14.396   4.697 -0.0088  0.1057  0.0698
18430W        W34614   9.582   6.165  15.106 -0.2739  0.0135  0.0491
18431W        W34615   9.424  14.944   2.467  0.1121  0.0478  0.1563
18432W        W34616   9.435  15.889  14.850  0.1725 -0.1399  0.3148
18433W        W34617   4.770   5.982  11.283  0.0478  0.1494  0.0114
18434W        W34618   8.182  12.976   2.121 -0.2084 -0.1905 -0.2667
18435W        W34619   8.303  13.319  15.198 -0.1752  0.0199  0.0745
18436W        W34620   5.317  12.019   2.098 -0.0226  0.0903  0.2173
18437W        W34621  10.848  10.812  13.247  0.1680 -0.2137 -0.1848
18438W        W34622  12.422   8.659   0.789 -0.1722  0.2414  0.2677
18439W        W34623   6.183   7.888  14.382  0.3217  0.2986 -0.1308
18440W        W34624  15.454   5.885   4.531  0.0337  0.1063  0.1845
18441W        W34625   3.694   4.312  15.990  0.0136 -0.1047 -0.2077
18442W        W34626   5.446   4.723  14.905 -0.2274  0.2334  0.0364
18443W        W34627  17.876   0.973  15.154  0.0234 -0.0353 -0.1269
18444W        W34628   5.744   9.526  12.940 -0.1453  0.3719 -0.2580
18445W        W34629   5.998  10.438   5.257  0.2647 -0.3215  0.2018
18446W        W34630   2.888   0.295  16.504  0.3269  0.0632 -0.0270
18447W        W34631   9.283  10.582  13.054 -0.0510  0.2864 -0.0359
18448W        W34632   9.243  16.140  11.633 -0.0278  0.1766 -0.1180
18449W        W34633   1.443   8.628   5.257 -0.1296 -0.2258 -0.0462
18450W        W34634  15.429  15.323   0.124 -0.1137 -0.0557 -0.2885
18451W        W34635   6.371  17.597  16.217 -0.1289  0.1694 -0.1445
18452W        W34636  11.519  17.363  16.445  0.1164 -0.0773 -0.4427
18453W        W34637   9.849  11.428   5.531 -0.0686 -0.1320  0.2817
18454W        W34638   9.175  13.483  13.726  0.0818  0.1956 -0.0287
18455W        W34639   8.568  17.651   5.399  0.0628 -0.3592  0.0976
18456W        W34640  11.225  11.025  16.061  0.0890 -0.1023 -0.0603
18457W        W34641  13.969  15.431   1.934 -0.1893 -0.1191  0.0115
18458W        W34642  17.983  15.336  11.615  0.0455 -0.0380  0.3353
18459W        W34643   6.578  10.464   5.228 -0.0890 -0.0833 -0.0814
18460W        W34644  14.565  14.123   0.975 -0.4588 -0.2385  0.1665
18461W        W34645   0.471  15.941   5.170  0.1550  0.0377  0.2144
18462W        W34646   0.285   1.147   3.850 -0.0408  0.1264  0.1770
18463W        W34647   4.079  12.864   4.444 -0.0306 -0.1298 -0.2282
18464W        W34648   0.887   2.826  11.552 -0.1014 -0.1597 -0.1726
18465W        W34649  14.326  13.695   0.946 -0.0625 -0.1467  0.0244
18466W        W34650  14.062   7.428   2.345 -0.2479  0.1945  0.0252
18467W        W34651   3.827  12.552   5.419 -0.0339  0.2883 -0.2322
18468W        W34652  15.985  16.784  16.278  0.0548  0.1405 -0.4431
18469W        W34653   1.583  16.491   4.942 -0.3114  0.4607  0.0948
18470W        W34654   9.784   2.751  12.397  0.0584  0.1810 -0.0005
18471W        W34655  16.376   1.542   5.009  0.1918 -0.2171 -0.1591
18472W        W34656   8.319   0.697   0.287 -0.0105  0.0434 -0.2567
18473W        W34657  16.855   2.447  14.333 -0.0940 -0.0585 -0.2015
18474W        W34658  17.385  16.140  14.036  0.1753  0.1349 -0.1516
18475W        W34659   8.821   5.953  15.144 -0.2842  0.2528 -0.0171
18476W        W34660  13.126   5.707   2.380  0.0672  0.1066  0.3242
18477W        W34661  15.415  15.091   1.190  0.1448 -0.0134  0.2794
18478W        W34662   6.140  12.142  14.674  0.1615  0.3613  0.4041
18479W        W34663  14.203  11.412   4.053  0.0160 -0.0806  0.0951
18480W        W34664   2.403   7.913   0.615  0.2169  0.1417  0.2403
18481W        W34665   9.044  12.256   5.503  0.0412  0.0420 -0.3711
18482W        W34666   6.546   6.955  12.342 -0.4899  0.0868  0.0789
18483W        W34667   3.879  14.750   5.827  0.1463  0.0188  0.0595
18484W        W34668  10.624   7.769   6.073  0.0948  0.0668 -0.0028
18485W        W34669   3.147  14.451   5.268 -0.1625 -0.0738  0.0006
18486W        W34670  10.803   0.401   4.508 -0.1194  0.0304 -0.0124
18487W        W34671   5.455   1.075  13.911 -0.0101  0.2423  0.1364
18488W        W34672  18.090  13.100   3.430 -0.0297  0.1351 -0.1213
18489W        W34673   5.854   8.664  14.643  0.0419 -0.1878 -0.2277
18490W        W34674   2.939   6.665   5.704 -0.1981  0.2397  0.0401
18491W        W34675  12.177   9.816  16.339  0.0203  0.3115  0.1317
18492W        W34676   2.805   3.520  15.103  0.0727 -0.0419  0.0694
18493W        W34677   1.330  13.987   5.327  0.2967 -0.0588 -0.0109
18494W        W34678  16.028   1.532  11.010  0.0237  0.0714 -0.3015
18495W        W34679  10.484  16.365   4.955  0.0508 -0.0762  0.1216
18496W        W34680  17.637   3.242   3.302  0.0097  0.0147  0.0205
18497W        W34681  10.853   0.141   0.110  0.0652 -0.1787 -0.1375
18498W        W34682  13.157   7.817  13.001 -0.3080  0.0653 -0.0816
18499W        W34683   5.136   1.092  13.395 -0.4489 -0.2282 -0.0975
18500W        W34684   7.023   6.678  13.082 -0.1683 -0.0291  0.0263
18501W        W34685  12.458   8.983   0.355  0.2447 -0.1005 -0.0323
18502W        W34686   3.106   4.629   0.786  0.0117  0.0017 -0.0251
18503W        W34687   0.748   1.535   2.316 -0.3907  0.2707  0.1799
18504W        W34688  13.757   5.858  14.687  0.1770 -0.0277  0.1662
18505W        W34689  10.406   1.271  14.836 -0.3023  0.1733  0.0114
18506W        W34690   7.927  14.505   3.747  0.1820 -0.3252  0.2570
18507W        W34691   4.236  13.809   1.499  0.2444  0.5599 -0.0140
18508W        W34692  18.117  16.041   2.670  0.0404 -0.3312 -0.0911
18509W        W34693  15.533   5.869   1.404 -0.1793 -0.0692  0.0082
18510W        W34694   8.392   2.440   0.281 -0.0400 -0.0336  0.1737
18511W        W34695   2.393   4.502  14.558 -0.3508 -0.1961  0.1421
18512W        W34696  13.980   7.973  15.933 -0.1462 -0.3626  0.2966
18513W        W34697  10.467   0.397  12.587 -0.0497  0.1917 -0.1415
18514W        W34698  14.310   0.955  14.669  0.2872 -0.3646 -0.0439
18515W        W34699  10.637  15.027   6.840 -0.0206  0.1219  0.0200
18516W        W34700   5.818   6.240  15.170 -0.2907 -0.0476 -0.0151
18517W        W34701  13.940  11.409   4.639  0.0883 -0.0419 -0.0847
18518W        W34702   1.506  11.241   5.185 -0.2070 -0.4260  0.1687
18519W        W34703   9.469   0.748   1.823 -0.0150 -0.2611  0.2860
18520W        W34704   8.522   2.628   1.621 -0.1033 -0.1717  0.0031
18521W        W34705   0.483   7.688   3.382  0.0963  0.0458  0.3294
18522W        W34706  14.495  14.805  11.411  0.0312 -0.2635 -0.1185
18523W        W34707  14.849   7.555   1.525 -0.4287 -0.1454  0.0180
18524W        W34708   7.302   3.957   1.857  0.0265  0.1501  0.0080
18525W        W34709  11.064   3.478  12.674 -0.0290  0.2560  0.2443
18526W        W34710  11.413  18.065   0.379 -0.3101 -0.0783 -0.1706
18527W        W34711   8.847   7.459   5.108  0.1658  0.1347 -0.0463
18528W        W34712  17.284   8.287  14.813  0.0521  0.0338  0.0726
18529W        W34713  12.723   8.457   1.233  0.1205 -0.0980 -0.1279
18530W        W34714   0.653   5.415  15.190  0.1258 -0.2745  0.1351
18531W        W34715  15.013   0.742   2.031 -0.3319 -0.1660 -0.2726
18532W        W34716   3.780   9.797  12.579  0.1862  0.4418 -0.4344
18533W        W34717  14.043  15.772  15.037 -0.2199  0.0897 -0.3226
18534W        W34718   1.247  14.969  15.562 -0.1225  0.0182 -0.1343
18535W        W34719   3.488   6.079  11.113 -0.2185 -0.0683  0.0915
18536W        W34720   3.922  14.798   2.192 -0.3864  0.3675  0.0726
18537W        W34721  14.397  14.987  12.631 -0.0716  0.3093  0.0249
18538W        W34722   3.686  12.635  12.487 -0.1982  0.1237  0.0640
18539W        W34723   6.079   7.000  11.666  0.1273  0.0720  0.1246
18540W        W34724   3.999   5.918  15.001 -0.0625 -0.0412 -0.2148
18541W        W34725  15.636   5.658  11.936  0.1658 -0.1912  0.2619
18542W        W34726   7.091  13.398  12.686 -0.0395  0.0223  0.0553
18543W        W34727   2.261  13.971   2.075  0.1076 -0.2996 -0.0356
18544W        W34728  10.009   4.281   1.452  0.1197  0.1819 -0.1077
18545W        W34729   5.632   3.581   3.183  0.0464  0.0326 -0.2473
18546W        W34730   8.140  14.350  12.766  0.2281 -0.0873  0.0243
18547W        W34731   3.261   1.585  12.057 -0.1825  0.3044  0.1780
18548W        W34732   7.659  15.436   3.002  0.1706 -0.0596  0.0617
18549W        W34733  14.851  16.737   3.050 -0.1137 -0.0006 -0.0016
18550W        W34734  17.654  13.242   5.045 -0.0345  0.0727 -0.0425
18551W        W34735  15.834   7.287  15.110  0.2739 -0.0386 -0.3569
18552W        W34736  16.393  14.311   1.519  0.2479  0.2275  0.1446
18553W        W34737   5.642  16.062  15.617  0.0975 -0.0288  0.3730
18554W        W34738  10.926  12.952  15.936 -0.0661  0.0732 -0.0962
18555W        W34739  16.751  12.343   5.671 -0.0030 -0.0871 -0.0656
18556W        W34740   6.317   0.725  13.718  0.1740  0.2670  0.3165
18557W        W34741   7.337  13.664  14.186 -0.0010 -0.0228 -0.1426
18558W        W34742   0.702   3.678  12.071  0.1212 -0.2651 -0.0020
18559W        W34743  15.861  13.727  15.037 -0.4031 -0.1048  0.0384
18560W        W34744  17.656   0.278  14.266  0.1377  0.0130 -0.0406
18561W        W34745   3.827   9.055  14.191 -0.2389  0.2217  0.1912
18562W        W34746   3.870  12.769  14.771 -0.1496  0.0831 -0.1174
18563W        W34747   0.493   3.725   0.948  0.0332  0.1993  0.2031
18564W        W34748   4.577   5.851   4.933  0.2025 -0.0480 -0.2707
18565W        W34749   7.215   3.797   5.863 -0.1861 -0.2243 -0.0522
18566W        W34750  16.515   0.952  16.097 -0.2109 -0.0029  0.2179
18567W        W34751   7.920  13.974  16.044  0.2065  0.3716 -0.2416
18568W        W34752  15.392  13.934  16.379  0.0646  0.0537  0.3255
18569W        W34753  11.977  15.051   6.896 -0.1312 -0.1272  0.1359
18570W        W34754  17.314  16.467  11.501  0.1078  0.0399 -0.0905
18571W        W34755   7.582   0.524  16.060  0.1182 -0.1544  0.3689
18572W        W34756   9.652  15.866   1.038 -0.4687 -0.3179  0.0398
18573W        W34757  17.595  13.568   0.993 -0.1607 -0.1805  0.0565
18574W        W34758  16.907   7.917  14.028 -0.3478  0.2742 -0.2680
18575W        W34759  17.804   2.279   3.715 -0.1109  0.1455 -0.0502
18576W        W34760   8.168   6.002   3.558 -0.1276  0.2013  0.2904
18577W        W34761  16.845   3.164   0.319  0.0718 -0.0852 -0.0208
18578W        W34762  14.732   0.467   4.068 -0.1683  0.1553 -0.1256
18579W        W34763  12.370  13.257  16.112 -0.2513  0.1370 -0.0004
18580W        W34764  17.869  16.676   1.232  0.0438 -0.2336 -0.4172
18581W        W34765  16.805   4.603   3.351 -0.0882  0.1230  0.4016
18582W        W34766   9.147   3.480   4.590  0.1377 -0.0955 -0.0716
18583W        W34767  16.320   7.723   1.556  0.2791  0.3243  0.1159
18584W        W34768  16.784  11.442  14.478  0.0385  0.0826  0.0454
18585W        W34769   0.556   6.436   3.620 -0.0805  0.1603 -0.0547
18586W        W34770  12.670  13.091  12.470  0.1338  0.1066  0.0490
18587W        W34771  11.078  14.566   2.594  0.0495  0.2268  0.0794
18588W        W34772  11.167   7.989   1.777  0.1738 -0.0156 -0.4571
18589W        W34773   9.624   1.562   0.368 -0.1059 -0.3957 -0.1782
18590W        W34774   4.067   7.338   1.715 -0.1075 -0.1200  0.5790
18591W        W34775   8.177   9.322   4.210  0.0379 -0.0340  0.2328
18592W        W34776   6.566   6.900  13.256 -0.2512  0.0607  0.0011
18593W        W34777  16.846   5.119   5.461  0.0934  0.0468 -0.1094
18594W        W34778  11.025  17.188  14.055  0.1547 -0.2407 -0.4546
18595W        W34779   8.549   0.887  15.318  0.3195  0.0771  0.4081
18596W        W34780  15.134  10.686   0.434  0.4128  0.1027 -0.2248
18597W        W34781   2.085  12.273   1.079 -0.0372  0.2418 -0.1940
18598W        W34782   8.866  11.780   5.464  0.1593 -0.0752 -0.1356
18599W        W34783   3.814   0.511   3.042  0.1758 -0.0738  0.0635
18600W        W34784   5.246   9.988   1.586  0.2024 -0.1898  0.1888
18601W        W34785  14.718   9.628  15.796  0.0046  0.0583  0.1571
18602W        W34786  11.947  17.240   2.760 -0.3813 -0.0842  0.2223
18603W        W34787  14.414   5.348   0.343 -0.0613  0.4742 -0.2413
18604W        W34788  12.666  14.986   1.265 -0.2966 -0.1170  0.2009
18605W        W34789   2.939  14.960   6.318  0.2901  0.4252 -0.1058
18606W        W34790  14.718  17.132   0.849 -0.0237  0.0167  0.0184
18607W        W34791   7.387   8.413   5.760 -0.0088  0.1507 -0.0671
18608W        W34792  13.112   7.791  15.404 -0.1812  0.0711  0.0288
18609W        W34793   5.817   9.513   5.509 -0.4209 -0.2976  0.0846
18610W        W34794   8.290   3.125   2.422 -0.0611  0.2325  0.2772
18611W        W34795  13.834   8.317  14.561 -0.0943 -0.1574 -0.0240
18612W        W34796  12.643  16.980   5.224 -0.3988  0.0381  0.1340
18613W        W34797   9.057   0.365   3.573  0.0521  0.1963  0.0159
18614W        W34798   4.481   7.836   1.754  0.0733 -0.0120  0.0716
18615W        W34799   1.985   3.832   3.714  0.0990 -0.0699 -0.1531
18616W        W34800  12.119   9.965  13.682  0.2010  0.0327  0.2822
18617W        W34801  16.054   8.419   4.524  0.0086 -0.0640 -0.0379
18618W        W34802  13.320  10.547  15.078  0.1526  0.3381 -0.0714
18619W        W34803  10.105   0.089   2.038 -0.1481  0.2058 -0.2531
18620W        W34804   1.058   5.880  13.478 -0.1046 -0.0902  0.1824
18621W        W34805   5.662  10.023   0.483  0.1116  0.1541 -0.0072
18622W        W34806  11.026  10.214  16.371 -0.2154 -0.1725 -0.1931
18623W        W34807  16.339   5.974  10.803  0.2257  0.1069 -0.2437
18624W        W34808  13.721   0.770   3.606  0.1074 -0.0251 -0.2998
18625W        W34809  12.670  17.255   1.329  0.0759 -0.0593 -0.0515
18626W        W34810   1.891   6.581   3.180  0.1343  0.1904  0.1477
18627W        W34811   4.666  16.616  12.265 -0.0507 -0.1818  0.0920
18628W        W34812  12.799   6.708  13.585 -0.0119  0.1642  0.3715
18629W        W34813  11.899   5.265  12.436  0.3620 -0.0653 -0.1709
18630W        W34814  17.624   4.660   4.015 -0.0422 -0.2098  0.0759
18631W        W34815  17.505   5.684  13.450  0.0032 -0.0441  0.2450
18632W        W34816   0.331  11.720   0.002  0.2336 -0.0128 -0.1356
18633W        W34817  13.607  13.468  16.263  0.0751  0.0597 -0.1099
18634W        W34818  12.534  10.611   2.558  0.3119 -0.0201  0.0772
18635W        W34819  13.362  11.246   5.735  0.1441  0.2127  0.0817
18636W        W34820   8.321   9.842  14.403 -0.0418 -0.1451 -0.1495
18637W        W34821   5.639   4.956   4.099 -0.0385 -0.0717  0.1783
18638W        W34822  14.838   8.297  11.791 -0.0294 -0.2474 -0.0030
18639W        W34823  11.321  11.311   0.992 -0.1602 -0.2407  0.2669
18640W        W34824  12.903  13.733   1.252 -0.1356 -0.3030 -0.0013
18641W        W34825  12.618  17.312   3.340  0.5125 -0.0431 -0.0749
18642W        W34826   6.115  13.675   3.701  0.5280 -0.0374 -0.2416
18643W        W34827   0.288   7.693  12.251  0.1043  0.1490 -0.0853
18644W        W34828  13.878   0.163   0.547  0.3113 -0.1951  0.1442
18645W        W34829  12.157   7.494  10.742 -0.1987 -0.0284 -0.0543
18646W        W34830   8.398   4.870   5.313 -0.1917  0.1494 -0.0032
18647W        W34831  13.829  11.763   3.898 -0.0760  0.0017 -0.1470
18648W        W34832   8.587   3.315  13.732 -0.2364  0.3562  0.1622
18649W        W34833   5.696  15.430  15.876  0.0340  0.1433 -0.2275
18650W        W34834  12.307   0.795  14.429  0.0704 -0.2102 -0.2248
18651W        W34835   5.616   4.509  13.851 -0.2937  0.1262  0.0743
18652W        W34836   5.524   5.573  16.493  0.1420  0.0451 -0.1856
18653W        W34837  15.279   8.107   5.332 -0.2185  0.4180  0.0139
18654W        W34838   5.945  15.493   5.164 -0.1038 -0.0602  0.1483
18655W        W34839   4.283   8.810   2.371  0.1119 -0.0642 -0.1057
18656W        W34840  13.037  17.857  15.709 -0.1599  0.1349  0.1597
18657W        W34841   2.766  12.647  11.803 -0.1346  0.1788 -0.2016
18658W        W34842   0.163  11.772   1.504 -0.0857 -0.0115 -0.2372
18659W        W34843   1.259   9.709  14.614 -0.1461  0.1085  0.0547
18660W        W34844  18.107  17.421  11.869 -0.3208  0.1483  0.2370
18661W        W34845   2.998   8.988   2.007  0.1671  0.1583  0.0042
18662W        W34846  15.602  11.205   1.766 -0.0398  0.1502 -0.0380
18663W        W34847   3.949   2.350  12.811  0.1117 -0.0085  0.1861
18664W        W34848  15.733  16.705   3.838 -0.2561 -0.1366 -0.1024
18665W        W34849  16.832  14.384  15.084  0.0215  0.0283  0.1578
18666W        W34850  16.731   9.281  16.204 -0.2938 -0.1995  0.0593
18667W        W34851  10.140   6.881  12.754  0.1778 -0.0599 -0.1249
18668W        W34852   1.022   6.407   3.958  0.0592 -0.0700 -0.1080
18669W        W34853   5.311  13.832   6.394  0.0580  0.0649  0.0508
18670W        W34854   2.577  12.104   4.503  0.1264 -0.0509 -0.4036
18671W        W34855   4.680   9.852  12.815  0.0682 -0.1020  0.1008
18672W        W34856   0.915  12.829  16.330  0.1512 -0.1374 -0.2803
18673W        W34857   9.778   3.416  14.643  0.2510 -0.0303 -0.0740
18674W        W34858   0.428   2.303   1.155 -0.2497 -0.0738 -0.2438
18675W        W34859   1.203  14.676  13.672 -0.1777  0.2754 -0.1100
18676W        W34860  15.308   0.160   0.722  0.0687 -0.0131  0.2371
18677W        W34861  10.134  12.932  15.276 -0.2232  0.0631 -0.0850
18678W        W34862  14.425  14.955  15.152  0.0272 -0.1773  0.1930
18679W        W34863   8.454  15.041  15.105  0.0780 -0.0811 -0.0296
18680W        W34864   7.294   1.822   0.370 -0.0756 -0.0466  0.1077
18681W        W34865   4.227  15.195   2.249  0.0797 -0.1899 -0.1459
18682W        W34866   9.796   9.359   1.022  0.2412 -0.0289  0.1887
18683W        W34867   7.972   1.916  14.566 -0.0699 -0.0797 -0.2204
18684W        W34868   2.704  17.576  13.056 -0.2341  0.0007  0.1563
18685W        W34869  11.158  15.659  15.389  0.0984 -0.3390  0.1795
18686W        W34870   5.527   4.640   5.536  0.2278 -0.0766  0.1141
18687W        W34871  15.138  16.687   0.120  0.2276  0.1590 -0.0473
18688W        W34872   0.295   3.652   0.518  0.2535 -0.0833  0.1320
18689W        W34873  15.116   2.661  14.200 -0.0558 -0.1613  0.1321
18690W        W34874   2.288  11.581  15.041 -0.2378  0.1046 -0.0326
18691W        W34875   1.719   3.030  12.422 -0.2212  0.1196  0.1017
18692W        W34876   5.147  15.917  15.651 -0.3842  0.2518 -0.0656
18693W        W34877   6.584   7.337   1.076 -0.2389  0.0872  0.3007
18694W        W34878   5.375   4.698   2.620  0.3265 -0.1744  0.2399
18695W        W34879   5.315   5.295  12.802 -0.0869  0.1235  0.0648
18696W        W34880  12.470  15.330   4.105  0.2925  0.0276  0.1437
18697W        W34881   3.574  13.218   0.867  0.0486 -0.0905 -0.0452
18698W        W34882  12.362   6.761   0.796 -0.2224 -0.1755 -0.0134
18699W        W34883   9.126   7.456   3.650  0.0770  0.1016  0.1433
18700W        W34884  13.493   0.569  12.536 -0.0137 -0.1361 -0.0934
18701W        W34885  17.228  17.922  11.617  0.0162  0.3652  0.2094
18702W        W34886  17.906   1.025  15.734 -0.2623  0.1851 -0.0543
18703W        W34887   2.692   7.933   3.782 -0.2174  0.0741  0.1898
18704W        W34888   5.947  13.682  14.605  0.0728 -0.1305 -0.0582
18705W        W34889   2.631   6.054  16.101 -0.0816 -0.0254  0.1361
18706W        W34890  18.083   3.835  12.544 -0.2045 -0.0983 -0.1148
18707W        W34891   8.080   4.351  11.844 -0.0065  0.0732 -0.1509
18708W        W34892   5.058  17.309  12.580  0.2200 -0.1070 -0.0086
18709W        W34893  14.658   4.324  10.498  0.0020  0.1227 -0.1875
18710W        W34894   0.639   0.393  16.296  0.1122 -0.1979 -0.2234
18711W        W34895   5.904   2.726   2.241  0.2529 -0.2587  0.1457
18712W        W34896  14.428  16.239   2.286  0.0863 -0.3103  0.0324
18713W        W34897   6.647  18.036  10.811  0.2141 -0.2018 -0.1117
18714W        W34898   4.356   2.645  13.772  0.0891 -0.1134  0.3242
18715W        W34899  10.626   2.434   4.150 -0.2618 -0.0481  0.2733
18716W        W34900   2.543   0.504   4.427 -0.1284  0.1162 -0.0326
18717W        W34901   3.688   2.056  14.198  0.1579  0.0575  0.1412
18718W        W34902   7.111   4.276   3.069  0.1487 -0.2208 -0.2198
18719W        W34903  15.806   5.571  14.367 -0.0580 -0.0034 -0.0232
18720W        W34904  13.494  14.015  16.127  0.2375 -0.3478  0.0063
18721W        W34905  17.173  17.252   2.385 -0.0286  0.2283 -0.0217
18722W        W34906  14.882   2.012  15.953  0.1725 -0.0316 -0.1863
18723W        W34907   9.973  13.841  14.736  0.0256 -0.0240  0.2385
18724W        W34908  13.335   9.520  15.972 -0.0381  0.2030  0.0798
18725W        W34909  15.184   2.508   1.522  0.2394 -0.2933  0.2402
18726W        W34910   3.954   9.456  11.660 -0.0026 -0.0139  0.0608
18727W        W34911   2.002   8.275   0.436 -0.1070 -0.1140 -0.0330
18728W        W34912   8.768  17.631   0.240 -0.0284  0.0463  0.0889
18729W        W34913  17.462  11.169  12.019  0.1049 -0.2726 -0.1920
18730W        W34914  17.160   5.353  14.443 -0.1764  0.0085 -0.0665
18731W        W34915  17.534   9.599   5.123  0.3057  0.1322 -0.5557
18732W        W34916  10.835  16.368  12.564 -0.0066 -0.0027  0.1835
18733W        W34917   2.064  10.113   0.227  0.2997 -0.2254  0.3107
18734W        W34918   9.438  18.115   2.001 -0.0875  0.2815  0.1749
18735W        W34919  17.295   0.409   2.055 -0.0591  0.1722  0.0006
18736W        W34920  17.830  15.416   4.186  0.1143 -0.0023 -0.1788
18737W        W34921  11.502  16.646   0.733  0.1098 -0.1259 -0.3273
18738W        W34922   2.527   7.823   1.899  0.1061  0.0460 -0.0053
18739W        W34923  10.285  14.743   4.156  0.0257 -0.2251  0.0933
18740W        W34924  17.997  17.223  13.725 -0.1308 -0.1450 -0.1267
18741W        W34925  17.675   8.350   5.069 -0.1965  0.2341  0.2146
18742W        W34926   7.295   0.545  16.545 -0.2914 -0.3692  0.1255
18743W        W34927  15.467  13.171  10.969  0.0061 -0.0047  0.1385
18744W        W34928   6.170   3.497   3.851 -0.1627 -0.1756  0.2736
18745W        W34929  17.904  17.768   1.217 -0.3826  0.2591  0.3528
18746W        W34930  17.597   9.144   5.438  0.1163  0.1879  0.1714
18747W        W34931  14.277   2.336  11.222 -0.0737  0.2916 -0.0502
18748W        W34932  17.000  17.855  14.076  0.1732 -0.0741  0.2377
18749W        W34933  12.747   7.163   0.800 -0.0465  0.2783  0.0086
18750W        W34934  11.819  13.908  13.231  0.3075  0.0298 -0.1205
18751W        W34935   9.413  10.235   0.162 -0.1167  0.2055  0.4373
18752W        W34936   0.866  13.533  13.975  0.2383  0.0147 -0.1433
18753W        W34937   6.779   7.279   0.138 -0.1158  0.1693 -0.0029
18754W        W34938  11.456   9.420   5.079  0.1133  0.0332 -0.2276
18755W        W34939   9.478  16.586   5.133  0.1983 -0.0959  0.0294
18756W        W34940   0.150  14.564  10.511  0.1167 -0.2822 -0.0788
18757W        W34941   1.902   4.548   1.474  0.0172  0.1693 -0.2755
18758W        W34942   5.868  16.839  16.184 -0.2548  0.0917 -0.0605
18759W        W34943   0.060   4.655   0.386  0.0359 -0.0154  0.1546
18760W        W34944   0.195  17.380   2.538  0.1335 -0.0463  0.0820
18761W        W34945  12.800  17.337  14.670  0.0455 -0.1697  0.1025
18762W        W34946  13.588  12.700   3.162  0.0499 -0.0537  0.3432
18763W        W34947   1.965   9.386   5.186 -0.1080  0.1992  0.2481
18764W        W34948  14.427  14.433   4.293 -0.1351  0.0759 -0.1334
18765W        W34949  14.723   6.401   3.579  0.1947  0.0146 -0.2881
18766W        W34950   1.337  17.746  13.751 -0.2721  0.3187  0.0385
18767W        W34951   5.572   4.351   1.117 -0.1066 -0.3021 -0.0416
18768W        W34952  17.679  10.904  15.486 -0.1994 -0.0301 -0.2842
18769W        W34953   8.656  12.148   4.009 -0.3516  0.1562  0.0018
18770W        W34954   0.714  14.984   0.218  0.1191  0.2557 -0.1252
18771W        W34955   8.069   9.943  12.045  0.1753  0.2040  0.2950
18772W        W34956   0.438  13.715  13.640  0.2840 -0.0369  0.0809
18773W        W34957  15.142   0.006  14.021  0.2508  0.0135  0.2807
18774W        W34958   8.945  12.274  13.113  0.0611 -0.1157  0.0375
18775W        W34959   4.552   8.773  13.182  0.3050 -0.0302 -0.0641
18776W        W34960   7.524   9.711  14.987  0.0219  0.3145 -0.1235
18777W        W34961   2.654  14.680   3.076 -0.0028 -0.1328  0.0697
18778W        W34962   0.379   5.808   1.723  0.4728 -0.0417 -0.0709
18779W        W34963   0.871   5.285  16.671  0.0215 -0.0475 -0.0184
18780W        W34964  15.118  12.733  11.978 -0.2816  0.1086  0.0569
18781W        W34965   3.607   7.525   1.019  0.2654 -0.1901 -0.0134
18782W        W34966   4.332  10.790  11.080 -0.1093 -0.3059  0.0134
18783W        W34967   1.488   3.235   2.334 -0.3142  0.2360  0.1054
18784W        W34968   8.348   0.449   1.635 -0.1649 -0.0108  0.1882
18785W        W34969   7.079  16.549  12.866  0.0902 -0.0447 -0.0770
18786W        W34970  14.223  15.476  13.953 -0.1565  0.2596 -0.1657
18787W        W34971  16.337  14.653   1.067 -0.0010 -0.1600  0.3172
18788W        W34972  11.756  13.463  14.632  0.2342  0.2013 -0.3288
18789W        W34973   8.709  11.972  15.120 -0.0576 -0.1264 -0.1418
18790W        W34974   7.560   8.850  15.912 -0.2042  0.1273 -0.0710
18791W        W34975  15.850   3.732  15.064  0.2523 -0.1799  0.2248
18792W        W34976  17.893   9.324   1.493 -0.0463 -0.4806  0.2558
18793W        W34977   5.582  17.554   0.734 -0.0367 -0.2001  0.0191
18794W        W34978  11.510   0.365   5.699 -0.2285 -0.0696 -0.2750
18795W        W34979  11.632  10.066   4.247 -0.1092 -0.0122  0.2475
18796W        W34980   5.916   7.816   5.713  0.2937  0.1333  0.0084
18797W        W34981   2.572  11.789  15.515  0.2168 -0.1914  0.2909
18798W        W34982  14.675   3.602   5.160 -0.1026 -0.1199 -0.1248
18799W        W34983   3.197   7.281   1.252  0.2727  0.3691 -0.0582
18800W        W34984   6.250   2.347   4.013 -0.2525 -0.0091 -0.0345
18801W        W34985   0.246  12.802   3.101  0.1919 -0.1665  0.2686
18802W        W34986   3.806   7.645  13.878  0.0488 -0.2445  0.0168
18803W        W34987  11.170  15.043  14.845  0.1162 -0.0774  0.2323
18804W        W34988   8.418   1.034  15.848  0.0246 -0.2102 -0.1094
18805W        W34989  16.576   7.925   3.913  0.0072  0.2081 -0.2197
18806W        W34990   2.629  11.356   3.544  0.0631  0.1133 -0.0802
18807W        W34991   9.010   5.026   6.481 -0.0928  0.0741 -0.1379
18808W        W34992  14.601  12.641   2.628  0.0341 -0.1425  0.0624
18809W        W34993   2.442   5.305   4.208  0.1930  0.0955  0.1383
18810W        W34994   1.792   9.205  14.436  0.1496 -0.1107 -0.2363
18811W        W34995  18.050  11.941  16.270  0.4324  0.1809 -0.1055
18812W        W34996   9.298  11.097   1.202  0.1823 -0.1268  0.3065
18813W        W34997   4.521   6.747  12.577  0.1594  0.1901  0.2676
18814W        W34998   4.355  16.914   3.284 -0.0812 -0.0061  0.2448
18815W        W34999  18.155   9.081   5.378  0.1506 -0.1591 -0.3368
18816W        W35000   6.943   8.586   3.119 -0.3190  0.2627 -0.2091
18817W        W35001   6.611   8.368   2.847  0.1737 -0.2795  0.2003
18818W        W35002   6.559   0.581   3.623  0.2619  0.1590 -0.1804
18819W        W35003   8.517   4.606  12.049 -0.0344  0.0599 -0.2014
18820W        W35004  17.081  17.363  15.230  0.4020 -0.1783 -0.2864
18821W        W35005   0.903   5.982   3.744  0.4266  0.1201 -0.1027
18822W        W35006   0.124  10.367   4.342  0.2508  0.0632  0.3122
18823W        W35007   2.399   4.242  10.973 -0.1332 -0.2698 -0.1285
18824W        W35008   7.768   5.449   1.697  0.0315 -0.1449  0.2616
18825W        W35009   9.770   0.945  15.074 -0.0818 -0.0422  0.2186
18826W        W35010   6.303   6.610   0.030  0.0237  0.1298 -0.2422
18827W        W35011   0.034   3.693  16.162  0.2075  0.2518  0.5211
18828W        W35012  13.382  14.303   4.028 -0.0414 -0.3359 -0.1161
18829W        W35013  12.181   1.363   5.252  0.0696 -0.4454  0.0929
18830W        W35014  15.999   7.421  12.566  0.2078  0.3284  0.1019
18831W        W35015  16.104   6.659   1.296 -0.3344 -0.1053  0.0710
18832W        W35016   3.387  16.059   2.913  0.0892 -0.0647 -0.1117
18833W        W35017   1.571   9.565   6.100  0.1851 -0.2024  0.1705
18834W        W35018  16.310   0.050  12.474  0.0832 -0.1166  0.1463
18835W        W35019   8.704   3.863  15.104 -0.1403  0.1683 -0.4439
18836W        W35020   6.457   8.358   0.899 -0.0372  0.1138  0.3315
18837W        W35021   7.126  17.431  14.122  0.4160 -0.1303  0.1173
18838W        W35022  12.113   1.002   1.045 -0.3112 -0.2353  0.2535
18839W        W35023   1.194   2.789   3.963  0.0343 -0.0692 -0.0397
18840W        W35024   2.351   7.357   0.177 -0.2664  0.3018 -0.1437
18841W        W35025   4.128   5.740   3.696  0.2443  0.0248  0.1538
18842W        W35026  13.219   9.146  15.092  0.1958 -0.2806  0.0067
18843W        W35027   4.110   4.939  13.010  0.5233 -0.3323 -0.2048
18844W        W35028   7.680  16.558   3.577  0.1366 -0.1466  0.3675
18845W        W35029   1.553   2.596   1.460  0.0076 -0.2676 -0.0262
18846W        W35030  12.903   1.837   4.428  0.0126  0.2104  0.0154
18847W        W35031  12.367  10.579   0.352  0.1086  0.1394  0.1028
18848W        W35032  11.717  11.664   1.230 -0.4517 -0.1647  0.0208
18849W        W35033   4.618  18.037  12.214 -0.2360  0.4309  0.0753
18850W        W35034  12.887  17.086   4.719  0.1858 -0.0427  0.1435
18851W        W35035   4.734  14.460  15.842  0.2382  0.1753  0.1194
18852W        W35036  15.335  15.433   3.257  0.1688 -0.0279 -0.0994
18853W        W35037  14.831   9.755   3.039 -0.1168  0.3444 -0.0768
18854W        W35038   0.793   2.417   2.610  0.1596 -0.0333 -0.0431
18855W        W35039  15.044   4.165  15.339  0.0019 -0.1234 -0.4616
18856W        W35040   4.154   8.645   4.722  0.2880  0.2238 -0.2017
18857W        W35041  15.516  12.440   4.684  0.0546  0.1665  0.0432
18858W        W35042  11.469   8.790   1.902 -0.0414  0.0034 -0.1902
18859W        W35043   9.557   5.050  16.492 -0.2265  0.2280 -0.0911
18860W        W35044  12.965  14.004  11.297 -0.0810  0.3135  0.0324
18861W        W35045   0.177  14.962  16.123  0.0610  0.2873 -0.1447
18862W        W35046   3.293  16.779  16.233 -0.2144  0.1126  0.1060
18863W        W35047   4.349  14.802  16.025  0.0903  0.2062  0.0791
18864W        W35048   5.576   5.497  14.846 -0.1135  0.1079 -0.0188
18865W        W35049   2.683  17.687  15.011  0.1048 -0.0641  0.1116
18866W        W35050  11.771  10.119  13.357 -0.2008 -0.1855  0.4088
18867W        W35051  10.951   1.401  15.516  0.0156  0.2043 -0.0061
18868W        W35052  11.995   7.615  13.412 -0.2059 -0.2965 -0.1458
18869W        W35053   1.878   4.851   3.233  0.0894 -0.2397 -0.0341
18870W        W35054  16.457  16.015  14.984 -0.1374  0.3249  0.1733
18871W        W35055   9.239   7.748  12.259  0.0447 -0.0911  0.0565
18872W        W35056  13.115  16.766   3.848  0.2066  0.0866 -0.4065
18873W        W35057   1.946  14.872   0.823  0.1144  0.1828  0.0989
18874W        W35058   4.517  15.887  16.647 -0.3612  0.1332  0.4515
18875W        W35059   1.836   3.374  12.951 -0.1352  0.6753  0.4415
18876W        W35060   6.692  16.718  11.985 -0.2277  0.1551  0.1537
18877W        W35061   1.015  17.632  11.450  0.1365  0.2713 -0.2011
18878W        W35062   4.751   6.864  14.652 -0.1450  0.0259  0.0254
18879W        W35063   0.697  16.867  16.541 -0.1862 -0.1931 -0.1374
18880W        W35064  14.083   3.870  13.992  0.1892 -0.0776 -0.2275
18881W        W35065  15.473   3.364   3.255  0.1110  0.3104  0.1529
18882W        W35066   8.957  16.419  15.468  0.1905  0.2309  0.1590
18883W        W35067  17.563  14.821  14.132  0.1478 -0.1339 -0.1403
18884W        W35068  12.012   1.551   2.761 -0.1611 -0.1223 -0.0765
18885W        W35069  15.609  17.955  15.851  0.1813 -0.2380  0.0843
18886W        W35070   1.889  10.939  14.725 -0.2035  0.0336  0.0685
18887W        W35071   2.150   6.889   1.740  0.0841  0.1511 -0.1466
18888W        W35072  11.775   6.879  12.028 -0.0414 -0.0466  0.0023
18889W        W35073  10.604  10.058   6.168  0.0620  0.0936 -0.0409
18890W        W35074  13.336   3.593   5.516 -0.0520  0.2793 -0.3741
18891W        W35075  14.385  11.032  12.533 -0.1934 -0.1903  0.1575
18892W        W35076   8.623   2.645   5.361  0.2946 -0.1034  0.0845
18893W        W35077   8.346  16.948  10.798  0.2609  0.0045  0.1270
18894W        W35078   8.658   2.954  11.410 -0.0849 -0.0764 -0.2498
18895W        W35079  11.404   9.956  16.115 -0.3760 -0.1839 -0.3246
18896W        W35080   2.487  14.266   2.673  0.0306 -0.0021  0.0443
18897W        W35081  14.572  15.419   1.349  0.0444  0.0366 -0.3002
18898W        W35082  16.057   4.767  15.262 -0.0064  0.0079 -0.0912
18899W        W35083  14.521  15.720   3.036 -0.0750 -0.4138  0.3294
18900W        W35084  14.088   5.412  12.123 -0.1055 -0.2198 -0.5278
18901W        W35085  12.524   3.352   1.493 -0.2050 -0.5071  0.2066
18902W        W35086  16.183  17.241  14.070 -0.0895 -0.2549 -0.0773
18903W        W35087  15.691   9.280   2.125  0.0107  0.0088 -0.0010
18904W        W35088  14.758   5.066  15.088 -0.0350  0.1188  0.2634
18905W        W35089   8.145  11.349  16.264 -0.1185  0.0377 -0.1041
18906W        W35090  18.016  12.134   2.257 -0.3542  0.0546  0.3933
18907W        W35091   0.021  12.740  13.869  0.0341 -0.0620  0.2321
18908W        W35092   8.024   1.740  15.313  0.3110  0.0466  0.1884
18909W        W35093   7.627   9.316   3.154 -0.1316  0.0331 -0.0355
18910W        W35094  16.303  14.563  13.004  0.2893 -0.0999 -0.0051
18911W        W35095   7.198   5.464   5.078  0.4056 -0.2292 -0.1178
18912W        W35096   2.333   6.804   2.881  0.1795 -0.0838  0.0952
18913W        W35097   0.374  14.230   4.583  0.0663  0.1047  0.1078
18914W        W35098   4.080  11.549  14.904 -0.2660  0.1101 -0.0197
18915W        W35099  11.912  10.670  14.380 -0.2502 -0.0117  0.0107
18916W        W35100  17.008   3.400   1.828  0.1468  0.1328  0.0627
18917W        W35101   7.719  13.300   2.832  0.2333 -0.1521  0.2431
18918W        W35102  16.265   6.420   4.220  0.1059 -0.0089  0.2412
18919W        W35103  14.008  17.937  12.182  0.0725 -0.1554 -0.2475
18920W        W35104   9.644  10.977   4.296  0.1578 -0.0892  0.1460
18921W        W35105   6.420  10.626   0.675 -0.5093 -0.1435  0.0787
18922W        W35106   7.336   5.383  12.980  0.0863  0.0185  0.1014
18923W        W35107  11.320   4.982   1.226  0.1199  0.2519 -0.0930
18924W        W35108  13.169   9.582   5.118  0.0352 -0.1280  0.0564
18925W        W35109   9.611   1.106  15.947  0.0288  0.0235 -0.1125
18926W        W35110  10.041  14.221  13.420 -0.2985 -0.0792 -0.0374
18927W        W35111  15.002   3.035  11.602 -0.0063  0.0200  0.1165
18928W        W35112   8.205   0.644   2.066 -0.3296  0.2460 -0.1373
18929W        W35113   4.288   0.661  11.840  0.0239  0.0216  0.0085
18930W        W35114  15.208  13.155   1.252  0.0045 -0.0134  0.0532
18931W        W35115   3.898   4.718   3.810  0.1336 -0.2660  0.2405
18932W        W35116  13.991   9.652   1.854  0.2395 -0.1346 -0.2515
18933W        W35117  10.164   5.513   0.565 -0.1383  0.1133  0.2912
18934W        W35118  17.792   1.682   0.795  0.0159 -0.1418  0.3053
18935W        W35119   3.420   3.529  14.420  0.2027  0.3010 -0.3072
18936W        W35120   1.303   0.068  12.819 -0.1042  0.3309 -0.2103
18937W        W35121   5.897  14.469   5.303 -0.1743  0.1893  0.1969
18938W        W35122   7.807  14.475  14.137 -0.0189 -0.2703 -0.0130
18939W        W35123   3.855   5.403   2.540 -0.1514  0.0944  0.0109
18940W        W35124  10.477   0.828   5.414 -0.0840 -0.0968  0.0057
18941W        W35125  15.805  17.378  12.514  0.0500  0.2568  0.2224
18942W        W35126   8.260   4.856  12.406 -0.0323 -0.0417  0.2022
18943W        W35127  12.793   0.311   3.782 -0.4021  0.1925 -0.3266
18944W        W35128   5.855   7.185   1.591 -0.0847 -0.0011  0.1939
18945W        W35129   1.667  13.614   3.093  0.0262 -0.4045 -0.2995
18946W        W35130   5.620   0.348   5.948  0.3491  0.2354  0.1476
18947W        W35131   1.467  13.064   1.163 -0.0740 -0.0633  0.1964
18948W        W35132  16.373  10.326  14.877 -0.0589  0.1075 -0.2678
18949W        W35133   5.532   1.888   0.149  0.0302 -0.1172  0.0416
18950W        W35134  15.011  17.704  12.503  0.1588  0.1892  0.1884
18951W        W35135  16.037   0.944  11.373 -0.0927 -0.0785 -0.0075
18952W        W35136   0.869   5.562   0.430  0.0982  0.1571 -0.2501
18953W        W35137  15.083   2.775   0.153 -0.0010  0.2098 -0.0761
18954W        W35138   9.506   0.918   4.500  0.4367  0.1262 -0.1965
18955W        W35139   0.610  17.294   5.534 -0.2014 -0.0216  0.0144
18956W        W35140   0.209   8.460   2.063  0.0050 -0.1724 -0.2945
18957W        W35141  12.626   0.406  13.556  0.0537  0.0722  0.1036
18958W        W35142  13.167   6.469   3.674  0.1243  0.0913  0.0021
18959W        W35143  12.401   1.309   2.513 -0.2144 -0.0765 -0.0370
18960W        W35144   5.484  18.010  16.182  0.0643  0.1885 -0.0935
18961W        W35145  16.804   6.013  14.849 -0.3359 -0.2043 -0.2063
18962W        W35146   0.556   4.285  13.336  0.2425 -0.2529 -0.2124
18963W        W35147   1.191   1.820   3.195  0.2342  0.0382  0.3033
18964W        W35148  11.315  16.576  16.381 -0.1421  0.1399  0.1434
18965W        W35149  17.296  10.169  11.448  0.0603  0.2032 -0.1761
18966W        W35150   4.781   8.068   2.160 -0.3134 -0.1125  0.4094
18967W        W35151  11.614  12.462  12.380 -0.3691  0.0342 -0.0550
18968W        W35152   2.348   4.908  15.616 -0.2939  0.3333  0.0098
18969W        W35153  16.163   0.781   0.782 -0.1274  0.2165  0.2305
18970W        W35154   9.858   8.554   1.537  0.0106  0.0100  0.0518
18971W        W35155   9.322   6.799  15.018  0.2120 -0.2036 -0.0813
18972W        W35156  16.799  14.027   1.462  0.1333  0.0050 -0.0725
18973W        W35157   8.844   4.274  14.083  0.0877  0.2389  0.1250
18974W        W35158   2.549   3.028  11.909  0.0600 -0.3005  0.3205
18975W        W35159  16.794   4.369  10.105  0.0008 -0.1679 -0.2127
18976W        W35160   7.651   2.812  16.474 -0.2060  0.3838 -0.1151
18977W        W35161   9.641  10.640   3.486  0.1723  0.3179  0.3839
18978W        W35162  12.796   5.599  15.824 -0.1575 -0.1873  0.1323
18979W        W35163  11.233   0.616   4.386 -0.1264  0.3227  0.1376
18980W        W35164  10.763   0.824  12.733 -0.0349  0.1692 -0.0255
18981W        W35165   4.781   9.733  12.303  0.0387  0.0756  0.1119
18982W        W35166  12.281  14.321  16.128 -0.0274  0.1684  0.1984
18983W        W35167  15.829  10.069   6.134  0.1584 -0.0279  0.0025
18984W        W35168   4.441  12.056   0.135 -0.3036 -0.0054  0.2489
18985W        W35169   4.328  12.618   0.904  0.1295 -0.0759 -0.3465
18986W        W35170  13.514   4.690  14.185  0.1912 -0.1613 -0.0087
18987W        W35171  13.734   6.217   0.603  0.2105 -0.2112  0.2737
18988W        W35172   1.879  17.061  13.336 -0.1004  0.2994 -0.0048
18989W        W35173   2.329  13.311  13.483 -0.2236 -0.1302 -0.0701
18990W        W35174   4.613  15.904   2.923  0.0736  0.0304  0.2466
18991W        W35175  11.792  15.407   1.878  0.1785 -0.1195 -0.0027
18992W        W35176   5.712  15.818   6.745  0.0181 -0.1467 -0.2767
18993W        W35177  17.302  11.539   0.621 -0.2896 -0.1689  0.1002
18994W        W35178   8.823  17.635   3.111 -0.1725 -0.0975  0.0102
18995W        W35179  10.804  15.613  15.753  0.0933  0.2121 -0.0577
18996W        W35180  11.395   6.477  12.241 -0.0866 -0.1756 -0.1437
18997W        W35181   2.124  14.537   1.221 -0.0138  0.0120 -0.1829
18998W        W35182   5.559  13.069   2.117 -0.0071 -0.3139  0.0969
18999W        W35183   4.716   0.021   1.077 -0.0617 -0.3331 -0.3383
19000W        W35184   7.537  16.623   2.406  0.2634  0.2588 -0.0309
19001W        W35185   6.316   1.996   2.494 -0.4016 -0.1944 -0.1581
19002W        W35186   2.804  16.320   4.768 -0.3989  0.0178  0.1113
19003W        W35187  10.271  15.754   4.178  0.1439 -0.1443  0.0472
19004W        W35188  14.670   0.424   1.984  0.0798  0.2900 -0.1154
19005W        W35189   6.933  17.191   0.345  0.2463  0.2717  0.0484
19006W        W35190   5.102   1.718   2.499 -0.1111  0.1773  0.1385
19007W        W35191   2.968   5.819  14.960 -0.0765 -0.1209 -0.2655
19008W        W35192   6.987  14.879  10.742 -0.1657 -0.3352 -0.3749
19009W        W35193   4.109  16.732   6.508  0.2885 -0.0396  0.0587
19010W        W35194  18.162  12.545   0.818 -0.0323  0.1151  0.0820
19011W        W35195   1.571  17.412   4.541 -0.1457 -0.0911  0.2403
19012W        W35196   1.436   4.661   0.702 -0.0021 -0.1573 -0.1407
19013W        W35197   5.940  13.840   4.730 -0.2676  0.1702 -0.2171
19014W        W35198  16.667   5.515  15.036  0.0801 -0.0328  0.0085
19015W        W35199   0.707   0.525  10.162  0.2478 -0.2687  0.1418
19016W        W35200   1.353   6.263   5.943 -0.1116 -0.1009 -0.0848
19017W        W35201  10.220   2.602  15.443  0.0534 -0.3026 -0.0746
19018W        W35202  12.000  14.145   2.771 -0.0005  0.3588  0.2053
19019W        W35203  11.408   4.079  16.599  0.0924  0.1376 -0.0614
19020W        W35204  11.781   3.415  13.092 -0.1405  0.2464 -0.1544
19021W        W35205   6.698   0.723  16.514  0.1224  0.3008  0.2493
19022W        W35206   4.986   5.517  16.470  0.0836 -0.0167 -0.1290
19023W        W35207  17.859  10.962  12.551 -0.0759 -0.2276  0.0878
19024W        W35208   1.951  12.369   5.710 -0.0232 -0.0449  0.1351
19025W        W35209  14.095  16.298  11.530  0.3439  0.0759 -0.0799
19026W        W35210   5.614   3.300  11.677  0.0244  0.1537  0.0250
19027W        W35211   4.994  12.279   1.676 -0.1856  0.1687  0.0660
19028W        W35212  12.345   4.602  14.141  0.3316  0.4015  0.2882
19029W        W35213  15.950   8.089  12.878  0.2669 -0.1831  0.1649
19030W        W35214   0.272  14.804  12.794 -0.0455 -0.1036 -0.1415
19031W        W35215   7.553   5.945  13.944  0.0814 -0.1683 -0.2696
19032W        W35216   4.932  13.775  15.849 -0.0716 -0.0053 -0.1002
19033W        W35217   9.702  11.056   3.784  0.0998  0.3837  0.0619
19034W        W35218   5.965   1.058   4.128  0.0684 -0.4114  0.0515
19035W        W35219   3.313   7.813   1.890  0.1653  0.1730  0.0280
19036W        W35220   2.562   5.779   2.761  0.0202  0.0910 -0.1195
19037W        W35221  13.729   4.309   3.156 -0.1572 -0.2568 -0.3884
19038W        W35222   6.972  13.994   0.499  0.1339  0.0178  0.1920
19039W        W35223   4.252  17.847  15.485  0.0611 -0.1759 -0.0016
19040W        W35224   2.922   8.546  14.340  0.1143  0.3517  0.1018
19041W        W35225   4.664   0.748   5.284  0.2487 -0.0263 -0.2212
19042W        W35226   2.761  14.360   1.072  0.2745  0.0312 -0.1630
19043W        W35227   8.296   8.722   2.654  0.1482  0.0440 -0.0576
19044W        W35228  14.327   0.025   5.621  0.1546 -0.0920 -0.1647
19045W        W35229  14.981  14.621   5.898  0.0299  0.1254 -0.0252
19046W        W35230  12.906   3.793   4.670 -0.0083  0.0127 -0.0675
19047W        W35231   7.535   6.771  11.565  0.1124 -0.0904 -0.2216
19048W        W35232  13.582   8.898   1.286 -0.3371 -0.0923  0.0360
19049W        W35233   0.837   8.685   5.289  0.1775  0.0320 -0.1953
19050W        W35234  15.200  15.018   3.556  0.3467  0.1849  0.2706
19051W        W35235  12.980   6.910  11.543 -0.2842  0.0859  0.0246
19052W        W35236  13.754  14.109   5.167 -0.1654  0.0845 -0.1456
19053W        W35237  10.755  12.200  15.010  0.2291 -0.2156  0.1096
19054W        W35238  16.048   6.098   2.701  0.0858  0.2720  0.1477
19055W        W35239   0.802  17.331  15.324 -0.0589 -0.0321 -0.0753
19056W        W35240  15.182   2.952  12.597 -0.0765  0.0601 -0.0495
19057W        W35241   2.002   6.486  11.414 -0.1044  0.0119  0.2721
19058W        W35242  14.939  10.337  16.232 -0.1180  0.0929  0.0308
19059W        W35243  13.458   2.708   5.924  0.0700 -0.0154  0.0923
19060W        W35244   3.462  12.480  13.105  0.1366  0.1402  0.0358
19061W        W35245  15.988  11.154   0.692  0.2274 -0.0009  0.2944
19062W        W35246  12.719  16.570   2.730 -0.2401 -0.0862  0.2346
19063W        W35247   1.700  11.942   0.499 -0.0753  0.0900 -0.4040
19064W        W35248   9.406   6.373  12.732 -0.0330  0.0283 -0.3090
19065W        W35249   4.875   1.823   5.133 -0.1608  0.0409 -0.1587
19066W        W35250   8.426  13.820   4.858 -0.1467 -0.0600 -0.1436
19067W        W35251  10.511  17.239  14.872  0.2296 -0.0518 -0.1027
19068W        W35252   8.561   2.246   4.591 -0.1066 -0.2028 -0.0730
19069W        W35253  10.014  15.015   6.533 -0.0469  0.1276 -0.1825
19070W        W35254   3.266  12.268   0.592 -0.0329  0.3324  0.4054
19071W        W35255  12.842   5.351  13.302 -0.0559 -0.1956 -0.4932
19072W        W35256   1.356   3.811  11.653  0.0429  0.0215 -0.1461
19073W        W35257  17.218   5.003  14.109 -0.0554 -0.1416 -0.4126
19074W        W35258   9.715   0.929   3.057 -0.1111  0.1008 -0.0161
19075W        W35259   7.223   8.906   6.062 -0.4061 -0.0001 -0.3155
19076W        W35260  15.894  16.957   5.487  0.0715  0.0490 -0.1012
19077W        W35261   7.403  13.538  11.863  0.0809  0.1377  0.0411
19078W        W35262   1.522   9.423   4.522 -0.4146 -0.2658  0.3338
19079W        W35263  13.138  11.271   4.233 -0.2059 -0.0824  0.2153
19080W        W35264  10.600   6.381   6.459  0.1397  0.1891  0.0377
19081W        W35265   4.404  14.601  11.040 -0.3984 -0.0633  0.0857
19082W        W35266   2.747  14.270  14.572  0.2608  0.2012 -0.1634
19083W        W35267   8.916  12.729   3.844 -0.0290 -0.0197  0.1740
19084W        W35268   4.692  15.831   6.054 -0.2811 -0.0713  0.2684
19085W        W35269  16.522   4.516  12.963  0.1923  0.0825  0.1002
19086W        W35270   8.886   6.097  15.815 -0.1929  0.4248  0.0969
19087W        W35271  15.180  15.823  16.651  0.2270 -0.2626 -0.0141
19088W        W35272  10.447   8.609   1.038  0.0137 -0.2693 -0.2289
19089W        W35273   7.655   8.747  16.485 -0.0639 -0.3642 -0.0622
19090W        W35274  11.729  11.450   3.467  0.0137 -0.1503  0.0486
19091W        W35275   2.917  15.853   4.009 -0.2684 -0.1218  0.2683
19092W        W35276   4.671  10.598  16.637 -0.3582  0.1889  0.0350
19093W        W35277  16.678   7.070  11.449 -0.1252 -0.1575 -0.0509
19094W        W35278  14.146  14.396  13.420 -0.0464 -0.0248  0.0026
19095W        W35279   8.732  16.131   0.986  0.1398  0.2130  0.0841
19096W        W35280   6.536   6.411  16.325  0.0835  0.0764 -0.0544
19097W        W35281   8.110   6.805   4.315  0.3417 -0.1272 -0.0329
19098W        W35282  16.965   9.216  13.332 -0.1729  0.2635  0.1147
19099W        W35283  12.179   0.641  11.592  0.2044 -0.1609 -0.1438
19100W        W35284   6.002   9.613  14.017 -0.2161  0.0685  0.0967
19101W        W35285  10.478  12.933   1.485 -0.2668 -0.1291 -0.0271
19102W        W35286   8.400   4.433  15.899 -0.0840 -0.1390  0.0344
19103W        W35287  11.638  15.592   5.206  0.1676 -0.1299 -0.0439
19104W        W35288   6.939   6.626  16.096 -0.0173 -0.2555  0.1194
19105W        W35289   3.648   5.412   4.699  0.2487 -0.1123  0.2301
19106W        W35290   3.217   0.380  13.292 -0.0728  0.2542 -0.1849
19107W        W35291  13.853   5.450   3.566 -0.3876 -0.2546 -0.4384
19108W        W35292   6.881   3.757  13.109  0.0876  0.0947 -0.1163
19109W        W35293  13.556   1.013   3.112 -0.0092  0.0451  0.3305
19110W        W35294   5.802  11.968  15.782  0.0984  0.1694 -0.1249
19111W        W35295  10.311  12.722  13.107  0.1675  0.2036  0.1530
19112W        W35296   6.505   6.426   4.189  0.0881  0.0781  0.1139
19113W        W35297  15.958   7.932  14.391  0.0372 -0.0248  0.1222
19114W        W35298   1.620   3.004  10.522 -0.0331  0.0021 -0.0865
19115W        W35299   2.696   0.643   1.319 -0.0715  0.1830  0.0307
19116W        W35300  13.226  17.712   5.752 -0.0233  0.0249 -0.1527
19117W        W35301   3.072  10.010   0.346  0.0349 -0.1374  0.1228
19118W        W35302   5.187   5.468   5.986 -0.1676 -0.1460  0.1787
19119W        W35303   4.059   8.276   3.088 -0.2242  0.1114  0.4130
19120W        W35304   2.276  12.117   2.052  0.2385  0.2516 -0.1632
19121W        W35305   4.545  13.236   1.561 -0.0380 -0.0178 -0.0071
19122W        W35306  16.589  16.035  13.612  0.0185  0.2570 -0.2401
19123W        W35307  11.608   5.583   3.449 -0.0282  0.3535  0.3790
19124W        W35308   5.171   9.325   1.766 -0.1228  0.0266  0.3999
19125W        W35309  10.686  11.262  16.076  0.0748 -0.0244  0.3334
19126W        W35310   2.479  12.372   2.989 -0.1257  0.0537  0.0833
19127W        W35311   9.197   0.293   0.138  0.0131  0.0446 -0.0955
19128W        W35312  14.649   6.164  14.163  0.0626 -0.1774  0.0491
19129W        W35313  13.265  15.400   3.333 -0.0474  0.3378 -0.2280
19130W        W35314  16.562   5.180   0.539  0.0473  0.1665 -0.2202
19131W        W35315   4.360   8.215   2.594 -0.0078  0.2839 -0.1438
19132W        W35316   5.591   9.111   5.339 -0.0917 -0.0844 -0.2036
19133W        W35317   7.254  12.310   5.492 -0.1668  0.1873 -0.1521
19134W        W35318   9.638   6.792  12.966 -0.0519 -0.3015  0.0900
19135W        W35319  11.116  11.236  12.453 -0.2228  0.0382 -0.2393
19136W        W35320  14.123  12.656  12.252 -0.3192  0.1340 -0.0472
19137W        W35321   0.441  15.496   5.706  0.1856 -0.1392  0.1714
19138W        W35322  17.919   6.992  15.098 -0.0723  0.2056 -0.3617
19139W        W35323   7.560   7.981   6.324 -0.1521 -0.0758 -0.0689
19140W        W35324  13.235  15.895  12.397  0.1807 -0.3100 -0.0676
19141W        W35325  16.283   2.165   2.500 -0.3797 -0.1370 -0.1470
19142W        W35326  15.253  13.979   1.882  0.4413  0.0062 -0.1447
19143W        W35327   7.714  13.212   4.754  0.1284  0.0812 -0.2403
19144W        W35328  15.047   6.315  12.911 -0.0957  0.1601 -0.3361
19145W        W35329   4.495   3.891   3.277  0.1637 -0.0049  0.1680
19146W        W35330   6.849  11.821  16.474 -0.1683 -0.1027 -0.1597
19147W        W35331   0.433  18.144  12.295 -0.2170  0.1019  0.4165
19148W        W35332   8.115  11.379  13.709  0.0932 -0.0874 -0.0182
19149W        W35333   6.411  16.497  15.558  0.1460 -0.3415 -0.1986
19150W        W35334  13.630   6.755   0.500  0.0933 -0.1049 -0.0394
19151W        W35335  13.531   7.834   5.958 -0.3296  0.1438  0.0777
19152W        W35336  13.001   7.561  16.111 -0.1840  0.1729 -0.0198
19153W        W35337   6.795   8.465   0.468 -0.3046  0.1516 -0.0653
19154W        W35338  11.272  11.940  13.746 -0.0302  0.0154 -0.1340
19155W        W35339   9.310  18.062   3.735 -0.0265  0.3057 -0.2505
19156W        W35340  14.419   8.480   3.495  0.1078  0.0623  0.1290
19157W        W35341   0.977  11.597  12.335  0.1202 -0.2128  0.1175
19158W        W35342   1.155   7.500  15.384  0.0711  0.0169 -0.1006
19159W        W35343   8.775   3.504   0.258  0.0175 -0.0224  0.0149
19160W        W35344  11.293   5.779  16.643  0.2496  0.0355  0.0190
19161W        W35345   9.558   1.302   2.745  0.0012  0.1095  0.2832
19162W        W35346   6.225   6.131  16.560  0.2301  0.1395 -0.6055
19163W        W35347   0.990  14.940  16.045  0.1377 -0.0948  0.1109
19164W        W35348  10.848   4.541   4.214 -0.1089 -0.4078 -0.0459
19165W        W35349  16.298  10.586  12.631 -0.2964  0.0272 -0.0955
19166W        W35350  16.820   1.450  13.979  0.1085  0.0926 -0.0811
19167W        W35351   9.754   4.559   3.749 -0.3165 -0.0242  0.0656
19168W        W35352  13.195   1.946   5.384 -0.2058  0.1662  0.3528
19169W        W35353  17.189  14.781   0.338  0.0338  0.0478 -0.1156
19170W        W35354   2.126  11.162   2.529 -0.0931  0.1775  0.0406
19171W        W35355  18.002  18.109   5.095 -0.1001  0.2514 -0.0465
19172W        W35356  13.348   2.751   2.888 -0.0659 -0.1336  0.2944
19173W        W35357  11.014  11.618  12.781 -0.2773  0.1979  0.0741
19174W        W35358   8.176   0.851   4.907 -0.0405 -0.1233 -0.0488
19175W        W35359   2.787   6.240  11.900  0.2375 -0.0484  0.1900
19176W        W35360  17.514   8.205   5.772  0.1744  0.4817  0.1528
19177W        W35361   9.663  10.574   1.795 -0.4355 -0.0920  0.2375
19178W        W35362   8.730  11.205  15.584 -0.0068  0.1746 -0.0435
19179W        W35363   7.296  12.327  14.062  0.0210  0.1042 -0.4073
19180W        W35364   5.317  14.921  11.104  0.0816  0.1942 -0.2629
19181W        W35365   1.914   4.677   0.534  0.1155 -0.1668 -0.2583
19182W        W35366   6.808   0.446   2.169 -0.1050  0.0907  0.0530
19183W        W35367  17.551   5.036  10.483  0.0576  0.1131 -0.0111
19184W        W35368  15.066   5.590   3.278  0.0830  0.1081 -0.0243
19185W        W35369  10.027   0.668   5.200  0.0956  0.0136  0.2833
19186W        W35370   2.536   0.647  11.701 -0.0580  0.2831  0.1867
19187W        W35371   2.880   8.090  15.620  0.0512  0.2526  0.0983
19188W        W35372  15.987   1.911  12.295 -0.1974 -0.1630 -0.1838
19189W        W35373   6.800   5.778   4.961 -0.0550 -0.1086 -0.0269
19190W        W35374   3.641   0.608   0.520  0.0469 -0.0888 -0.0618
19191W        W35375   8.893   1.025  12.274 -0.0186  0.0563 -0.0342
19192W        W35376   5.532  16.340  14.766 -0.0738 -0.0327 -0.0385
19193W        W35377   2.697   6.965  13.803  0.1044  0.0704 -0.0816
19194W        W35378  15.579   6.442   3.377  0.1879  0.2363 -0.5736
19195W        W35379  15.330   8.135  12.910 -0.1548 -0.1458 -0.0513
19196W        W35380  15.576   8.596   5.535 -0.2933 -0.1348 -0.0287
19197W        W35381   1.065   0.689  11.863 -0.2559  0.2297  0.1893
19198W        W35382   7.389  11.997  11.973  0.4963  0.2295  0.0373
19199W        W35383  16.323   8.888   4.401 -0.1081 -0.1916 -0.2402
19200W        W35384  14.081  14.661   1.225  0.0637 -0.1110 -0.4061
19201W        W35385   4.853   5.324   5.521  0.2048 -0.0142 -0.0364
19202W        W35386   1.120   1.251  13.327  0.1134 -0.0941  0.0651
19203W        W35387   1.701  18.128  11.714 -0.1283  0.0051  0.1102
19204W        W35388   0.693   1.935   4.846  0.0584  0.2819  0.1665
19205W        W35389   5.666   1.766   0.804  0.2146 -0.1557  0.0446
19206W        W35390  17.397  15.271  14.373 -0.1584  0.1286  0.0037
19207W        W35391  12.239  16.182   3.958  0.2142 -0.0988 -0.0551
19208W        W35392  16.469   1.967   0.452 -0.1616  0.3160  0.2396
19209W        W35393  17.187  13.159   1.788  0.1937  0.0456 -0.2350
19210W        W35394   9.430  16.331  12.127  0.0768  0.0691  0.3980
19211W        W35395   0.765   4.149   4.513 -0.0332  0.0847  0.0693
19212W        W35396  15.527  11.389   3.916  0.1449 -0.0596 -0.2032
19213W        W35397  12.087  14.438  11.988  0.1877  0.0746  0.0315
19214W        W35398  13.983   3.617   0.120 -0.2511 -0.3015  0.1316
19215W        W35399   5.455   0.622   2.016  0.0788  0.0483 -0.2894
19216W        W35400  11.954   8.779  14.661 -0.1303  0.0334 -0.0460
19217W        W35401  14.485  14.956   2.121  0.2147  0.3763 -0.0449
19218W        W35402   3.470   3.761  12.502 -0.2271 -0.1745 -0.0513
19219W        W35403   4.933   0.294   3.215 -0.0885 -0.3361  0.4440
19220W        W35404   9.887   4.341   2.120 -0.0684  0.0586  0.2709
19221W        W35405   6.968   4.980   2.502 -0.3539  0.1225 -0.0481
19222W        W35406  15.321   2.288  13.343 -0.2049 -0.2334 -0.1121
19223W        W35407  11.885  11.304   6.428 -0.1639  0.1270 -0.0402
19224W        W35408  10.128  13.225  13.840  0.1665 -0.0824 -0.1895
19225W        W35409   4.786  17.820   2.960 -0.2468 -0.0831  0.0157
19226W        W35410   3.111   6.019   4.979 -0.1185 -0.1573  0.1664
19227W        W35411   8.650  16.746   0.725  0.2082 -0.0328 -0.2217
19228W        W35412   2.291  16.917   0.812 -0.4024  0.0580 -0.0118
19229W        W35413  12.452   2.167  12.558 -0.0811  0.1220 -0.3684
19230W        W35414   4.419  16.101   1.104  0.1083 -0.0562 -0.0154
19231W        W35415  14.906   1.987  12.809 -0.0591  0.0863 -0.2487
19232W        W35416   5.929  13.983   5.302  0.0068 -0.0863  0.0887
19233W        W35417  11.566   9.588   4.369  0.2106  0.1670 -0.1074
19234W        W35418  15.027   9.364   4.775  0.1504  0.3267 -0.0982
19235W        W35419  16.480   3.842  16.250  0.2216 -0.1656 -0.0803
19236W        W35420   2.554  10.528  16.628  0.0137 -0.0953  0.1637
19237W        W35421  16.721  12.608  16.403  0.1861  0.2541  0.1059
19238W        W35422   3.485   1.812  12.766 -0.1716 -0.1493  0.1027
19239W        W35423  11.637   7.577   2.577 -0.3051 -0.1005  0.0580
19240W        W35424   3.368   2.027   4.783 -0.1735 -0.2952  0.1001
19241W        W35425  11.677   2.826   1.260  0.2307 -0.3569  0.2435
19242W        W35426   7.061   3.602   2.764  0.1593  0.1838  0.2542
19243W        W35427   0.297   2.806  13.378  0.1083  0.0057  0.2634
19244W        W35428  13.506   5.908   0.286  0.0011  0.1451  0.1431
19245W        W35429   1.272   9.605  12.992 -0.0885 -0.2763  0.0530
19246W        W35430  17.518   0.363  11.237  0.0687  0.0815  0.1907
19247W        W35431  12.571  11.815  13.057 -0.0412  0.1051 -0.2330
19248W        W35432  12.508   5.531   5.053  0.2596 -0.0412 -0.1391
19249W        W35433   3.724   5.993  11.549 -0.0609  0.0020  0.1063
19250W        W35434  11.510   8.021  11.418  0.3283  0.0230 -0.0268
19251W        W35435  17.511   3.571  12.627  0.0461 -0.2454 -0.0588
19252W        W35436  16.653   0.406   2.692  0.1599  0.0048  0.1303
19253W        W35437   0.602   3.544   2.830 -0.1333  0.1372 -0.1545
19254W        W35438  10.338   1.180  16.357  0.3730 -0.1813  0.0474
19255W        W35439  18.050   1.662  14.407  0.2007 -0.0819  0.2164
19256W        W35440   0.849  17.212   6.427 -0.1186 -0.4042 -0.1428
19257W        W35441   6.210  14.776   4.936  0.1241 -0.2933 -0.0017
19258W        W35442   0.895   1.702  13.300 -0.4266  0.0544  0.0180
19259W        W35443  11.714   9.987   0.447  0.1592 -0.0010 -0.1154
19260W        W35444   9.673   6.530   4.137  0.0346 -0.0058  0.2686
19261W        W35445   1.308  15.501   2.492  0.0319 -0.2874 -0.2323
19262W        W35446   9.416   0.464  14.507  0.2353  0.2651 -0.0110
19263W        W35447  15.222   2.963   4.072 -0.0115  0.2071 -0.1438
19264W        W35448   4.165   2.276   1.774  0.2699  0.1236 -0.1322
19265W        W35449  13.019  16.774  13.257 -0.1859 -0.1078  0.2953
19266W        W35450   5.430  12.620  14.646 -0.2298  0.2648  0.0018
19267W        W35451  15.402  14.628   4.699 -0.0013 -0.1453 -0.0888
19268W        W35452  13.763  10.590   4.197  0.1627  0.2839  0.1202
19269W        W35453   7.997   9.601   2.747 -0.2488  0.5394  0.0500
19270W        W35454   5.559  14.481  15.874 -0.2211  0.1874  0.0752
19271W        W35455  18.054   5.767  15.493 -0.0081 -0.0403  0.3027
19272W        W35456  13.094   2.067  15.823  0.0836  0.2999 -0.1217
19273W        W35457   9.205  11.765   2.635 -0.1867 -0.3513  0.1249
19274W        W35458  10.648  15.799  13.867  0.1050  0.0449  0.4580
19275W        W35459   4.454   4.822  11.546  0.2834 -0.2162 -0.0797
19276W        W35460  17.144   7.406   1.094  0.0722  0.0565 -0.1445
19277W        W35461  14.615   5.613   4.007  0.0421  0.3388  0.1552
19278W        W35462  13.795   1.635   3.149  0.1425  0.0015 -0.2895
19279W        W35463  12.496   0.037   4.134 -0.1603 -0.1217 -0.0138
19280W        W35464  12.428   0.589  12.672  0.0193 -0.0206 -0.1423
19281W        W35465   5.785   0.440  14.502 -0.1209 -0.0708  0.0726
19282W        W35466   7.670  13.251   5.311  0.0457 -0.0053  0.1321
19283W        W35467  15.481   0.894  12.601  0.2693  0.2792  0.0243
19284W        W35468   6.461   8.735   3.977 -0.0476  0.0081  0.1942
19285W        W35469   1.975   9.011   1.441 -0.0908  0.1511  0.3642
19286W        W35470   2.914   7.515  12.521 -0.1590  0.1467  0.0962
19287W        W35471   6.465   8.067  13.147  0.0455 -0.1708  0.1221
19288W        W35472  15.878   2.260  15.557  0.3168 -0.2008 -0.1542
19289W        W35473   2.066  13.881  11.835 -0.1206 -0.0956  0.2266
19290W        W35474   1.945   9.177   0.128 -0.2078  0.0188  0.2080
19291W        W35475  10.410  15.254   4.344 -0.1921 -0.0051  0.0065
19292W        W35476   5.196   8.772  16.275 -0.0222 -0.2543  0.3956
19293W        W35477   1.962   1.896  15.888 -0.0140  0.0483  0.0715
19294W        W35478  14.685   1.686   1.101  0.0284 -0.0392 -0.2123
19295W        W35479   7.200   4.419   0.182  0.2519 -0.2390 -0.0335
19296W        W35480  10.789   1.207   2.599  0.0158 -0.0553  0.0586
19297W        W35481  10.278  17.765  15.781 -0.0958 -0.0582 -0.2417
19298W        W35482  15.836  16.241  15.611 -0.1699 -0.4245 -0.0289
19299W        W35483   9.789  16.270  14.542 -0.1487  0.0484 -0.0138
19300W        W35484  14.491  11.018  14.341 -0.1763  0.0292  0.1246
19301W        W35485   4.088   4.469  14.830  0.1089  0.0660  0.2888
19302W        W35486  11.425   9.133   1.548  0.0718 -0.2152  0.0705
19303W        W35487   6.537   8.942  13.238  0.1202  0.2259 -0.1567
19304W        W35488   1.663  15.833   4.288  0.1421 -0.3224  0.0567
19305W        W35489  16.719   3.393  15.261  0.1443 -0.0684 -0.0165
19306W        W35490   3.115   1.045   4.541 -0.2069 -0.1156  0.1028
19307W        W35491   2.326   3.138  13.355  0.0569 -0.2771  0.3121
19308W        W35492   1.638   3.098   0.244  0.2148  0.0375 -0.1959
19309W        W35493   1.803  15.391   5.058  0.3453  0.2805  0.0147
19310W        W35494  15.461   7.266  10.810  0.0755 -0.2190  0.1382
19311W        W35495  11.946   3.637   4.583  0.3639  0.0687 -0.1841
19312W        W35496   2.859  18.138   3.889  0.2259  0.2025 -0.0150
19313W        W35497   5.587   6.618   5.364  0.2761 -0.2575  0.2200
19314W        W35498  17.364   3.703  13.119 -0.0014  0.2376 -0.2818
19315W        W35499  11.322   8.429  15.957 -0.0195 -0.0522  0.0685
19316W        W35500   2.734  11.856  13.166 -0.3061  0.0162  0.3113
19317W        W35501  18.117   4.940  10.503  0.1599 -0.0986  0.3912
19318W        W35502  11.529  16.672   1.639 -0.2468  0.0163 -0.2995
19319W        W35503   5.922  13.240  11.570  0.1163  0.1458  0.1571
19320W        W35504   4.381  14.537  15.500 -0.2315 -0.1500  0.1100
19321W        W35505  17.312  12.087   5.496 -0.3053  0.1394 -0.2594
19322W        W35506   8.820  16.431  16.064  0.2058  0.2770 -0.3142
19323W        W35507  17.667  10.025  12.503  0.0222  0.1347 -0.1306
19324W        W35508  11.674   4.428  14.100 -0.0316  0.0358  0.0607
19325W        W35509   5.882  13.317   1.294  0.0257 -0.0394  0.1633
19326W        W35510   3.788  14.705   0.020  0.1361  0.0888  0.1396
19327W        W35511  15.438  11.493   1.357  0.0302  0.1444 -0.0944
19328W        W35512   3.202   5.929  13.146 -0.0792 -0.4793 -0.0351
19329W        W35513  11.778  15.302  13.499  0.0985  0.0071 -0.1821
19330W        W35514  16.949   7.984   2.234 -0.1670  0.0038 -0.1592
19331W        W35515   1.174   6.925  11.116 -0.0832 -0.1346  0.1144
19332W        W35516  10.794   7.820   2.756 -0.0149  0.0396 -0.0297
19333W        W35517   3.510   5.296  10.948  0.1011  0.3492 -0.3378
19334W        W35518  13.783   8.330   3.813  0.1617  0.0304 -0.0934
19335W        W35519   2.015  13.308   3.402  0.1311  0.0106 -0.1586
19336W        W35520  14.340  12.280   0.727 -0.3423  0.0421 -0.4838
19337W        W35521  17.913  11.229  14.247  0.4141 -0.0426  0.1232
19338W        W35522  11.239   2.614   3.435 -0.0729 -0.1784 -0.0906
19339W        W35523   3.868   2.163  15.184 -0.3034 -0.0761  0.1687
19340W        W35524   4.776   3.217  14.083 -0.0198 -0.1157  0.1349
19341W        W35525   2.306   5.619   1.408 -0.0133  0.5141 -0.1288
19342W        W35526  12.320   3.276  14.263 -0.0318 -0.1676  0.1707
19343W        W35527  12.562   1.246  16.601 -0.0420 -0.2094  0.0140
19344W        W35528  10.295  15.686  15.269 -0.1262 -0.1130  0.2013
19345W        W35529   6.937   4.407  13.955  0.0473  0.2241 -0.3534
19346W        W35530   1.750  11.372  14.967 -0.0068  0.0208  0.0673
19347W        W35531  11.203  11.875   1.838 -0.2831 -0.1094  0.0438
19348W        W35532  14.885  10.687  14.717  0.0610  0.1210 -0.1463
19349W        W35533  17.105   8.803   1.885 -0.1325  0.0787  0.0702
19350W        W35534   6.759  18.047   2.573  0.0994  0.1307 -0.2440
19351W        W35535   8.738  16.902  15.776  0.0584 -0.1431  0.1074
19352W        W35536   3.270   8.546   0.663 -0.2193 -0.0148  0.0585
19353W        W35537  14.083   6.119   0.197 -0.2314  0.0897 -0.1741
19354W        W35538   9.320  11.046   4.744  0.1050  0.0592 -0.1473
19355W        W35539  15.312   6.008   3.384  0.2178  0.1725 -0.1681
19356W        W35540  14.415  12.147   4.158 -0.1645 -0.0747  0.2396
19357W        W35541   2.919   4.290  11.283  0.5293  0.1216  0.0418
19358W        W35542  10.034   3.173  11.583  0.0947  0.2063 -0.0855
19359W        W35543  13.484   8.635   2.556  0.1138  0.1325 -0.2487
19360W        W35544  14.002   0.688  13.818  0.0383 -0.1995 -0.0359
19361W        W35545  12.942   6.633  15.493  0.0006  0.0383 -0.1005
19362W        W35546   2.122  11.775   2.450  0.0014 -0.0391  0.0148
19363W        W35547   8.249  10.151   0.942  0.0511 -0.2179 -0.0724
19364W        W35548  17.372  12.760  12.111 -0.0411 -0.2068  0.0146
19365W        W35549   3.475   4.906   2.024  0.2071 -0.0075 -0.1036
19366W        W35550   7.934   9.952   2.408  0.1676 -0.0059 -0.0494
19367W        W35551   6.744   2.472  14.131  0.1145  0.3600  0.2072
19368W        W35552  14.527   0.635   3.179 -0.2837 -0.1316 -0.0470
19369W        W35553   9.168  11.310   1.883  0.0147  0.2187  0.0390
19370W        W35554  10.076   3.286   0.335 -0.0810  0.0480  0.0596
19371W        W35555   5.237   7.542   1.349  0.0956  0.0236  0.2480
19372W        W35556  17.214   2.731  15.745 -0.2856  0.2071 -0.0343
19373W        W35557  12.993  12.122  16.478  0.1337 -0.1737  0.1363
19374W        W35558  12.993   0.969   2.552 -0.0134  0.0414  0.3072
19375W        W35559   6.889   8.020  12.693 -0.0857  0.1967  0.0290
19376W        W35560   9.376   9.049  12.983 -0.1641 -0.0377 -0.3456
19377W        W35561  12.429  13.534   2.000  0.0036  0.0156 -0.0891
19378W        W35562  16.284   0.093   2.857  0.1697  0.1156  0.0835
19379W        W35563  14.945  13.826   2.258 -0.2527  0.0443 -0.0110
19380W        W35564   5.192   6.082   1.331  0.1458 -0.2908  0.2331
19381W        W35565   4.000  15.913   4.176 -0.1968 -0.1664 -0.0119
19382W        W35566  14.672   0.792   1.690 -0.1412  0.2955 -0.0087
19383W        W35567   8.660   0.890   5.721 -0.1284  0.1343  0.3081
19384W        W35568   2.291   3.990  15.763 -0.1024  0.3945  0.1283
19385W        W35569   6.313   8.898   1.704 -0.0952  0.1599 -0.1293
19386W        W35570   5.472  12.259   0.250  0.0462  0.2777  0.1008
19387W        W35571   1.382   0.458  13.597  0.1024  0.2950  0.0185
19388W        W35572  12.152   9.911  12.903 -0.3128  0.3674  0.1583
19389W        W35573   8.440  13.912   4.319  0.0875 -0.2621  0.0810
19390W        W35574  11.645   4.813  15.934  0.2892 -0.2106  0.0270
19391W        W35575   9.801  11.912   4.266 -0.1117  0.0356  0.0200
19392W        W35576  13.563   7.507   0.662  0.0259 -0.0963  0.1118
19393W        W35577  12.956   1.155  15.624 -0.1222  0.0983 -0.0060
19394W        W35578   6.692   8.733   3.494 -0.0143 -0.4548  0.2177
19395W        W35579  12.168  10.515  13.615 -0.1166 -0.2719  0.2050
19396W        W35580   3.042   1.703   5.072 -0.0775  0.0967 -0.1862
19397W        W35581  11.159   8.666   4.045 -0.0091  0.3870 -0.0170
19398W        W35582   5.692   0.549  12.639  0.1244 -0.0687 -0.2940
19399W        W35583   6.555  18.020  12.130  0.2354  0.1664 -0.0985
19400W        W35584  17.253   9.539  15.751  0.1410 -0.3259  0.0329
19401W        W35585   6.466   2.556   3.484 -0.1235 -0.1780  0.2044
19402W        W35586   1.278  14.141  14.660 -0.1734 -0.1693  0.0810
19403W        W35587   0.842   0.339  13.564 -0.0631 -0.2292 -0.0529
19404W        W35588   8.070  17.519   5.310 -0.0941  0.2522 -0.2164
19405W        W35589   1.509  11.527  16.424  0.0600 -0.0782  0.0439
19406W        W35590   4.737  17.345  14.169 -0.3366  0.0513  0.2202
19407W        W35591  10.716   3.544   1.967  0.1013  0.0701 -0.1257
19408W        W35592  15.965   5.241   2.175  0.0759 -0.2646 -0.1597
19409W        W35593   2.822   6.547   3.854 -0.1918 -0.1506  0.2310
19410W        W35594   7.446  11.582  15.741 -0.0183  0.1859  0.1390
19411W        W35595   2.548   3.949  12.345 -0.2578  0.1925  0.2807
19412W        W35596  10.595  12.651   0.191 -0.4205 -0.0596 -0.1361
19413W        W35597   9.784   2.744  15.829  0.0314 -0.2384 -0.3492
19414W        W35598   1.217  14.987   2.585  0.1051 -0.1328 -0.2770
19415W        W35599   0.938  14.065  12.328 -0.2217 -0.0924  0.0553
19416W        W35600   3.741  16.204  12.468 -0.1583 -0.0191  0.0362
19417W        W35601  14.574   7.735   4.059  0.1210  0.1428  0.2493
19418W        W35602   5.813  17.433   1.755  0.3500 -0.2396 -0.3423
19419W        W35603   7.968  15.573   4.221  0.1345  0.0327 -0.0299
19420W        W35604   2.150   6.690  11.830  0.0136 -0.3300 -0.1087
19421W        W35605   7.370  17.786   1.222 -0.2391  0.1518  0.1520
19422W        W35606  14.103  16.286  15.192  0.0831  0.0961  0.3365
19423W        W35607  16.968   4.408  13.930 -0.1225  0.1423 -0.1033
19424W        W35608   1.193   4.251   0.905 -0.3539  0.0246  0.0620
19425W        W35609   5.503  13.112   0.498  0.0404  0.0337 -0.0666
19426W        W35610   5.335   8.737  14.514  0.0358 -0.3632 -0.1248
19427W        W35611   9.491  15.605   0.580 -0.2440 -0.1004  0.1680
19428W        W35612   3.879   8.811   4.348 -0.0512  0.0297 -0.2500
19429W        W35613   1.231   1.113   3.795  0.0424 -0.2960  0.0417
19430W        W35614   3.477   1.864   0.167 -0.0051 -0.1179 -0.0480
19431W        W35615   2.809   6.440  10.680 -0.1668 -0.1797 -0.0866
19432W        W35616  11.237   1.044  12.569 -0.4187  0.3243  0.3634
19433W        W35617   4.336   8.702   4.070 -0.3981 -0.0433 -0.1203
19434W        W35618  12.392  10.735  11.931 -0.0964  0.0571  0.2464
19435W        W35619   5.412  17.537  12.255  0.1522 -0.2848  0.0609
19436W        W35620   8.826  10.151   4.124 -0.0423  0.2438  0.6369
19437W        W35621   5.884  10.237  15.702 -0.3044  0.0123  0.1050
19438W        W35622   3.856   4.126   2.974  0.0628 -0.0915  0.2328
19439W        W35623   5.320   2.588   4.042 -0.0996 -0.1577 -0.3095
19440W        W35624   6.744   0.231  16.449  0.0569 -0.1654 -0.1191
19441W        W35625   1.232   9.366  11.974 -0.1230 -0.2156  0.2585
19442W        W35626  18.017   3.989   0.207  0.0679  0.1090 -0.0001
19443W        W35627  17.607  12.923   4.600  0.0668  0.2617 -0.1104
19444W        W35628   5.471   5.277  14.327  0.1495  0.0403 -0.1069
19445W        W35629   3.920   4.530  10.760 -0.0562 -0.2134 -0.0871
19446W        W35630  12.585   6.500   3.683 -0.1606 -0.0611  0.3378
19447W        W35631   8.496  13.177  12.738  0.0204 -0.1906  0.2834
19448W        W35632  12.292  15.668  13.405 -0.1749  0.2999  0.0460
19449W        W35633   2.951  15.836  13.033  0.0310  0.1553  0.0349
19450W        W35634   9.751   9.559  14.538 -0.3041  0.0964 -0.1379
19451W        W35635  11.356   7.889  11.886 -0.2070 -0.1361  0.1941
19452W        W35636   7.320   6.885  15.340  0.2091  0.3823 -0.1535
19453W        W35637  11.512   7.041   4.709  0.2025 -0.1405  0.3245
19454W        W35638  13.315  11.711  11.214 -0.0715  0.1171  0.1138
19455W        W35639   3.828  17.735   2.986  0.1852  0.2299  0.1277
19456W        W35640  13.652   2.587  15.841  0.2445  0.0245  0.2558
19457W        W35641  12.181   6.654   2.546  0.2239 -0.1483  0.1205
19458W        W35642  12.835   2.296  16.189  0.0714  0.2410 -0.1625
19459W        W35643   9.489  11.278   5.135  0.0963  0.1524  0.3596
19460W        W35644   8.715  15.681  12.352  0.3625  0.1574  0.2336
19461W        W35645   3.864  13.861   1.871  0.0849  0.1068  0.1300
19462W        W35646  17.831   9.571   2.237 -0.0474  0.2598 -0.0324
19463W        W35647   8.354  12.103   1.400 -0.0596 -0.1046 -0.2218
19464W        W35648   7.119   4.675   0.644 -0.0092 -0.3166 -0.1388
19465W        W35649   3.949   1.436  14.121 -0.0098 -0.4460  0.1228
19466W        W35650  12.228   3.652  15.269  0.1306 -0.1486  0.2762
19467W        W35651   3.909  10.380  13.668 -0.0318 -0.4470  0.0595
19468W        W35652  14.306   3.389  16.432  0.3331 -0.0991  0.1909
19469W        W35653   4.358  10.492  15.162  0.1136  0.1199 -0.1000
19470W        W35654  16.666  12.988   4.504  0.1299 -0.1092 -0.1578
19471W        W35655   6.300   1.954   5.461 -0.0672 -0.0650  0.1388
19472W        W35656  14.190   2.003   5.197  0.0465  0.0561 -0.1662
19473W        W35657  14.471   8.128   4.866 -0.1952  0.1215  0.0864
19474W        W35658   3.931  15.682   5.937  0.1358 -0.0213  0.1585
19475W        W35659   4.260  11.222   4.793 -0.2598 -0.0344 -0.1823
19476W        W35660  12.381   0.182   4.572  0.0781 -0.0299 -0.0235
19477W        W35661   2.494  15.825  12.348 -0.2589 -0.0102 -0.0020
19478W        W35662  12.492   5.908  16.321 -0.0786  0.2213  0.0098
19479W        W35663  16.866   5.250   4.701 -0.0399 -0.0824 -0.0594
19480W        W35664   8.574   3.376   2.106  0.2204  0.0323 -0.1452
19481W        W35665  11.731   0.762  14.467  0.0203  0.2112  0.3347
19482W        W35666   7.263  13.344  14.647 -0.1481  0.1822 -0.1810
19483W        W35667   4.499   1.167  13.155 -0.4462  0.0446 -0.0448
19484W        W35668   9.271  10.872   5.428  0.0943 -0.1475  0.2311
19485W        W35669   1.192   3.788  12.124 -0.0367  0.0603 -0.1306
19486W        W35670  13.854   6.982  16.004 -0.1577 -0.3263  0.0245
19487W        W35671   1.515   9.154   4.107 -0.2348 -0.1905  0.2172
19488W        W35672  11.362   5.309  16.416  0.1363 -0.0201 -0.4452
19489W        W35673  11.308  12.511  13.701 -0.1222 -0.1225  0.1913
19490W        W35674  13.831  15.816  15.919 -0.1961  0.3991  0.1672
19491W        W35675  14.306   4.679   3.362 -0.0568  0.3555 -0.3364
19492W        W35676  17.135  12.327   0.049 -0.0367 -0.1515  0.2803
19493W        W35677   0.784   3.100  13.730  0.1013 -0.1070 -0.2366
19494W        W35678   6.984   2.853  15.272 -0.1132  0.0430 -0.3999
19495W        W35679   7.974   9.336   0.459 -0.2459 -0.0613 -0.0137
19496W        W35680  10.190  17.242  13.646  0.0021  0.2613 -0.0188
19497W        W35681   6.320   8.586  14.918  0.0733  0.0986 -0.1009
19498W        W35682   3.427   6.454   2.050 -0.2091  0.0196  0.1379
19499W        W35683   8.015  14.068   4.520  0.0746  0.1146  0.1282
19500W        W35684   5.388  12.495  13.716 -0.0683 -0.2023 -0.0354
19501W        W35685   0.823  15.776   2.555  0.1182 -0.2663 -0.0745
19502W        W35686   8.705   5.534   1.342 -0.1080  0.0592  0.0108
19503W        W35687   3.936  17.454   5.777  0.4103  0.3223  0.0733
19504W        W35688   6.772  10.073   1.548  0.0071  0.0792 -0.2716
19505W        W35689   7.765   9.481   2.166  0.1602  0.1863 -0.1670
19506W        W35690  15.133  16.283   2.724  0.1582  0.2954 -0.0906
19507W        W35691  15.895   4.560  16.487 -0.1633 -0.1094 -0.3634
19508W        W35692  12.497   8.778   5.327 -0.0978 -0.2834  0.0866
19509W        W35693  13.997   9.083   5.020  0.3919 -0.2321 -0.0330
19510W        W35694  12.406   6.009   3.759 -0.0226 -0.2912  0.0819
19511W        W35695   3.236  11.054   1.226  0.2279  0.5078 -0.0800
19512W        W35696  12.357  15.000   2.807  0.0984  0.0939  0.1269
19513W        W35697  13.919   8.986  13.776  0.1259  0.0414  0.0147
19514W        W35698   9.941  13.303  14.787 -0.0653  0.1520  0.0011
19515W        W35699   1.940  10.442   3.838 -0.0891 -0.0125  0.2658
19516W        W35700  12.247   9.131   5.038  0.0920  0.0921 -0.2514
19517W        W35701   3.206   5.229  11.371  0.0107  0.1491  0.0041
19518W        W35702   0.358   6.732   1.826  0.1411  0.3618 -0.2034
19519W        W35703  14.119  18.014  14.484 -0.2600  0.2763  0.1835
19520W        W35704   9.124   6.274   0.471 -0.0800 -0.0296 -0.2925
19521W        W35705  11.662   6.222   1.131 -0.0831 -0.4785 -0.1629
19522W        W35706  14.634  17.257   1.546  0.0297  0.3497 -0.2221
19523W        W35707   3.645   1.232   5.064  0.0393  0.2090  0.0328
19524W        W35708   7.334   9.672   4.843 -0.2557  0.0832 -0.1478
19525W        W35709  11.997   2.055  11.793 -0.0423 -0.0518 -0.0817
19526W        W35710  12.263   6.938   4.183  0.0399 -0.0912  0.1854
19527W        W35711   7.623  14.012  12.057  0.1379 -0.0711  0.2176
19528W        W35712   8.245   7.603  16.512  0.3137 -0.0160  0.0601
19529W        W35713  15.668  10.363   0.178 -0.1679 -0.0552 -0.0557
19530W        W35714  14.889   6.986   2.836  0.0558 -0.0151  0.0521
19531W        W35715  11.494  11.946   3.220  0.0765 -0.1457 -0.0440
19532W        W35716   9.959  15.040   2.369  0.0329  0.0174  0.2568
19533W        W35717  17.619  17.376  13.360 -0.1354  0.1126 -0.2349
19534W        W35718   6.444  15.904  11.863 -0.0975 -0.0764 -0.0569
19535W        W35719  16.551   4.677  14.720  0.0582  0.0080  0.0012
19536W        W35720   1.082  14.405  14.077  0.1625 -0.1228  0.1153
19537W        W35721  18.108  17.126  14.255  0.0060 -0.0218  0.3349
19538W        W35722   3.907  18.015   4.717  0.2064  0.2322  0.1660
19539W        W35723   5.305   4.792  12.441 -0.1941 -0.0229 -0.0659
19540W        W35724   4.762   7.311  15.220  0.0519  0.1338 -0.0017
19541W        W35725   6.300  11.777  14.972 -0.0262 -0.1645 -0.0324
19542W        W35726   8.848   1.731   1.360 -0.1813  0.0525  0.0287
19543W        W35727   3.420   9.150  13.160  0.0596 -0.2081 -0.0248
19544W        W35728   7.333   0.298  15.477 -0.1688  0.1661  0.2883
19545W        W35729   9.662   2.658  16.615 -0.0840 -0.1990  0.1101
19546W        W35730   5.274   2.784   0.044  0.0775  0.0971 -0.1365
19547W        W35731   6.067  14.648  15.929 -0.3268 -0.0305 -0.1176
19548W        W35732   2.911   9.006  14.032  0.0231 -0.0148  0.0281
19549W        W35733   8.892   5.210  15.690 -0.0897 -0.0213 -0.0387
19550W        W35734  16.249   6.838  12.636  0.0762  0.2062 -0.1677
19551W        W35735   9.669   1.970   2.186 -0.3143 -0.4878 -0.1534
19552W        W35736  17.141   1.429  12.470 -0.1613 -0.1602  0.0762
19553W        W35737  13.882   8.346   2.409 -0.0971 -0.0187 -0.2042
19554W        W35738   6.547   1.537   3.586 -0.3187  0.0438  0.2575
19555W        W35739   5.213   5.706   2.237  0.1971 -0.1921  0.2430
19556W        W35740   2.993  17.183  13.312 -0.2035 -0.1071  0.0489
19557W        W35741   0.190  14.671  14.599  0.1330  0.3172 -0.2170
19558W        W35742  16.309  13.135   2.062 -0.0778  0.1363  0.0479
19559W        W35743  11.362   0.363   2.663 -0.4397  0.1359 -0.0538
19560W        W35744   2.322  13.863  14.620 -0.0893  0.1208  0.2550
19561W        W35745   3.122  16.988  14.812  0.1202 -0.0055  0.2662
19562W        W35746  14.746   8.910   3.226 -0.2787 -0.1842  0.1207
19563W        W35747  11.137  13.299   4.885 -0.0089  0.0908  0.1126
19564W        W35748  13.040   9.075  12.637  0.3129  0.0005  0.0768
19565W        W35749   5.018  12.455   2.154  0.1244 -0.1106  0.0159
19566W        W35750  17.139   8.811   5.344 -0.0248 -0.3105  0.4145
19567W        W35751   5.825   5.184   3.649  0.0231 -0.0726  0.2112
19568W        W35752   5.198   7.833  14.056  0.0014 -0.2109  0.1714
19569W        W35753  10.430  18.134  14.186 -0.0641  0.0673  0.0360
19570W        W35754   8.697  11.707  12.591 -0.2473  0.1444 -0.1353
19571W        W35755   4.229   0.192  16.419 -0.0047 -0.1634 -0.0858
19572W        W35756  10.392  14.511   5.403  0.3420  0.0733  0.0914
19573W        W35757  14.741   1.258   1.503  0.1001  0.0614  0.0001
19574W        W35758  10.229   1.735  14.933 -0.0724  0.0651 -0.3517
19575W        W35759  11.521  13.018   6.164 -0.0573 -0.0293  0.0966
19576W        W35760  11.559   5.171  12.791  0.0109  0.0503  0.0704
19577W        W35761  17.500  17.276   2.865  0.1428 -0.1193 -0.0369
19578W        W35762   0.422   3.297   5.106 -0.1281 -0.0760 -0.0960
19579W        W35763   9.409   3.095  14.859  0.1784  0.0380 -0.0343
19580W        W35764  12.490  13.838  15.507  0.1171  0.0856  0.0802
19581W        W35765  14.890   8.779   2.318 -0.0759 -0.2750 -0.1514
19582W        W35766  15.987  13.001   1.677 -0.2910 -0.2587 -0.0927
19583W        W35767  15.707  12.289  11.829 -0.0375  0.1197 -0.2825
19584W        W35768  15.132  14.263   4.997  0.0656 -0.0392 -0.0246
19585W        W35769  10.631   6.128  12.186 -0.2265 -0.0606  0.0337
19586W        W35770  16.965   7.896   4.570  0.1586  0.2305  0.0212
19587W        W35771  12.529   1.980  13.906 -0.0427 -0.0238 -0.1941
19588W        W35772   9.929  17.099   3.872 -0.0947 -0.0690 -0.2336
19589W        W35773   0.078  10.311   2.639  0.1217  0.2129 -0.0307
19590W        W35774   5.733  18.137   4.978  0.1769  0.2385  0.2259
19591W        W35775   7.013  18.151   0.495  0.0405  0.2504  0.0207
19592W        W35776   5.208   2.859   2.423 -0.4282  0.0188 -0.1369
19593W        W35777  12.758   2.012  15.366 -0.0101 -0.0660 -0.1750
19594W        W35778   1.756   0.823   5.310  0.0046 -0.1095  0.0727
19595W        W35779   5.159   7.018  15.051  0.0145  0.0762  0.1704
19596W        W35780   1.008  12.039  12.628 -0.0628 -0.0431 -0.0347
19597W        W35781  13.247  10.704   0.949  0.1034  0.4212 -0.0346
19598W        W35782   4.679   8.699   0.882 -0.1935  0.1694 -0.3301
19599W        W35783   1.676   1.418  16.228  0.2169 -0.2712  0.0378
19600W        W35784  16.073  10.103  14.053  0.0529 -0.1021  0.0795
19601W        W35785   7.496   3.566   5.052  0.1712 -0.2747  0.1060
19602W        W35786   1.627   1.950  13.721 -0.0019  0.3553  0.2582
19603W        W35787   0.923  15.804   3.764  0.0853 -0.2371  0.4247
19604W        W35788  17.299   4.122  14.931  0.1876  0.3226  0.2717
19605W        W35789   5.731   4.919  12.601 -0.1273 -0.0005 -0.0706
19606W        W35790   8.464  17.029  14.096 -0.1492  0.2614  0.1850
19607W        W35791  14.758   9.061   5.197 -0.0482 -0.0315 -0.1839
19608W        W35792  16.163   1.817  11.418  0.0686  0.0147 -0.1998
19609W        W35793  13.569   7.717   1.585  0.2623 -0.0015  0.0367
19610W        W35794  14.788  16.072  13.085 -0.0056 -0.1677 -0.0018
19611W        W35795   0.899  14.736   1.562 -0.3777  0.0067 -0.1337
19612W        W35796  12.385   5.254  14.950 -0.5750 -0.1156  0.2166
19613W        W35797   3.009  10.889   2.888  0.1730  0.1956  0.0826
19614W        W35798   0.825   6.921  15.453 -0.1648  0.4338  0.0117
19615W        W35799  13.275   8.142   5.088  0.1213  0.2094 -0.1785
19616W        W35800  15.157  11.330   4.220  0.1652 -0.2914 -0.1268
19617W        W35801   0.208  11.627  14.993  0.1715  0.0958  0.0128
19618W        W35802   9.022   3.535  12.661  0.0956 -0.0302  0.2649
19619W        W35803   4.039   2.610  11.936  0.1006 -0.0939 -0.3389
19620W        W35804   6.636   2.742   0.415 -0.3149 -0.0124 -0.1482
19621W        W35805  10.469  17.144   0.793 -0.2471 -0.0416 -0.1294
19622W        W35806  10.594   3.944   2.269 -0.2395 -0.2396 -0.1499
19623W        W35807   6.897   0.241   5.268 -0.3046 -0.2217  0.0575
19624W        W35808   3.055   0.475   4.733  0.0686 -0.3018 -0.0648
19625W        W35809   7.153   9.686   5.384  0.1427  0.1368 -0.0337
19626W        W35810   0.754  17.712  14.996 -0.0512  0.0213  0.0282
19627W        W35811   0.610  17.192  16.161 -0.0334 -0.0733 -0.0461
19628W        W35812   1.385   7.932  16.429 -0.0915 -0.0562 -0.0279
19629W        W35813   5.995  17.986   0.137 -0.3064  0.2556 -0.2163
19630W        W35814  10.372   3.169  12.861  0.0118 -0.1622  0.0701
19631W        W35815   9.131  11.714   3.693  0.0701 -0.1785 -0.1642
19632W        W35816   0.104   0.818  14.627  0.1375  0.0000 -0.0963
19633W        W35817   0.942  16.300   3.819  0.3381  0.0757  0.0570
19634W        W35818  11.997   1.083   2.418  0.0304  0.0038 -0.0733
19635W        W35819   6.653   4.984   4.384 -0.1213 -0.0827 -0.1564
19636W        W35820   6.806  12.965  12.749 -0.1876  0.1736 -0.0304
19637W        W35821  10.876  13.837  12.438 -0.4646 -0.3311  0.2092
19638W        W35822  13.746  12.202  11.406 -0.0812  0.1860 -0.0559
19639W        W35823   2.220  17.444  11.915  0.0515  0.4126 -0.1798
19640W        W35824  14.205   5.937  12.268  0.2289  0.0257 -0.4862
19641W        W35825  16.046   2.312   0.152  0.0500 -0.0020 -0.0557
19642W        W35826   3.365   7.933  11.956  0.1540 -0.3862  0.4315
19643W        W35827   5.774   6.801   0.996  0.1646  0.0576 -0.5041
19644W        W35828  13.477  15.896  12.893  0.2442  0.1046 -0.0329
19645W        W35829  17.624   2.444   2.895  0.1477  0.2769  0.0488
19646W        W35830   8.447   2.967  15.524 -0.0737  0.1849  0.3535
19647W        W35831   9.175  16.020  15.317  0.1911  0.0594  0.0155
19648W        W35832   7.749  14.264   0.699  0.0407  0.2650 -0.0542
19649W        W35833  14.924  17.466   2.420  0.1405  0.1080 -0.0683
19650W        W35834   9.919   0.601  15.957 -0.0658 -0.4538 -0.1725
19651W        W35835   2.667  14.036   3.087  0.0021 -0.2543  0.0424
19652W        W35836   6.473   5.447  13.209  0.0603  0.0917  0.0163
19653W        W35837   1.455   7.344  16.654  0.1399  0.2391  0.2813
19654W        W35838   2.826   6.056  13.566 -0.3591 -0.2954  0.2133
19655W        W35839  11.425  10.587  11.633 -0.0664  0.2010 -0.3938
19656W        W35840  11.146   3.759   2.022  0.1876 -0.1651  0.1597
19657W        W35841  12.538   7.739   2.316 -0.2897 -0.1985  0.1062
19658W        W35842   3.024  14.251  15.915 -0.0024 -0.0808 -0.0386
19659W        W35843   1.838  11.400  13.344 -0.1325 -0.2688 -0.0241
19660W        W35844   9.835   2.433  14.525 -0.0262  0.2037  0.2960
19661W        W35845  17.750  17.983  10.420  0.0839  0.1622  0.1860
19662W        W35846   1.328  15.428   1.169  0.1364 -0.1253  0.1772
19663W        W35847   6.353   8.903   5.046 -0.0519  0.1778  0.0702
19664W        W35848  16.377   2.015   3.356  0.1074 -0.0944 -0.2871
19665W        W35849   1.436  14.996  14.892 -0.0718 -0.0794 -0.0638
19666W        W35850  13.551   9.107   2.519  0.1354  0.0117  0.3917
19667W        W35851  17.762  13.896   3.377  0.1615 -0.2633 -0.2731
19668W        W35852  12.299  16.658  13.742  0.1999 -0.3676  0.2541
19669W        W35853   0.161   5.043   3.112  0.1528  0.2425 -0.1568
19670W        W35854  12.545   3.442   4.489  0.1528 -0.1585  0.2225
19671W        W35855  10.370  11.295   4.955  0.0218 -0.2221  0.0088
19672W        W35856  16.573  16.796  12.802 -0.0481 -0.1830 -0.1513
19673W        W35857   6.228  11.863   2.338  0.1988  0.0377 -0.3904
19674W        W35858   1.928   7.182   0.106 -0.2415  0.0394 -0.1501
19675W        W35859   1.099   6.443   2.821  0.0722  0.2917 -0.0349
19676W        W35860  13.177   3.628  16.396 -0.1202  0.3380  0.0152
19677W        W35861   0.071  15.738  12.767 -0.2707  0.2168 -0.5335
19678W        W35862   0.967   7.932   1.806 -0.0698  0.2518 -0.0626
19679W        W35863  16.875   9.835  11.382 -0.0479  0.0588  0.2166
19680W        W35864  17.144   4.940  11.299  0.3063  0.0166  0.3023
19681W        W35865   0.574  16.958  15.119 -0.1812  0.0557  0.1556
19682W        W35866  11.418   8.284   0.128 -0.0627  0.1888  0.1479
19683W        W35867  14.099   1.759  15.788 -0.2185  0.1758 -0.3203
19684W        W35868   7.007   3.377   5.624  0.1656 -0.1557 -0.0653
19685W        W35869  16.235   7.397   3.057 -0.1157 -0.1059 -0.1487
19686W        W35870  18.111   4.340  13.272 -0.0475  0.0086 -0.1870
19687W        W35871   3.334   4.589  13.389 -0.0957  0.2856  0.1143
19688W        W35872   6.477  15.410   5.737  0.3040 -0.1255 -0.1110
19689W        W35873  16.726   7.391  13.863 -0.3246 -0.1520 -0.3433
19690W        W35874   4.268   2.734   0.134 -0.1688 -0.0514 -0.1337
19691W        W35875  14.876  10.583   1.939 -0.2830  0.1241  0.2616
19692W        W35876   0.152   2.407   3.462 -0.2686 -0.1318  0.2116
19693W        W35877  11.546  17.553   2.820  0.0735  0.0962  0.0629
19694W        W35878  14.387   1.211   2.450 -0.2800 -0.3928  0.1400
19695W        W35879  16.912  12.103   3.989 -0.1129 -0.0004 -0.1457
19696W        W35880   2.081   8.227  11.946  0.3023 -0.0186  0.0746
19697W        W35881  12.311  14.717  12.682  0.0189 -0.0361  0.1784
19698W        W35882  15.864  13.101  16.643 -0.0696 -0.1224  0.3834
19699W        W35883   6.774  12.005   5.653  0.1400 -0.1116 -0.2266
19700W        W35884  14.439   2.480   3.633 -0.2145  0.2663 -0.1003
19701W        W35885  12.098  15.451   2.833 -0.2042  0.1057  0.0339
19702W        W35886   7.237   2.723  12.200  0.1989  0.3317  0.0347
19703W        W35887   1.369   6.219  13.989 -0.1268  0.1213  0.2377
19704W        W35888   4.012   2.084  11.973 -0.0729 -0.1306 -0.0539
19705W        W35889  12.305  17.094   1.973  0.0549 -0.3938 -0.1640
19706W        W35890   4.855  11.541  11.723 -0.0371 -0.0180  0.2444
19707W        W35891   8.030   0.691   0.728 -0.0309 -0.1696 -0.1484
19708W        W35892   7.913   8.198   3.856  0.0512 -0.0998 -0.1293
19709W        W35893  16.606  14.235  13.476 -0.0858 -0.1584  0.0162
19710W        W35894  12.463   0.410  15.335  0.3125 -0.0031 -0.2213
19711W        W35895   3.989  10.422  16.452 -0.2337 -0.0627 -0.0796
19712W        W35896   8.041  16.291  12.727 -0.1952  0.5186 -0.1352
19713W        W35897   0.157   2.919   2.109  0.0476  0.0806  0.2978
19714W        W35898   7.405  14.650  16.486  0.0293 -0.0077 -0.4707
19715W        W35899   4.537  16.394  13.852 -0.1508  0.3352 -0.0245
19716W        W35900   5.407  10.132   0.009 -0.2461  0.0374 -0.1420
19717W        W35901   7.936  16.852  15.652  0.0916 -0.0558 -0.1468
19718W        W35902   0.276  16.684   0.075  0.2152  0.0393  0.3536
19719W        W35903   0.953   6.337  13.670 -0.0170 -0.0084  0.3978
19720W        W35904   7.267  12.874  16.417 -0.1986  0.0638  0.3929
19721W        W35905  15.469   6.489  16.499  0.2809  0.0085  0.2120
19722W        W35906  12.006  15.672  13.831 -0.2507  0.0099 -0.2855
19723W        W35907   5.472   2.408   3.572 -0.0992  0.0788  0.1114
19724W        W35908  12.692   6.083  14.305  0.2750  0.0859  0.3282
19725W        W35909  14.618   7.633   4.894 -0.3077  0.2919  0.0985
19726W        W35910   4.966  13.188   0.495 -0.1768  0.1552 -0.0569
19727W        W35911  17.639  13.426  11.734  0.1260  0.2997  0.1325
19728W        W35912  10.486   6.010   1.671 -0.0994 -0.2804 -0.3285
19729W        W35913  17.680   5.859   0.557  0.1694  0.1601  0.1079
19730W        W35914   5.599  16.282   5.650  0.1470  0.0466 -0.1255
19731W        W35915   7.330   7.572   3.485 -0.0333  0.1179 -0.0111
19732W        W35916   6.952  15.646   4.756 -0.0919 -0.1428 -0.1023
19733W        W35917  16.046  14.236   2.802 -0.1804  0.0824 -0.2636
19734W        W35918   9.028   8.095  15.053  0.0265 -0.1011 -0.0323
19735W        W35919   1.267  14.200   3.558 -0.0092  0.2785 -0.4099
19736W        W35920   8.667   6.042  13.159  0.3064 -0.1132 -0.0975
19737W        W35921  17.345  10.942  13.245 -0.0887  0.0777  0.2171
19738W        W35922  13.136   7.300  13.160  0.1241  0.1837  0.3227
19739W        W35923   2.014   4.934   1.752 -0.1035  0.0572 -0.4289
19740W        W35924  12.365  15.952   1.270  0.1375 -0.3044  0.1566
19741W        W35925   5.406   6.032  13.655 -0.0619  0.1515 -0.2299
19742W        W35926   1.935  12.924  16.122  0.1486 -0.2770  0.0044
19743W        W35927  16.729   3.371   3.797  0.0020 -0.1046  0.0513
19744W        W35928   7.781  11.573  16.574  0.2448 -0.0235 -0.2367
19745W        W35929  12.285  11.179   1.913  0.2148  0.2042  0.0810
19746W        W35930  14.624   5.103   4.728 -0.1076 -0.0425 -0.1579
19747W        W35931   5.434   9.800   5.632  0.0314 -0.1514 -0.0605
19748W        W35932  12.659  12.788   3.277 -0.1125 -0.3099  0.2730
19749W        W35933   9.859   2.909   1.587  0.1674 -0.0367  0.0261
19750W        W35934   2.619   6.716  14.233 -0.1940 -0.3092  0.0218
19751W        W35935  17.526   6.860  11.415  0.0223 -0.1409  0.0470
19752W        W35936  10.015   5.178  14.368  0.1233  0.1875 -0.2014
19753W        W35937   4.449  12.426  12.867 -0.0641  0.2075  0.1566
19754W        W35938  17.910   5.952   3.558 -0.0007  0.0740  0.3532
19755W        W35939   2.899   2.295   2.791 -0.0267 -0.0681 -0.0028
19756W        W35940   8.171   9.266   2.437 -0.1423 -0.0096  0.2905
19757W        W35941  11.567   4.944  12.275  0.0119  0.0513  0.3284
19758W        W35942  16.687  14.910   5.084 -0.0981 -0.0198 -0.3013
19759W        W35943  12.710   9.743  13.726  0.1066 -0.5723  0.1646
19760W        W35944   6.753  14.137  16.647  0.0172 -0.0417  0.1280
19761W        W35945   1.148   6.155   2.394  0.0339  0.2634 -0.2080
19762W        W35946  12.773   9.783  14.251 -0.0764  0.2291  0.1516
19763W        W35947   3.546   4.430   0.038 -0.0818  0.2790 -0.2260
19764W        W35948   3.743   5.083  13.473  0.0156 -0.2622  0.0138
19765W        W35949  12.119  13.086   2.205  0.1445  0.3177 -0.1331
19766W        W35950  17.478   1.711  14.350  0.0665 -0.0443 -0.0310
19767W        W35951  15.966  14.987   5.815 -0.5566  0.1718 -0.1972
19768W        W35952   3.178  14.987  14.279 -0.2028  0.3476 -0.0330
19769W        W35953   9.878   3.991  15.905 -0.1642 -0.1842 -0.0806
19770W        W35954   0.752   6.173   9.967  0.0013 -0.0332  0.0252
19771W        W35955   6.566  10.187  12.710 -0.2723  0.0806 -0.0703
19772W        W35956   0.292  17.333  12.208 -0.0589  0.1013  0.4369
19773W        W35957   5.703   5.215  16.168  0.0461 -0.1999  0.1144
19774W        W35958  11.986   1.222  14.516  0.3245  0.3525  0.0492
19775W        W35959  12.885  12.121   1.965 -0.4294 -0.3159 -0.1171
19776W        W35960   3.621   2.403  16.130  0.5741 -0.2485 -0.1663
19777W        W35961   9.362  18.051  13.964  0.1761 -0.0548  0.1591
19778W        W35962   0.008   2.174   0.966 -0.1619 -0.0351  0.0091
19779W        W35963  17.135   0.285  11.604  0.1225  0.0902 -0.1009
19780W        W35964  11.871   6.639   4.846  0.0530  0.0201 -0.0892
19781W        W35965   2.322   0.856   2.767  0.2506 -0.0263 -0.1810
19782W        W35966  10.273   3.240   4.715 -0.2290 -0.1541  0.1783
19783W        W35967   1.448  15.891  11.923 -0.1670  0.3238 -0.3649
19784W        W35968  16.654   0.750   4.395 -0.1883  0.0564 -0.0078
19785W        W35969   6.370  12.771   3.403 -0.0096  0.0306  0.1205
19786W        W35970  10.049   5.392   3.700  0.1380 -0.0053  0.1451
19787W        W35971  12.986  10.383  11.037  0.1840 -0.4427  0.0989
19788W        W35972   6.121   8.916   4.597  0.1576  0.0234 -0.1454
19789W        W35973  14.757  11.422   4.520 -0.3397  0.2270  0.1930
19790W        W35974  14.043   8.630  15.090  0.0389 -0.1190 -0.1462
19791W        W35975   4.052  17.290  15.519 -0.2063 -0.2526 -0.1024
19792W        W35976  13.452   7.043  15.571 -0.1302  0.1929  0.0588
19793W        W35977  17.264   8.342   5.238 -0.0454 -0.1856  0.4298
19794W        W35978   5.019   4.974  15.134 -0.1224 -0.3745  0.1782
19795W        W35979   5.201  12.874   4.964 -0.2516 -0.1794  0.0108
19796W        W35980  13.644   2.734   2.412 -0.4259  0.1702  0.0383
19797W        W35981  11.175   4.100  12.763  0.2088  0.3904  0.1003
19798W        W35982  16.968   5.290   0.830 -0.2183 -0.2935  0.0380
19799W        W35983   1.620   8.206  12.318 -0.1057  0.1510  0.0375
19800W        W35984   8.888   7.639   0.053 -0.1889  0.0656  0.2664
19801W        W35985   6.258   9.100  10.623 -0.0713 -0.3171 -0.2646
19802W        W35986  13.992   9.235   2.816 -0.1978 -0.0955  0.1119
19803W        W35987  17.013  11.338   3.077 -0.0885 -0.2677 -0.0705
19804W        W35988  11.845   1.700  14.407 -0.2339 -0.0932  0.1893
19805W        W35989  16.379   4.683  13.381  0.2786  0.1993  0.0322
19806W        W35990  17.342   6.073   5.859  0.2695 -0.2383  0.2967
19807W        W35991   7.274  11.235   5.244 -0.1184 -0.2371 -0.0851
19808W        W35992  14.399  17.514   2.691  0.1132 -0.3414  0.2509
19809W        W35993   9.343  14.299   0.299  0.0542  0.1161 -0.1079
19810W        W35994   7.934   4.554  13.669 -0.3299  0.0998 -0.1837
19811W        W35995   0.275   2.494   4.138 -0.0045  0.0079 -0.1939
19812W        W35996  16.480  17.881   3.246 -0.0528 -0.3287 -0.0619
19813W        W35997  16.313  14.221   0.185  0.1778  0.1903 -0.1364
19814W        W35998   5.008  16.698   4.002 -0.3563 -0.0188 -0.0910
19815W        W35999   5.538  17.871   1.580  0.0239  0.1168  0.3919
19816W        W36000   7.158   9.211   2.477 -0.2338 -0.1561 -0.0234
19817W        W36001  15.184  10.210  14.436 -0.0597 -0.1243  0.1359
19818W        W36002   5.996   6.272   6.435  0.3863  0.3712  0.2792
19819W        W36003  16.339  14.897   2.620 -0.1830 -0.1329 -0.0882
19820W        W36004   5.164   0.396  16.493  0.1088 -0.2796 -0.1012
19821W        W36005   3.364  12.153  15.993 -0.0677  0.4666 -0.3872
19822W        W36006  17.289  10.517   5.286  0.2188 -0.1021 -0.1710
19823W        W36007  13.692   2.735  13.236  0.2488  0.1358  0.0059
19824W        W36008   5.634   0.685   3.233  0.0085  0.1548  0.0950
19825W        W36009  10.033   3.972   2.396  0.0459 -0.3232 -0.0430
19826W        W36010  17.777  16.452   3.985 -0.2865 -0.2354 -0.0224
19827W        W36011  13.423   9.521   0.295  0.1607 -0.0454 -0.3270
19828W        W36012  15.935   9.981   1.032 -0.0712 -0.1052 -0.0274
19829W        W36013  14.383   9.767  12.464 -0.1835  0.0694 -0.0161
19830W        W36014  16.729  10.221  12.557 -0.1141 -0.1347 -0.1311
19831W        W36015   0.937   3.009   3.615 -0.0234  0.1883  0.1255
19832W        W36016   3.982   0.483  12.743  0.0601 -0.0693 -0.0538
19833W        W36017   5.752  15.833   0.706 -0.2680  0.0075 -0.0943
19834W        W36018   8.359  12.237   0.302  0.0133  0.0210  0.0624
19835W        W36019  13.461   7.215  11.624 -0.1337 -0.1230 -0.2026
19836W        W36020   5.459  12.222  10.820 -0.0091 -0.4235 -0.0277
19837W        W36021   0.752   4.739  13.779 -0.0962  0.2844  0.0128
19838W        W36022  10.475  16.533   0.766 -0.3079 -0.1013 -0.1060
19839W        W36023  17.407   5.342  16.515  0.0367 -0.1369 -0.4028
19840W        W36024  13.092  18.059   5.078 -0.0742  0.4661  0.1769
19841W        W36025  13.600   5.582  13.471 -0.1153  0.2804  0.0237
19842W        W36026   1.652  12.345   3.415 -0.1755  0.1762  0.0388
19843W        W36027   2.515   4.331   4.321 -0.1052  0.0843 -0.1152
19844W        W36028   2.178  11.967   5.930  0.0246 -0.2418 -0.1022
19845W        W36029  16.864  16.137  14.700 -0.2239  0.2250  0.0456
19846W        W36030   8.369   2.407  13.264  0.1922  0.4386  0.0038
19847W        W36031  12.891   1.166   1.722 -0.0215  0.0204 -0.1357
19848W        W36032  17.590   7.127  13.746 -0.2036 -0.1289 -0.0076
19849W        W36033   8.764   9.489  15.755  0.1569  0.0519  0.3476
19850W        W36034  16.754  14.256   1.876 -0.0546  0.0340 -0.3563
19851W        W36035  15.590  17.819   0.795 -0.0422 -0.0652  0.0294
19852W        W36036   1.676   3.594  16.374 -0.0230  0.0551 -0.0368
19853W        W36037  11.621   8.929   5.817  0.1915 -0.1590 -0.1861
19854W        W36038  12.671   4.574   6.467  0.1475  0.0323 -0.1272
19855W        W36039  15.109  17.218   3.281  0.2342  0.0755 -0.1625
19856W        W36040  16.311   7.219   2.394  0.1114 -0.0031 -0.1217
19857W        W36041  13.202   4.490   3.549 -0.0012 -0.0121 -0.0852
19858W        W36042  13.607   8.223  13.146  0.2108 -0.0905 -0.1751
19859W        W36043   8.413  17.664   0.539  0.1780 -0.2996  0.0579
19860W        W36044   0.015   2.225   4.603  0.1225  0.1351 -0.1567
19861W        W36045  13.707   0.200   1.449 -0.0084  0.0618 -0.1577
19862W        W36046  10.289   7.162  15.363  0.2311 -0.0464  0.0299
19863W        W36047  10.586   9.314  14.234 -0.0940 -0.1454 -0.2520
19864W        W36048  11.055   9.420  11.791  0.0673 -0.0485 -0.1390
19865W        W36049  11.832   5.011   1.247 -0.0798  0.1734  0.2922
19866W        W36050   8.602  14.041  16.662  0.0992 -0.3563  0.0889
19867W        W36051  15.896   1.797  14.002  0.2682 -0.2934 -0.1112
19868W        W36052  17.179  11.591   5.144  0.1230 -0.0821 -0.0687
19869W        W36053   2.730  15.463   2.423 -0.0037  0.1035 -0.1071
19870W        W36054   3.934  14.648  14.369  0.0441  0.0024  0.1292
19871W        W36055   5.765   0.490   4.796  0.1249  0.1955 -0.0558
19872W        W36056  18.123   6.304   5.042  0.0901 -0.0790  0.2565
19873W        W36057   3.350   5.958  11.921 -0.0224 -0.0404  0.2350
19874W        W36058   7.836  16.313   5.619 -0.1602  0.0279 -0.0541
19875W        W36059  12.117  11.434  15.632 -0.0247 -0.2666 -0.1167
19876W        W36060  13.293  13.092  16.089  0.1789 -0.2788  0.0318
19877W        W36061  15.471  12.281   2.836  0.1569  0.1644  0.2124
19878W        W36062  11.967   3.145   5.481  0.0193 -0.0148  0.0404
19879W        W36063  10.281   1.963   5.595 -0.0437 -0.1027  0.1594
19880W        W36064   1.532   7.295   1.369 -0.1295  0.1853 -0.0989
19881W        W36065   0.045  11.644   2.036  0.0960  0.0183 -0.1752
19882W        W36066  17.087   4.624   4.138  0.2509 -0.0031  0.2825
19883W        W36067   0.123   4.398   2.878  0.0913 -0.2385 -0.2390
19884W        W36068   2.252   0.054   4.755 -0.0755  0.1954  0.2733
19885W        W36069  14.041   2.879  15.783  0.1571 -0.0001 -0.3967
19886W        W36070   5.514   6.259  11.758 -0.1820  0.1437 -0.0325
19887W        W36071  11.073  10.369   3.355 -0.0807  0.0739 -0.3491
19888W        W36072   8.801   6.448  12.751  0.0688  0.1898  0.1770
19889W        W36073  15.248  11.335  14.219  0.0914 -0.0374 -0.1218
19890W        W36074  11.823   3.171  15.674 -0.1476 -0.2138 -0.3142
19891W        W36075   0.362  12.342  11.928  0.0329  0.0177 -0.1965
19892W        W36076  15.845   4.418   4.989  0.3312  0.0671 -0.3967
19893W        W36077   2.292  10.832   0.901  0.0261  0.0507 -0.0052
19894W        W36078   8.412   8.140   5.105  0.1578 -0.1161 -0.0681
19895W        W36079  14.099   8.908  15.509 -0.1332 -0.1137 -0.2576
19896W        W36080  10.798  14.108   0.873  0.0258 -0.0077  0.1904
19897W        W36081   7.421   4.013   1.309 -0.0783 -0.1668  0.0715
19898W        W36082  13.189   2.526   2.341  0.1676 -0.0322  0.0805
19899W        W36083   8.372   5.208   3.100  0.0760  0.1008  0.0548
19900W        W36084   5.948   7.430   0.368 -0.0381 -0.2039  0.0552
19901W        W36085  12.395  11.449   5.549  0.0315 -0.0075  0.1670
19902W        W36086   1.608  13.849  16.491  0.0313 -0.0550 -0.2741
19903W        W36087   2.802   8.243   4.146  0.1533 -0.1647 -0.0720
19904W        W36088  13.747   9.502  11.842  0.1118 -0.2812 -0.3474
19905W        W36089   7.859  14.198  13.139  0.0904  0.1396 -0.0909
19906W        W36090  12.133  11.971  13.483  0.0909  0.0852 -0.0394
19907W        W36091  15.591  10.653   4.668 -0.1191  0.1814 -0.3000
19908W        W36092  13.408   7.355   5.334  0.0576 -0.2569  0.1582
19909W        W36093   3.387   7.504   4.579  0.1347  0.0130  0.2424
19910W        W36094  15.540   7.803  16.167  0.1257  0.3974  0.2354
19911W        W36095  11.539  11.767   2.218  0.4446 -0.1647 -0.1423
19912W        W36096  13.707  15.792  13.344  0.3148  0.2698  0.3433
19913W        W36097   6.313   1.676   4.920  0.0558  0.1947  0.1709
19914W        W36098  13.249  13.987   4.437  0.2307 -0.1380 -0.1219
19915W        W36099   4.624   4.377  11.334 -0.0429  0.1917 -0.0156
19916W        W36100   4.309  13.844   0.589  0.3829  0.2291 -0.1025
19917W        W36101   3.268   3.705   1.220 -0.2361  0.0194  0.1055
19918W        W36102   7.287   1.784   4.132  0.0918  0.1528  0.0272
19919W        W36103  16.172  16.020   3.477  0.2083  0.0750  0.0109
19920W        W36104   2.736  14.355   3.651  0.0508 -0.1306  0.1153
19921W        W36105  17.492   1.344  13.997  0.3198  0.0503  0.1109
19922W        W36106  17.377  15.995  15.028 -0.0124 -0.1023 -0.4715
19923W        W36107   4.358  16.415   2.659 -0.0654  0.0902 -0.0256
19924W        W36108  14.570   4.271   4.305 -0.1254 -0.0278 -0.0651
19925W        W36109  10.524  13.241  15.662 -0.1370 -0.1433  0.1027
19926W        W36110   1.653   4.150   0.626  0.0682  0.4308  0.0245
19927W        W36111   1.717   0.923   0.575 -0.1131  0.2314 -0.1591
19928W        W36112  18.165   5.850  12.734 -0.0099 -0.2227 -0.1164
19929W        W36113  16.463  17.935  15.485 -0.0844  0.1530 -0.0385
19930W        W36114  11.600  14.445  14.221  0.1269 -0.2041  0.2245
19931W        W36115  16.567  14.491  12.031  0.2390 -0.1460  0.0552
19932W        W36116  13.246  16.913  15.094 -0.4248 -0.1296  0.0752
19933W        W36117   1.889   6.691   2.619  0.2654  0.1150 -0.0977
19934W        W36118  11.989   8.062  12.500 -0.3161 -0.1342 -0.3476
19935W        W36119   8.827   5.664   6.203  0.1266 -0.2819  0.0653
19936W        W36120  16.530   9.639   5.074 -0.3485  0.3679  0.1137
19937W        W36121   0.414   9.931   1.971  0.2110 -0.0798 -0.0982
19938W        W36122   6.728   9.540   5.617  0.3260 -0.1863  0.1711
19939W        W36123   0.645   2.405  11.572  0.2287  0.2336  0.1414
19940W        W36124   9.858   6.672   0.957  0.0076  0.0233 -0.3901
19941W        W36125   1.881   1.148   4.670 -0.1557 -0.0096 -0.1035
19942W        W36126  12.958   8.563   2.492  0.1774 -0.0989 -0.0447
19943W        W36127   6.826  18.013   3.091 -0.3147  0.1763  0.3159
19944W        W36128  12.880   9.290   1.519 -0.1165 -0.2046  0.1546
19945W        W36129   3.973   9.281   0.918 -0.0140 -0.0363 -0.2383
19946W        W36130   1.454   0.732  14.603 -0.0242 -0.1180  0.1140
19947W        W36131   6.087  10.758   0.377 -0.2759  0.3048 -0.3442
19948W        W36132   0.189  13.195   4.342 -0.2642 -0.0187  0.0371
19949W        W36133  14.151  17.785   1.837 -0.3154 -0.1317 -0.5133
19950W        W36134   2.563  10.816  15.267  0.0754  0.1044 -0.2104
19951W        W36135   7.623   0.466  13.883 -0.0242 -0.1446 -0.1228
19952W        W36136   2.928  11.220   4.499  0.1849 -0.0829  0.1842
19953W        W36137  14.954   0.986   4.008  0.0388 -0.0141 -0.1386
19954W        W36138  15.702  15.362   0.792 -0.2689  0.2005  0.0083
19955W        W36139  17.118   3.943  10.045 -0.0811  0.5439 -0.0459
19956W        W36140  11.975  17.065   4.682 -0.1499 -0.0446 -0.1238
19957W        W36141   3.847   2.826   0.797  0.1568 -0.1543 -0.1847
19958W        W36142  15.544   2.452  14.373 -0.3745  0.0016 -0.0751
19959W        W36143  10.243   6.663   2.870  0.3163  0.0068  0.0625
19960W        W36144   7.291   5.547  14.696  0.0743  0.0122 -0.1678
19961W        W36145  11.917  12.893  16.240  0.0345 -0.1827 -0.1960
19962W        W36146   1.984   0.020   5.640  0.3045  0.0740  0.1947
19963W        W36147  17.959   6.784  11.057  0.0993  0.0475 -0.0486
19964W        W36148   6.365   1.919  11.879  0.0061 -0.0585 -0.0958
19965W        W36149  13.680  17.187  14.948  0.1875 -0.1117  0.3663
19966W        W36150   2.833  17.973  12.764  0.0553 -0.2078 -0.0592
19967W        W36151   9.699  12.133  15.516 -0.1139  0.1488 -0.4116
19968W        W36152   6.603   6.478   0.442 -0.1008  0.0178 -0.0303
19969W        W36153  10.578   8.132  15.674 -0.0893  0.0013  0.2927
19970W        W36154  13.910   4.822  14.525 -0.0690 -0.0586 -0.0414
19971W        W36155  15.336   8.512  13.801 -0.3980  0.2641  0.1112
19972W        W36156   9.548   4.428   5.517  0.0409 -0.0957  0.0147
19973W        W36157   5.266   2.210  13.274 -0.0701  0.2827 -0.0243
19974W        W36158   5.540   1.225  15.335  0.0629 -0.0837  0.0298
19975W        W36159   9.247   6.295   3.773 -0.1367 -0.1146  0.0656
19976W        W36160  11.418   0.589  13.342 -0.0418 -0.2293 -0.4404
19977W        W36161   4.579   2.624   3.405  0.1002 -0.2077  0.1934
19978W        W36162   9.349   3.339  14.337  0.1020 -0.1964 -0.1162
19979W        W36163   2.884   6.385  13.182  0.0851  0.1217 -0.5830
19980W        W36164   0.510  16.363  11.211 -0.0600  0.2630 -0.4632
19981W        W36165  17.161   2.172  14.069 -0.1905  0.0185 -0.2422
19982W        W36166  17.220   8.415  15.280  0.2965 -0.1146  0.0096
19983W        W36167   5.342   6.203  12.416  0.0987 -0.1026  0.0331
19984W        W36168   6.712  15.967  16.467  0.2840  0.0515  0.1257
19985W        W36169  10.647  15.341   3.037 -0.0181 -0.0496  0.0720
19986W        W36170  13.685   7.336  16.388 -0.0537  0.1501  0.0083
19987W        W36171   1.177  14.049  11.864  0.0349  0.0434  0.1770
19988W        W36172   8.052  13.921  15.189  0.1133  0.3544 -0.0733
19989W        W36173   8.964  16.052  12.115  0.2850 -0.3194  0.0178
19990W        W36174   3.673  17.927   2.010  0.1011  0.0689  0.0079
19991W        W36175  12.855  17.598   2.832 -0.1776 -0.0953 -0.0283
19992W        W36176  12.526  14.136  14.744 -0.2685  0.1091 -0.1569
19993W        W36177  18.032  15.677  13.711 -0.0221 -0.0388 -0.1128
19994W        W36178   3.894   2.201   1.365 -0.0129 -0.0478  0.5355
19995W        W36179   3.395   6.421  13.322  0.0095 -0.1270 -0.2836
19996W        W36180  17.864   2.161  11.688  0.0449 -0.2630 -0.1831
19997W        W36181   2.530  11.695   3.212  0.4248  0.1391  0.0123
19998W        W36182   8.992   3.784   4.139  0.1525  0.2921 -0.1553
19999W        W36183  16.380   2.675  11.120 -0.0228 -0.1139  0.1135
20000W        W36184   7.814  16.818  13.444 -0.2428  0.0607 -0.1007
20001W        W36185   1.234  12.335  16.215  0.2565  0.0297  0.1971
20002W        W36186   0.549  18.026  11.476 -0.0901  0.2684 -0.3850
20003W        W36187   5.546   1.967  14.131  0.1587  0.3046  0.0272
20004W        W36188   0.972   5.031  13.397  0.0366  0.4368 -0.0946
20005W        W36189   8.550   6.845  15.333 -0.0244 -0.0473 -0.2724
20006W        W36190  13.690   0.436   0.918  0.1707  0.0190  0.4176
20007W        W36191   6.592   6.874   0.947  0.0254 -0.2862 -0.1886
20008W        W36192  11.085   7.580   1.419  0.0581 -0.0522 -0.0854
20009W        W36193  17.184   6.390   9.438  0.1765  0.0251 -0.1042
20010W        W36194  17.395  17.635  12.760  0.0608  0.0656  0.2818
20011W        W36195   4.049  12.448   4.125 -0.0829 -0.0685  0.4686
20012W        W36196   1.121  12.510  14.609 -0.1502  0.0935 -0.0747
20013W        W36197   9.643   5.946   3.218 -0.2147 -0.2540 -0.1176
20014W        W36198  11.880  17.696   2.485  0.1679  0.0181 -0.2182
20015W        W36199  15.777  10.337  16.018  0.0734  0.2011 -0.1390
20016W        W36200   8.043   2.415   1.853  0.0336 -0.1745  0.1697
20017W        W36201  10.156  15.277   0.434  0.1749  0.0748 -0.0820
20018W        W36202  16.586  11.926  11.393 -0.0183  0.3198  0.0413
20019W        W36203   1.205  11.619   2.951 -0.0207 -0.1308  0.2311
20020W        W36204  17.625  17.904  14.190  0.1522 -0.1192  0.2822
20021W        W36205  12.915   8.055  14.801 -0.0315  0.0025  0.1931
20022W        W36206  11.538  14.128   5.863  0.0662 -0.1613 -0.0484
20023W        W36207  15.149   9.279   3.768  0.1417 -0.1796 -0.4711
20024W        W36208  12.549   4.675  12.955 -0.0082  0.0943 -0.2640
20025W        W36209   3.429   6.847  13.008  0.0960 -0.0240 -0.1201
20026W        W36210  16.525   0.183  13.419  0.2684  0.5116 -0.1107
20027W        W36211  12.652  14.737   1.786  0.0882 -0.1310 -0.3335
20028W        W36212  16.067   6.136   1.216 -0.1499  0.3071 -0.1619
20029W        W36213   8.378  11.040   5.842  0.0227 -0.0891  0.2668
20030W        W36214  11.597   2.205  13.949 -0.0386 -0.1647 -0.3264
20031W        W36215   8.225   7.226  11.272  0.0025 -0.1689  0.4596
20032W        W36216  10.277   8.427  11.342  0.3560  0.1855 -0.2115
20033W        W36217   1.953  14.940   6.383 -0.3409  0.1943  0.1521
20034W        W36218  12.339  15.580  12.241  0.1901  0.1904  0.3666
20035W        W36219   4.881  14.958   1.946  0.2136 -0.0865  0.1228
20036W        W36220  12.079   4.503   5.113 -0.1814 -0.3372 -0.0228
20037W        W36221   3.756   9.536  12.119 -0.0512  0.0228  0.1954
20038W        W36222   8.149   6.484   3.840 -0.0679 -0.0135 -0.0644
20039W        W36223  17.682   4.099  16.504  0.1344  0.1754  0.2145
20040W        W36224  16.766   1.952  13.726  0.1609 -0.1584  0.2497
20041W        W36225   8.734  15.113  13.663  0.1058 -0.1919  0.1750
20042W        W36226   9.241   0.646   2.722 -0.2228  0.1275  0.0297
20043W        W36227  17.909  14.966   6.526 -0.0426 -0.1945 -0.0127
20044W        W36228   9.791   9.685   3.686 -0.1537  0.2261  0.0535
20045W        W36229  16.578  16.986  13.639 -0.2448 -0.1195 -0.0750
20046W        W36230  12.471   1.581   0.299 -0.2470  0.4352  0.3783
20047W        W36231   3.622  17.355   0.829 -0.1884  0.2439  0.0918
20048W        W36232   0.321   8.191  11.882 -0.1230 -0.1954  0.0677
20049W        W36233   6.649  12.536   3.771 -0.0412 -0.3604 -0.0799
20050W        W36234  17.908  12.197  13.090 -0.3148  0.0429  0.3837
20051W        W36235   1.753   6.761   2.107 -0.2248  0.0380 -0.1059
20052W        W36236   1.309   1.097  15.994  0.1873 -0.1770 -0.0919
20053W        W36237  14.587  15.828  12.208  0.2417 -0.0238  0.1023
20054W        W36238  10.170   0.173  16.519 -0.1446 -0.3958  0.3692
20055W        W36239   5.603  13.089   3.057 -0.2584  0.1835  0.0294
20056W        W36240   9.978   1.195   2.505 -0.2390 -0.0277 -0.0096
20057W        W36241  15.465   9.235   0.816 -0.2294  0.2926  0.0300
20058W        W36242   9.541   4.755   5.087 -0.0340 -0.3637 -0.0883
20059W        W36243  10.473   5.540   4.061  0.0591 -0.0356  0.0468
20060W        W36244   4.661   1.747  14.470 -0.2467 -0.0031 -0.2213
20061W        W36245  15.227   9.156  14.457  0.0778  0.5163  0.1545
20062W        W36246  17.409   9.399  14.611 -0.3826  0.1302  0.3188
20063W        W36247   7.464  15.379  16.337  0.2347  0.0791  0.0032
20064W        W36248   9.123   9.460   2.263 -0.2927  0.2017 -0.0079
20065W        W36249  12.781  15.256   4.573 -0.1378  0.0961  0.3079
20066W        W36250  15.925   4.850  13.521 -0.3802 -0.4706  0.4883
20067W        W36251   8.335  18.013  12.755  0.0750 -0.1497  0.1072
20068W        W36252  15.915   1.102  16.099  0.2380  0.0848  0.2314
20069W        W36253   4.315   6.186   5.295  0.2802 -0.0034  0.0002
20070W        W36254   1.311   2.549   2.840  0.3245 -0.2327 -0.2485
20071W        W36255   7.176   2.889   3.268  0.0429 -0.0997 -0.1025
20072W        W36256  13.708   0.268  13.994  0.0911  0.0131  0.0092
20073W        W36257   5.426   8.494   5.187  0.0059  0.0660  0.1777
20074W        W36258   3.182   9.694  16.589  0.2311 -0.0744  0.2104
20075W        W36259   4.785   4.694  12.346  0.0078  0.1678 -0.0099
20076W        W36260   8.534   1.684  16.384 -0.3170  0.0546 -0.2695
20077W        W36261  16.918   3.559  16.227 -0.0307 -0.2273 -0.1303
20078W        W36262   5.240   3.320   3.481  0.0096 -0.1559  0.1836
20079W        W36263   7.953  10.071   5.953 -0.0735 -0.1008  0.2839
20080W        W36264   0.701   5.622   4.901 -0.2187  0.2344  0.0769
20081W        W36265   9.524  11.851   5.857  0.2922 -0.1950  0.1489
20082W        W36266   4.138   7.731   0.404  0.2848  0.1010  0.0530
20083W        W36267   7.188  17.704   4.888  0.0088  0.3077  0.1781
20084W        W36268   8.488   5.349   6.267 -0.0249 -0.0132  0.1643
20085W        W36269   5.761   2.359  12.447 -0.0351  0.1066  0.0292
20086W        W36270   4.378   1.482  15.718  0.0714  0.0576  0.2106
20087W        W36271  15.634  10.741   1.641  0.0338  0.0867  0.2333
20088W        W36272  11.322  15.560   5.611 -0.0268  0.1542 -0.0366
20089W        W36273   2.739   7.132  12.123 -0.0356 -0.1169 -0.0356
20090W        W36274   8.764  14.909  14.358  0.0746 -0.0123 -0.1042
20091W        W36275   0.262   8.715  14.932  0.2602  0.0549  0.1664
20092W        W36276   3.816  11.183   5.604 -0.1550 -0.0621 -0.3331
20093W        W36277  17.166   1.301  15.266 -0.0106  0.0074 -0.2518
20094W        W36278  16.880   1.526  13.359 -0.1031 -0.0155  0.2293
20095W        W36279  15.927   3.953  13.805 -0.0073 -0.0641  0.3262
20096W        W36280   6.634  14.369   0.451 -0.0314 -0.0954 -0.0960
20097W        W36281  10.261  16.515  11.716 -0.0653  0.0404  0.3065
20098W        W36282  15.708  12.568  13.203 -0.0312  0.0706  0.0245
20099W        W36283  13.816  14.183  14.369 -0.1686  0.0134 -0.0508
20100W        W36284  10.797   0.749   3.447 -0.1473  0.0689 -0.1345
20101W        W36285  16.259   9.138   5.337  0.1064  0.0799 -0.0255
20102W        W36286  11.832   3.848  14.912 -0.0547  0.0495 -0.1864
20103W        W36287   6.295   5.583   2.267 -0.1157 -0.1206 -0.0116
20104W        W36288  17.313  13.822   3.623 -0.1930 -0.0497  0.5802
20105W        W36289   8.258  11.542  12.891 -0.1210  0.1524 -0.4040
20106W        W36290   1.670  10.193  12.564  0.1249 -0.1257 -0.2879
20107W        W36291   9.427  15.809  11.908 -0.0879 -0.1629 -0.1489
20108W        W36292  10.377  13.488   0.608 -0.0948 -0.2823 -0.1431
20109W        W36293   1.095   4.805   0.176 -0.2317  0.1079 -0.0590
20110W        W36294   4.351  14.073  11.900  0.1614  0.1532 -0.1310
20111W        W36295  11.349   9.674  10.981  0.3700 -0.0820  0.1889
20112W        W36296   4.495  12.803  14.943 -0.0766  0.0814 -0.2488
20113W        W36297  15.573  11.349   0.896 -0.0710  0.1069 -0.2468
20114W        W36298   6.351   6.585  14.129 -0.1447 -0.0511 -0.0131
20115W        W36299   7.529  11.431   5.703 -0.2027 -0.1910  0.2230
20116W        W36300   2.547   3.574   0.265  0.2737 -0.3537  0.0765
20117W        W36301   6.408   4.841   0.365 -0.1231 -0.2812  0.3525
20118W        W36302   0.334  16.835  12.416 -0.0655 -0.1045 -0.2142
20119W        W36303  17.586  16.052  13.529 -0.1075  0.1231 -0.3716
20120W        W36304  15.085   1.257   1.812 -0.0786  0.2336 -0.1312
20121W        W36305   1.234  10.163   3.276 -0.1073  0.2384  0.0207
20122W        W36306   4.583  11.644  15.027  0.0364  0.0526  0.1482
20123W        W36307  10.574   6.556  13.019 -0.0615 -0.1351 -0.2031
20124W        W36308  10.327   2.720   4.520  0.0459  0.1955 -0.2044
20125W        W36309  12.596  15.173   5.480  0.0290  0.1073 -0.1678
20126W        W36310   8.157   4.560   0.603 -0.1168 -0.1893  0.4303
20127W        W36311   2.724  11.041  14.315 -0.3214  0.1384 -0.1122
20128W        W36312   4.205  17.531  14.658 -0.0274 -0.1958  0.1247
20129W        W36313  10.106  12.798   0.313  0.0684  0.3088  0.0347
20130W        W36314  16.584  17.537   1.055 -0.0283  0.0465 -0.1307
20131W        W36315  12.392   7.708   5.380  0.3498  0.2557 -0.2021
20132W        W36316  15.332  12.750  13.550 -0.2036  0.1446  0.0459
20133W        W36317   7.550  14.124   5.897  0.1582  0.2029  0.3242
20134W        W36318  12.609   2.855   2.214 -0.0998 -0.1833 -0.2168
20135W        W36319   3.304   6.139   1.648  0.3982  0.0387 -0.0141
20136W        W36320   3.410  17.581   5.583  0.1442 -0.1509  0.2428
20137W        W36321  14.421   0.284   2.773  0.0505  0.0642 -0.0261
20138W        W36322   9.821  12.993  14.334  0.0207  0.0004  0.1778
20139W        W36323  17.154   9.400   5.607 -0.1903  0.2482 -0.0103
20140W        W36324   8.095   6.144  16.376 -0.0252 -0.1165 -0.0654
20141W        W36325  13.908   1.774   1.447 -0.0630 -0.1165  0.2196
20142W        W36326  10.319   7.890  11.006  0.4541 -0.0212  0.0493
20143W        W36327   8.030   0.244   0.190 -0.3527 -0.0633 -0.1562
20144W        W36328   4.983  14.958   4.768 -0.0134 -0.1572 -0.1641
20145W        W36329  15.113  11.082  15.515  0.2302 -0.2993 -0.0990
20146W        W36330  11.882  11.504   4.407 -0.0616  0.0820  0.0275
20147W        W36331   8.742   3.682  16.446 -0.2007  0.0865  0.2566
20148W        W36332   2.905   6.992   2.447 -0.0668  0.1271  0.0963
20149W        W36333   1.979  14.550   2.118 -0.1110  0.0469 -0.0812
20150W        W36334  10.179  14.013   0.816  0.0473 -0.2229 -0.1734
20151W        W36335  16.451   0.652   5.412 -0.1360  0.2952  0.0685
20152W        W36336   3.351   0.564  16.461  0.2977 -0.0306  0.0677
20153W        W36337  15.740   3.202  12.430  0.3947  0.0159 -0.0247
20154W        W36338   2.477  10.226  16.238 -0.2388 -0.1798  0.0893
20155W        W36339   4.397   5.871  11.876 -0.0893  0.0795  0.0756
20156W        W36340   2.355   8.741  15.873 -0.0768  0.3374 -0.1319
20157W        W36341   3.792   9.617  14.057 -0.0038  0.0342 -0.0985
20158W        W36342  11.376  12.957   1.532  0.2239 -0.0809 -0.0618
20159W        W36343   1.730   9.442   3.007  0.0346 -0.0933 -0.0797
20160W        W36344   9.881   6.909   3.263 -0.1455  0.0592  0.3215
20161W        W36345  12.291   4.047   5.383 -0.0423  0.2958 -0.2876
20162W        W36346  13.733   6.020   5.591  0.1998  0.3336  0.0296
20163W        W36347   4.851  11.571   3.152  0.0529  0.1551  0.0354
20164W        W36348  11.570   5.672   4.006 -0.3929 -0.0212  0.1136
20165W        W36349  17.331  16.186   4.669  0.0339  0.0457 -0.0657
20166W        W36350  16.815   7.399   4.709  0.0448 -0.2348  0.0885
20167W        W36351   3.862  15.732   2.195  0.1530  0.1391  0.1114
20168W        W36352   6.927  13.063   1.339 -0.1004 -0.3859  0.0055
20169W        W36353   0.224  14.224   5.591 -0.0047 -0.0186  0.1099
20170W        W36354  17.153   5.529  15.148  0.2156  0.2219  0.0794
20171W        W36355   0.777   9.750   0.240 -0.3154  0.0170 -0.0076
20172W        W36356  18.082   6.523   3.242  0.1572 -0.1609 -0.0657
20173W        W36357   3.965  12.770   2.603  0.1546  0.0664  0.0719
20174W        W36358   3.831  13.541   1.341  0.2758  0.0917  0.3892
20175W        W36359   5.793  13.274   5.622 -0.0858 -0.1603  0.1171
20176W        W36360  13.436   2.555  14.868  0.0571 -0.4123 -0.0689
20177W        W36361   1.739   3.968  13.841  0.0107 -0.1101  0.0298
20178W        W36362   5.450  12.709  12.646  0.1015  0.3147 -0.3337
20179W        W36363  11.511  11.375   2.487  0.2125 -0.0691  0.0917
20180W        W36364   6.708   6.162   0.047 -0.1994 -0.0514 -0.0881
20181W        W36365  16.664  10.167  14.456 -0.1472 -0.1676 -0.1012
20182W        W36366   7.350   0.124  15.962  0.0060 -0.1607 -0.1932
20183W        W36367  11.861   2.286   4.103  0.1278  0.0420  0.2478
20184W        W36368  10.304   4.529  11.952 -0.4217  0.3312  0.0941
20185W        W36369  10.102   0.272   0.738 -0.3359 -0.4037 -0.0255
20186W        W36370   4.625   5.859   2.184  0.0035 -0.0660 -0.0068
20187W        W36371   2.199   5.236  13.777 -0.1355  0.0490 -0.0748
20188W        W36372   9.019   4.724   4.302 -0.1376  0.0030  0.2009
20189W        W36373  13.985  14.198  13.895 -0.1799  0.2879  0.3431
20190W        W36374  10.819  15.898  12.303 -0.0748 -0.0162 -0.1204
20191W        W36375  17.340   3.750  10.952 -0.0718  0.1884 -0.3031
20192W        W36376  14.980   5.182  11.822 -0.0431 -0.1707  0.3449
20193W        W36377  12.027  11.480  14.678 -0.0477 -0.0562 -0.0280
20194W        W36378   9.029   6.803   0.473 -0.0756  0.0728  0.0247
20195W        W36379  13.078  13.604  14.803 -0.0858 -0.0215  0.1866
20196W        W36380  13.837  10.942  14.988 -0.0117 -0.1034 -0.3047
20197W        W36381   9.087  11.326  13.762  0.0856 -0.0136 -0.1413
20198W        W36382  13.788  12.417  13.415  0.0154  0.1458 -0.2895
20199W        W36383  16.463  14.599  16.039  0.0593 -0.0331  0.2897
20200W        W36384  14.281   2.466   4.550 -0.0390 -0.0292  0.2092
20201W        W36385  10.952   5.755  12.453 -0.5482 -0.0783 -0.4734
20202W        W36386   8.413   8.700  12.738 -0.2589  0.0695 -0.1363
20203W        W36387   1.575   8.308   3.966  0.0499  0.4528  0.0528
20204W        W36388   3.325  10.365  12.127  0.2453 -0.3686  0.0470
20205W        W36389   5.737  16.613   4.576 -0.0312 -0.2168 -0.1716
20206W        W36390  15.705  17.142  11.515  0.1636  0.0501 -0.2469
20207W        W36391  17.212   8.032  12.417  0.3635  0.0567  0.0907
20208W        W36392  14.734   1.667   1.828  0.1016 -0.0625 -0.3841
20209W        W36393  14.429   9.157   0.127 -0.1195  0.4370  0.3266
20210W        W36394  11.905   8.202  13.642 -0.1234 -0.0631  0.0507
20211W        W36395   7.285   7.001  14.044  0.1423 -0.1636  0.2800
20212W        W36396  13.093  10.211  14.213 -0.2536  0.3482  0.3611
20213W        W36397  14.985  12.952  11.590  0.2316 -0.0465 -0.0444
20214W        W36398   2.997   7.518  11.949  0.0991 -0.2642 -0.0750
20215W        W36399  17.538  12.466  12.901 -0.1851 -0.4656 -0.0065
20216W        W36400   5.861   1.852   2.697 -0.1927 -0.1627  0.2689
20217W        W36401   0.418  11.983  14.707 -0.4016  0.0725  0.1453
20218W        W36402  13.837   8.569  13.484 -0.1119  0.2375 -0.0282
20219W        W36403  15.654  14.202   4.704  0.1400  0.1068  0.0060
20220W        W36404  16.945   8.826  14.760  0.1063 -0.0555  0.0412
20221W        W36405  14.014  11.989   2.867  0.1618  0.0153  0.2357
20222W        W36406  15.620  17.828   1.317  0.0557  0.0631 -0.2074
20223W        W36407   8.537  12.190  15.546  0.0139 -0.1881 -0.1683
20224W        W36408  12.944  10.101  13.409  0.0800  0.1084  0.2178
20225W        W36409  13.788   6.147   1.704 -0.3871 -0.2029  0.1342
20226W        W36410  15.229   6.839  14.246 -0.2859  0.0588  0.1839
20227W        W36411  17.134   1.953  16.371  0.0052  0.0440 -0.0222
20228W        W36412   5.568  11.762   3.151  0.0879 -0.0011 -0.0592
20229W        W36413   0.109   4.583  16.555  0.2333 -0.1562  0.0999
20230W        W36414   0.016   8.581   4.970  0.0893 -0.0050  0.0638
20231W        W36415   9.566  10.648  13.578  0.0085  0.0333  0.0544
20232W        W36416   0.100  16.479   5.927  0.0966  0.0863 -0.0630
20233W        W36417  14.792   7.267  15.883 -0.3177  0.0172  0.2250
20234W        W36418  17.709   9.296   4.567 -0.2189 -0.1258  0.4169
20235W        W36419   7.655   2.001   6.115  0.1301 -0.3281  0.3575
20236W        W36420  18.078   0.448   3.422 -0.0334 -0.0187 -0.0864
20237W        W36421   2.700   4.215  16.125 -0.2022  0.3179  0.0746
20238W        W36422  12.693   1.919  16.672  0.0872  0.1132 -0.1084
20239W        W36423   8.677  11.679   1.041  0.2380 -0.0780  0.0989
20240W        W36424  14.837  16.864  14.684  0.2173  0.1650 -0.1080
20241W        W36425  10.776   4.119  14.424 -0.2383 -0.1869  0.5688
20242W        W36426  10.424  12.071   3.648 -0.2090 -0.1250 -0.1167
20243W        W36427   9.407  10.342  11.468  0.2136  0.3212 -0.1972
20244W        W36428   2.420   5.705   3.551 -0.3182  0.0974  0.1292
20245W        W36429  15.469  16.242   0.177 -0.0628  0.2866 -0.3642
20246W        W36430   4.536  12.072   4.955  0.0526  0.1393  0.0151
20247W        W36431   5.200  13.930  14.089  0.0394 -0.2478  0.1589
20248W        W36432   7.333   0.896  14.296  0.0993 -0.0401 -0.0608
20249W        W36433   9.876  10.260   0.496  0.0008  0.1223 -0.2785
20250W        W36434  13.404   4.070   0.752 -0.1313  0.2875  0.0567
20251W        W36435  17.095  13.301   0.620 -0.0727  0.0326 -0.0398
20252W        W36436   8.278   0.602   2.578 -0.0073 -0.0145 -0.0246
20253W        W36437   1.710   8.115  12.803  0.1060  0.2023 -0.1898
20254W        W36438   1.350  13.752   2.005  0.0104 -0.1589  0.1635
20255W        W36439  15.429   2.439  11.208  0.1760  0.4681  0.3449
20256W        W36440  16.376   3.543  11.809  0.0960 -0.0612  0.0743
20257W        W36441  17.782   8.073   3.428 -0.0834 -0.1566 -0.1762
20258W        W36442  10.403   1.856   0.734 -0.2792 -0.0510 -0.0076
20259W        W36443   8.749  14.659  13.904  0.0101  0.0720  0.1314
20260W        W36444   4.318   0.522   3.997  0.1762  0.0467 -0.0054
20261W        W36445   6.753   9.329  15.525  0.0263  0.1921 -0.0512
20262W        W36446  10.415  11.616   2.450 -0.1317 -0.0887 -0.0051
20263W        W36447  16.011  15.739   2.844 -0.0686  0.0301  0.3491
20264W        W36448  10.218  11.252  16.428  0.0171  0.1724 -0.2335
20265W        W36449   0.828  14.732   2.833 -0.0134  0.3692  0.2388
20266W        W36450  17.927  15.968   0.242 -0.2075 -0.1696  0.0727
20267W        W36451  16.493   8.280  15.370  0.1360 -0.4590 -0.0074
20268W        W36452   9.870   1.189  16.535 -0.0000 -0.2407  0.4310
20269W        W36453   5.361   7.862  13.562 -0.0694  0.1511 -0.1739
20270W        W36454   8.643  10.763  12.458  0.1067 -0.2160 -0.1025
20271W        W36455   0.002   2.150  13.006 -0.0407  0.0104 -0.1066
20272W        W36456   2.760  12.538   4.286  0.0579 -0.0830  0.0112
20273W        W36457   1.039  11.521  16.581 -0.2862 -0.0090  0.1880
20274W        W36458   3.656   1.718   4.997  0.3291  0.0100 -0.2412
20275W        W36459   5.591   7.969  16.652  0.0401  0.1283  0.1948
20276W        W36460  16.376   0.376   4.048  0.2317  0.2730 -0.3770
20277W        W36461   9.608   6.324  11.947  0.0009  0.1441  0.0445
20278W        W36462   6.837   4.632  12.141 -0.2150  0.2166 -0.0408
20279W        W36463  12.708   5.588   4.487 -0.0573 -0.2853  0.1539
20280W        W36464   0.211  17.844   3.321  0.0411  0.0475  0.0345
20281W        W36465   2.091   0.646   3.210 -0.2098  0.2198  0.0231
20282W        W36466  16.016   4.949   0.816 -0.1209 -0.3466  0.1199
20283W        W36467   6.522  12.615  12.938  0.0049 -0.1124  0.2763
20284W        W36468   7.562   5.390   5.602  0.0238  0.1935 -0.3723
20285W        W36469  17.692  11.501  12.480 -0.1525 -0.0418  0.2794
20286W        W36470   1.818   1.160  13.992  0.0183  0.2388 -0.0110
20287W        W36471  14.030   6.492   2.122  0.1373  0.0834 -0.4559
20288W        W36472   2.341   3.513  12.896  0.0045 -0.2480  0.0712
20289W        W36473   5.878  16.171   4.329  0.0620 -0.0984  0.0581
20290W        W36474   1.215   9.315   2.753 -0.0178  0.0224 -0.2704
20291W        W36475   9.385  17.272   1.498 -0.0293  0.1770 -0.1474
20292W        W36476   1.835   0.016   1.033 -0.0669  0.1647 -0.4081
20293W        W36477  16.248  15.467   1.657  0.0367  0.2009 -0.0474
20294W        W36478  12.270  16.582   0.543 -0.1298 -0.1329  0.0496
20295W        W36479  11.230   9.717  14.870 -0.1214  0.3258  0.0229
20296W        W36480  11.172   8.988   4.923 -0.1614 -0.2329  0.1807
20297W        W36481   1.974  11.734  16.332 -0.2283  0.2662 -0.3085
20298W        W36482   5.996   1.285   5.085 -0.2333  0.0163 -0.2517
20299W        W36483  15.220   0.913   5.394 -0.2006 -0.1873  0.1705
20300W        W36484   9.412   0.460  15.913  0.0549  0.3555 -0.1646
20301W        W36485   7.090  17.072   3.642  0.1068  0.0873 -0.3549
20302W        W36486   0.294  11.317   4.696  0.0035 -0.1920 -0.0290
20303W        W36487  17.872  16.857  15.644 -0.0844 -0.1097 -0.0738
20304W        W36488   1.486   3.737  12.983  0.1435  0.0178 -0.0231
20305W        W36489  16.243  14.610  14.473  0.1599 -0.0038  0.2955
20306W        W36490  15.074   4.287  12.369 -0.3782 -0.1541 -0.2388
20307W        W36491   6.921   5.540  15.971 -0.0474  0.1194 -0.2116
20308W        W36492  14.241   0.308  12.125 -0.3274  0.1065  0.0865
20309W        W36493   1.705  11.364   2.660  0.2140  0.0111 -0.1916
20310W        W36494   7.974  15.214   0.888 -0.1789 -0.0632 -0.1293
20311W        W36495   6.429  18.068   5.610 -0.2656  0.3382  0.1008
20312W        W36496   1.858   3.910  15.440 -0.1132  0.2330  0.4571
20313W        W36497   6.691  14.141  14.893 -0.2521 -0.1288  0.1994
20314W        W36498  16.057  16.833  11.214 -0.0009  0.1510 -0.1020
20315W        W36499  15.160   4.585   0.438 -0.2979 -0.2251 -0.0371
20316W        W36500   5.191  14.674   4.391  0.0398  0.0371 -0.0218
20317W        W36501   1.036   7.162   4.612  0.0979  0.2292 -0.0666
20318W        W36502  13.874   3.495   2.298 -0.0249 -0.1513 -0.0431
20319W        W36503  17.221  16.939  11.739 -0.1257 -0.0634  0.0488
20320W        W36504  15.523   8.669  10.928 -0.0420 -0.2515  0.0015
20321W        W36505   6.460   3.376  15.830  0.1513 -0.1533  0.1602
20322W        W36506  14.705   5.899   3.577  0.0794 -0.0720  0.1913
20323W        W36507  17.265   9.694   1.858 -0.1294  0.0533  0.1030
20324W        W36508  15.469   2.789  13.205 -0.1877  0.1509 -0.0050
20325W        W36509   5.999   7.383   4.641 -0.0331 -0.1842  0.0902
20326W        W36510  17.242  15.133   4.779  0.1561 -0.0139 -0.0393
20327W        W36511  17.560   5.292  16.063 -0.1122  0.0038 -0.1153
20328W        W36512   3.871   7.537  12.395 -0.1317  0.2332 -0.4095
20329W        W36513  17.363   1.774   1.157 -0.2470 -0.2201 -0.0452
20330W        W36514   2.135  11.180   0.335  0.0928 -0.0965 -0.0401
20331W        W36515   7.839  10.752  13.138 -0.0141 -0.0586  0.2368
20332W        W36516  16.066   7.115  14.706 -0.3011 -0.2218  0.1524
20333W        W36517  10.522   7.693   2.290  0.2200  0.1788  0.2764
20334W        W36518   2.928  13.588  15.500  0.2329  0.3927 -0.1049
20335W        W36519  17.079   6.483  16.268 -0.3045 -0.1678  0.1840
20336W        W36520   9.970   9.766  13.624 -0.3639  0.1390 -0.2611
20337W        W36521   5.719   8.258  14.399 -0.0376  0.0663 -0.3398
20338W        W36522   1.840  13.349  12.723  0.1695  0.2487  0.4675
20339W        W36523   8.652  17.711  15.212  0.2809  0.0582  0.1557
20340W        W36524   4.529  12.727   4.244  0.4076 -0.1871 -0.0201
20341W        W36525  11.206   2.348  13.599  0.3707 -0.2443  0.1660
20342W        W36526   1.095  16.909  13.034  0.0371  0.0610 -0.1295
20343W        W36527   4.956  15.914   1.448 -0.0524 -0.0008  0.0382
20344W        W36528   5.517   9.712   0.894  0.0585 -0.2152  0.1958
20345W        W36529  14.121   9.815  11.744 -0.0366 -0.1008  0.0630
20346W        W36530  13.145  10.505  16.320 -0.3454 -0.0381 -0.2355
20347W        W36531   0.402   3.561   3.371 -0.2851 -0.1354  0.0121
20348W        W36532  14.640  15.703  15.761 -0.3817 -0.0891 -0.0773
20349W        W36533   7.627   8.879  14.426  0.0070  0.0047 -0.1427
20350W        W36534  10.607   8.468  16.413 -0.0784 -0.0713 -0.2392
20351W        W36535   7.918   9.517  14.153 -0.0265 -0.2257  0.0508
20352W        W36536   3.413  12.785  14.317  0.5841  0.2196  0.2651
20353W        W36537   8.557  10.995   0.732 -0.1640 -0.1257 -0.2243
20354W        W36538  10.620  13.427   4.705 -0.1909 -0.1389 -0.1234
20355W        W36539  14.978   6.579  10.815  0.0880 -0.0572  0.0921
20356W        W36540   1.871   4.780   4.730  0.0894 -0.1045 -0.4085
20357W        W36541   9.704   2.014   6.340  0.0764  0.0451 -0.3631
20358W        W36542  15.056  12.486   2.427 -0.0892  0.3322  0.0946
20359W        W36543   5.062   5.404  13.824 -0.0904 -0.0484 -0.0857
20360W        W36544  12.793  11.814  14.806  0.1463  0.0346  0.0923
20361W        W36545   8.294  13.308  14.620  0.1102 -0.0736  0.0336
20362W        W36546   9.623   7.844   4.828 -0.1953  0.0837  0.1012
20363W        W36547  12.715  11.158   2.142  0.0551 -0.3082  0.3983
20364W        W36548  11.230   5.599   2.116 -0.2454 -0.2214  0.0032
20365W        W36549   0.655  16.783  11.987 -0.1011 -0.1699  0.0523
20366W        W36550  11.225   2.718  14.010 -0.2513  0.2413 -0.0210
20367W        W36551  15.956   6.476   0.021 -0.3023 -0.0150  0.0166
20368W        W36552  11.192  15.166  15.310  0.0476 -0.1549  0.3783
20369W        W36553  10.300   2.112  13.706 -0.1069 -0.1014  0.0255
20370W        W36554  15.831  15.745  13.226 -0.1851  0.1369  0.0885
20371W        W36555   9.335  15.437  15.162  0.1041  0.0482 -0.1240
20372W        W36556  12.793   0.227  14.891 -0.1284  0.0610 -0.1389
20373W        W36557  17.942   5.352   1.985 -0.1443 -0.1108  0.1729
20374W        W36558  12.808  12.983   2.844 -0.2928 -0.2544 -0.3478
20375W        W36559   6.506  13.910  15.788  0.3117  0.0934 -0.1398
20376W        W36560   6.949  16.285   2.974 -0.0834 -0.3345 -0.0164
20377W        W36561   5.183   8.138   2.485  0.1160  0.1834 -0.0364
20378W        W36562   4.422   1.621  13.615 -0.0668 -0.4405  0.0072
20379W        W36563  17.794   6.695   0.222 -0.1215  0.0983 -0.1078
20380W        W36564   2.775  16.206  11.960 -0.1684 -0.1124 -0.2300
20381W        W36565   2.451  14.816   3.574 -0.0002 -0.1355  0.1333
20382W        W36566   1.634  11.747  14.481 -0.1676  0.0699 -0.1159
20383W        W36567  16.432  15.035  14.058 -0.1045 -0.0312 -0.1090
20384W        W36568  15.722   3.709   1.728 -0.1448 -0.0227  0.0298
20385W        W36569   0.892   0.821  13.760  0.2989 -0.0954 -0.1481
20386W        W36570   6.416   1.406   0.526  0.0793 -0.1326 -0.1621
20387W        W36571  18.151   2.172  14.290  0.2719 -0.3266  0.4224
20388W        W36572   2.381  17.057   4.156  0.0134  0.3014 -0.0170
20389W        W36573   6.091   1.554  13.384  0.2144 -0.2591 -0.0561
20390W        W36574  12.459  15.507  11.715  0.2023  0.2106  0.0337
20391W        W36575   1.651   6.018   2.328 -0.0708  0.1208  0.0863
20392W        W36576   2.094   7.239   2.671 -0.1963  0.0619 -0.0512
20393W        W36577  11.506   7.995   0.867 -0.0544 -0.0950 -0.3950
20394W        W36578  10.970   0.950  15.802  0.4045  0.1966 -0.0144
20395W        W36579  13.545  15.764   3.171 -0.1739 -0.1096 -0.0586
20396W        W36580  10.087  17.041  14.711 -0.0717 -0.1200  0.1873
20397W        W36581  12.432  17.509  11.764  0.3313  0.1596  0.0551
20398W        W36582   8.076  12.461   4.299  0.1724  0.1614  0.0571
20399W        W36583   4.716  17.135   4.801  0.2455  0.0737  0.2367
20400W        W36584  14.024  13.223  11.497 -0.2203  0.0779 -0.2064
20401W        W36585   7.964   1.519   3.631  0.0094 -0.0639  0.1431
20402W        W36586   1.697   6.514  15.265 -0.1792 -0.1662  0.1008
20403W        W36587  11.114  11.526   2.199 -0.2601  0.1193 -0.1369
20404W        W36588   7.082   6.661  11.855  0.0375 -0.0545 -0.2548
20405W        W36589  11.531  18.024   2.374 -0.1346  0.1931  0.0396
20406W        W36590   6.247  16.283   0.111  0.3093  0.1797  0.3282
20407W        W36591   5.462  16.166  13.770 -0.1128  0.1557 -0.1076
20408W        W36592   1.168   8.918  14.565  0.2147  0.3414 -0.2995
20409W        W36593  12.861  16.880  14.775  0.0403  0.1254  0.1457
20410W        W36594  14.267   3.982  11.253 -0.0965  0.1426  0.0193
20411W        W36595  17.368   9.797  13.888  0.0783 -0.0219 -0.1669
20412W        W36596   3.359   9.986  16.220  0.2366  0.1656  0.0361
20413W        W36597   5.196   8.750   2.652  0.1113 -0.1520 -0.2053
20414W        W36598   3.674   2.521  14.457  0.0649 -0.0288 -0.0284
20415W        W36599  18.150  17.669   0.338  0.0339 -0.1755 -0.0803
20416W        W36600  12.536   7.196  11.830 -0.3229  0.0409 -0.0005
20417W        W36601   0.813   8.041  11.801  0.1638  0.2129 -0.2420
20418W        W36602   7.551  14.735  15.116 -0.2005 -0.1503 -0.0372
20419W        W36603   1.656   4.636   1.990  0.1885 -0.1958  0.0837
20420W        W36604   2.788  14.957   0.185 -0.2068  0.2374  0.2843
20421W        W36605  17.172   1.064   3.668 -0.0028 -0.0472  0.0922
20422W        W36606   3.622  12.610   4.474  0.0250 -0.0492  0.1081
20423W        W36607   6.471   0.275  11.939  0.0411  0.1178 -0.2516
20424W        W36608   5.786  10.877  15.102 -0.1810 -0.0764 -0.2594
20425W        W36609  13.766  16.839   5.738  0.2122  0.4727  0.0016
20426W        W36610   0.734   3.306   0.193  0.1998 -0.1666  0.1553
20427W        W36611   9.580  16.802   4.663  0.1572 -0.0814  0.2028
20428W        W36612  13.200  14.424   2.513  0.1175 -0.1156 -0.2382
20429W        W36613   8.716   6.815   3.139  0.1157  0.0437  0.0867
20430W        W36614  12.437  14.469  14.400  0.0689 -0.0396  0.0661
20431W        W36615  16.348   5.164  13.448  0.0670  0.1312  0.4528
20432W        W36616   2.062   1.829  10.306  0.4084 -0.0113  0.0175
20433W        W36617  13.555   0.786  15.792  0.0371  0.3447  0.1772
20434W        W36618   5.675   3.224  15.107  0.0794 -0.0862  0.2809
20435W        W36619   6.230  13.591  13.087 -0.1398 -0.3346  0.0738
20436W        W36620   2.336  11.030  14.889  0.1795  0.2398 -0.1342
20437W        W36621   1.528  17.998  15.980 -0.3954 -0.2218  0.1119
20438W        W36622  13.605  17.622   3.427  0.1939  0.0216 -0.0500
20439W        W36623   0.208   6.798   4.969  0.0278 -0.1171  0.2828
20440W        W36624  12.668   0.635   3.426 -0.1170 -0.0169  0.1641
20441W        W36625  10.978  13.210  12.501  0.0914  0.0180 -0.0456
20442W        W36626  15.908  10.059  15.291  0.1096 -0.1277  0.0514
20443W        W36627   6.941   1.289  12.833 -0.1968  0.3268  0.0339
20444W        W36628   8.299   4.539   2.833 -0.1386  0.1003 -0.1193
20445W        W36629   1.563   4.054  13.351 -0.0544  0.0494 -0.0567
20446W        W36630  15.953   4.574   3.827 -0.1951  0.0670 -0.2986
20447W        W36631   7.907   8.329   3.339  0.2350 -0.0282 -0.1736
20448W        W36632   4.526   4.434   2.157  0.3169 -0.1345 -0.0241
20449W        W36633   7.970   5.000   0.210 -0.2852  0.2811  0.1973
20450W        W36634  10.402   7.925  13.816 -0.1342  0.0322 -0.2093
20451W        W36635   1.443  12.990  16.192 -0.1217  0.3820  0.1380
20452W        W36636   8.412   7.148  13.743 -0.0697  0.0643 -0.1783
20453W        W36637  17.064   9.029   1.470  0.0362 -0.4114  0.2131
20454W        W36638  13.811   9.212  15.717  0.0844 -0.1581 -0.1876
20455W        W36639   0.053   5.334   5.869 -0.0330  0.1227  0.1687
20456W        W36640   7.982   2.385   4.675 -0.0964 -0.1840 -0.0644
20457W        W36641   2.097   4.679  11.033 -0.0841  0.1007  0.1896
20458W        W36642   5.880  15.801  11.714 -0.1097 -0.2708 -0.3088
20459W        W36643  11.590   7.572   3.171  0.3310 -0.0389  0.0942
20460W        W36644   7.618  13.344  12.878  0.3773 -0.1183 -0.2988
20461W        W36645   0.384   0.365  15.174  0.1245 -0.1500  0.1480
20462W        W36646   5.813  12.486   3.950  0.1237  0.1118  0.0861
20463W        W36647  12.538   1.692  13.486  0.0236  0.1500 -0.2497
20464W        W36648  10.052   0.903  15.556 -0.2749  0.0514 -0.3891
20465W        W36649  17.347   4.567  13.557  0.0505  0.1292 -0.1977
20466W        W36650   1.668   5.938  15.516 -0.0927 -0.1923 -0.0095
20467W        W36651  12.146  15.546  15.522  0.0159  0.0821 -0.0149
20468W        W36652   1.745   7.329   3.877  0.2181 -0.1631  0.1119
20469W        W36653  15.655   9.689   0.746 -0.0231 -0.0984 -0.0299
20470W        W36654  14.771  10.993   5.615 -0.0150 -0.1027 -0.1385
20471W        W36655  16.664   5.893  11.871 -0.4419 -0.2589 -0.0575
20472W        W36656  10.781  13.388   6.137 -0.1949 -0.3372  0.0036
20473W        W36657   1.953   5.302  14.811 -0.1973  0.0244 -0.1491
20474W        W36658  11.551  10.581   2.665  0.0159 -0.1986  0.0147
20475W        W36659   9.745  15.855  13.844  0.0642  0.2039  0.0203
20476W        W36660  11.417   4.165   2.753  0.1359 -0.1564  0.1167
20477W        W36661  11.155   1.284   0.466 -0.1290 -0.1137 -0.0329
20478W        W36662   2.567  11.759  16.243  0.2094  0.2386 -0.1164
20479W        W36663  14.465  11.604   3.681 -0.0711  0.1172 -0.3003
20480W        W36664   5.892   3.593  14.769  0.0432 -0.3544 -0.1157
20481W        W36665  11.119  17.738   2.633 -0.1438 -0.0861  0.3539
20482W        W36666   5.375  15.482   5.821 -0.0638  0.0308  0.0240
20483W        W36667   8.225  13.810  13.048 -0.3151 -0.2318  0.3279
20484W        W36668   6.159  10.619  14.916 -0.1738 -0.2545 -0.0564
20485W        W36669   3.079  12.593   4.711 -0.0503  0.2268 -0.1002
20486W        W36670   4.172   7.014   3.581 -0.1699 -0.0670  0.1504
20487W        W36671   3.097  13.455   4.800  0.1721 -0.0643  0.2544
20488W        W36672   2.440   5.172  11.876  0.0269  0.0360 -0.2392
20489W        W36673   4.347   3.222   0.241 -0.1137 -0.0053  0.0365
20490W        W36674   0.780   6.602  11.096 -0.1109 -0.0707  0.0140
20491W        W36675   0.812   7.127  13.170 -0.3391  0.0739  0.1626
20492W        W36676   0.549   1.427   1.555  0.3356  0.1368  0.0280
20493W        W36677   3.949  17.460  14.010 -0.0378 -0.0570 -0.0632
20494W        W36678  14.778  12.416   4.505  0.0905  0.0194  0.1050
20495W        W36679   9.520  18.113  16.673  0.1300  0.0282  0.3650
20496W        W36680  11.905   0.831   4.922  0.1823  0.1053  0.0143
20497W        W36681  15.128  16.627   3.468  0.0811  0.0896  0.3646
20498W        W36682  11.317  13.254  12.897 -0.2294  0.0249  0.2448
20499W        W36683   8.672  16.009  15.530 -0.2153 -0.0011 -0.0995
20500W        W36684   0.408   7.349   2.548  0.2329  0.3146 -0.3659
20501W        W36685   3.052  15.306   3.317  0.0902 -0.1500  0.2066
20502W        W36686   6.954   3.493  15.225  0.1600 -0.0047  0.2297
20503W        W36687   1.727   0.628  12.131 -0.1250  0.1544 -0.2468
20504W        W36688  10.258  17.897   2.402 -0.1623  0.0921 -0.2379
20505W        W36689   9.767   8.435  16.093  0.0599  0.0046 -0.0701
20506W        W36690  16.600  11.674  12.494 -0.3785  0.1603  0.0492
20507W        W36691   5.589  16.586  13.992 -0.1616 -0.2550 -0.0551
20508W        W36692  16.681  16.903   0.517 -0.0845 -0.0123 -0.0943
20509W        W36693   7.788   8.074  11.778  0.1496 -0.0652 -0.0561
20510W        W36694   6.649  10.074   5.555  0.3468  0.0483  0.2769
20511W        W36695  17.844  16.680  16.178  0.0161 -0.0503  0.1770
20512W        W36696   3.121  16.192  14.988  0.0049  0.1922  0.1945
20513W        W36697  10.622  11.716  15.119 -0.2912  0.0054  0.0392
20514W        W36698   9.920   4.641  12.308 -0.2479 -0.0764  0.0911
20515W        W36699   3.113   5.259  15.005  0.2754 -0.0652  0.1124
20516W        W36700   1.318  11.546   5.530 -0.2341  0.0765  0.0126
20517W        W36701  13.265  12.665   6.408 -0.0297 -0.3454 -0.2357
20518W        W36702  13.080   4.512  14.533 -0.3266  0.1570  0.0470
20519W        W36703  14.771  17.025   2.507  0.2246  0.3382  0.0627
20520W        W36704   3.434  14.460  13.039 -0.0431  0.1614  0.0599
20521W        W36705   8.117   0.582  16.476  0.1187  0.2595  0.2068
20522W        W36706   3.366   1.607  13.584  0.3031  0.1369  0.2067
20523W        W36707   8.599   5.152  12.112  0.1164  0.0346  0.2278
20524W        W36708   0.399   1.681  16.367 -0.0317  0.2220  0.0030
20525W        W36709   9.197   6.827   2.941 -0.1125  0.0708  0.0759
20526W        W36710  11.189   4.651   0.853  0.1284  0.2057 -0.0175
20527W        W36711   2.154   8.270   5.522 -0.3175  0.2172 -0.3556
20528W        W36712   6.088   2.267   5.071 -0.2109 -0.3793  0.0488
20529W        W36713   1.710  14.925   2.744 -0.0307 -0.1011  0.0772
20530W        W36714  12.247   9.608  11.657  0.0617  0.2237 -0.1346
20531W        W36715   2.669   8.547   3.660  0.1778 -0.2918 -0.0322
20532W        W36716  11.482  15.908  14.129  0.3713  0.0760  0.1051
20533W        W36717   6.408   6.722   3.063 -0.2467  0.1137  0.2029
20534W        W36718   3.272   0.629  15.798 -0.1585 -0.1726  0.1626
20535W        W36719  17.856  11.992  12.395 -0.0532 -0.4482  0.0423
20536W        W36720   4.511  12.674   4.737 -0.0899  0.0136 -0.2373
20537W        W36721  16.870  10.350  11.561  0.5298 -0.1580  0.2575
20538W        W36722   6.346  15.701   5.397  0.0478 -0.1986 -0.2980
20539W        W36723   0.499   7.678   2.877 -0.2590  0.1745 -0.2656
20540W        W36724   6.184   5.887  15.428  0.0523 -0.0380  0.1208
20541W        W36725  18.149   6.678  12.586  0.2145  0.1816 -0.0888
20542W        W36726  15.647   3.021  11.144 -0.1456 -0.5947  0.1351
20543W        W36727   8.706   1.160  13.354 -0.5335 -0.1493 -0.1645
20544W        W36728  11.975   9.700   0.084 -0.1813  0.2985 -0.1730
20545W        W36729   5.750  11.017   0.148  0.1748 -0.2387  0.0503
20546W        W36730   3.966   4.235   3.994  0.0104 -0.2394  0.0682
20547W        W36731  14.142  15.980   5.281  0.0550 -0.1818  0.1293
20548W        W36732  11.978  10.824   0.235  0.1963  0.1049  0.1440
20549W        W36733  17.439   0.052   0.479 -0.2147 -0.0065 -0.0197
20550W        W36734  12.482  13.374  14.054 -0.2136  0.4186  0.0671
20551W        W36735  13.999   0.538   4.036 -0.2183 -0.1184  0.0070
20552W        W36736   0.196   9.479   1.266  0.2185  0.0467 -0.0479
20553W        W36737  16.615   9.897  12.153 -0.1844  0.1410 -0.2340
20554W        W36738  12.188  10.574   5.826 -0.1932  0.2829 -0.1081
20555W        W36739  12.185   3.017   4.535 -0.0710 -0.0554  0.3045
20556W        W36740   2.708  17.443   3.899  0.1505  0.0035 -0.0127
20557W        W36741  11.878  15.633  12.469  0.0757  0.0383 -0.3072
20558W        W36742   0.538   2.128   4.347  0.2279 -0.0125 -0.2487
20559W        W36743   4.639  10.934   1.646  0.1369  0.1572 -0.0924
20560W        W36744   1.128   8.431  15.009 -0.0250  0.3188  0.1338
20561W        W36745  12.043  17.799  13.383  0.1334 -0.1241  0.1401
20562W        W36746  13.708  10.701  13.179 -0.0941  0.1887  0.0145
20563W        W36747   8.434   8.639   1.528 -0.0053 -0.2338  0.4634
20564W        W36748  14.319   4.411  16.637  0.1260  0.1029 -0.0694
20565W        W36749   4.055   6.102   1.119 -0.2378  0.2601 -0.1961
20566W        W36750   5.010   0.571  11.817 -0.1537  0.1068 -0.3372
20567W        W36751  14.374   4.874   0.719  0.0852 -0.2200  0.2586
20568W        W36752  16.695   1.085  15.295  0.4281  0.0638  0.0437
20569W        W36753  10.202  11.156   2.880 -0.0740  0.1377 -0.0388
20570W        W36754  16.977   2.575   2.860 -0.1414  0.1024  0.2598
20571W        W36755   2.652  11.916   5.851  0.0252 -0.1950  0.0695
20572W        W36756   6.195   9.896   5.480 -0.1110  0.0519 -0.1395
20573W        W36757  17.505  16.502  15.793  0.4591  0.2137  0.0407
20574W        W36758  14.565   5.082  12.065  0.0390  0.2606 -0.2604
20575W        W36759  12.985  15.668   4.824  0.4836 -0.1169  0.3271
20576W        W36760  10.235  14.294  16.654  0.3159 -0.0796  0.1227
20577W        W36761   8.082   8.861  15.695 -0.1088  0.0794 -0.1743
20578W        W36762  14.191  10.165   5.354 -0.0058  0.1178  0.2619
20579W        W36763  17.306  11.682   1.127 -0.1821 -0.0403  0.2352
20580W        W36764  10.517   0.756  13.471  0.1050  0.0608 -0.1095
20581W        W36765  11.682  15.315   0.895 -0.1006 -0.3020  0.2094
20582W        W36766  12.643  12.734  13.358  0.0171 -0.2053 -0.0548
20583W        W36767   3.602  16.858  13.872  0.0340  0.1063 -0.0081
20584W        W36768   9.137  10.304   3.600  0.2181 -0.1535  0.2519
20585W        W36769   7.300  16.087   4.694 -0.4319  0.1266 -0.1744
20586W        W36770  11.210  12.585  12.680  0.6634 -0.1180  0.0217
20587W        W36771   1.041  12.375   0.051  0.0865  0.1229 -0.1707
20588W        W36772   3.676   6.662  16.683 -0.0688 -0.2222 -0.0898
20589W        W36773   4.794  13.126  14.726  0.2145 -0.2056 -0.2003
20590W        W36774  15.971   8.723  12.866  0.0662  0.1744  0.1404
20591W        W36775   5.985   2.106  16.567 -0.1185 -0.2372  0.4053
20592W        W36776   1.098   8.744   2.685 -0.5329 -0.0656  0.1780
20593W        W36777   7.436   5.897  11.989  0.1689 -0.0001  0.0535
20594W        W36778   0.616   4.587   0.123 -0.0640  0.0779 -0.1740
20595W        W36779  14.449   8.272   2.954  0.0173  0.0923  0.3454
20596W        W36780  14.657  14.726  14.107 -0.3690 -0.0567  0.1610
20597W        W36781  14.689   8.247   0.321  0.0113 -0.1902  0.0058
20598W        W36782  10.634   3.961  12.560  0.2845 -0.0344  0.1374
20599W        W36783   2.000   3.436  15.118 -0.1956 -0.5338  0.1289
20600W        W36784  11.435   2.428   4.383 -0.2506  0.4149 -0.1621
20601W        W36785  11.704   2.716  14.683  0.0260  0.1069 -0.1469
20602W        W36786  10.013  11.349   0.621  0.1403 -0.1188  0.1075
20603W        W36787   1.137  18.010   2.368 -0.0486 -0.2866  0.1039
20604W        W36788  14.304  14.391  14.287  0.0568  0.0145 -0.2243
20605W        W36789   0.289  13.204   3.775 -0.3650 -0.0532 -0.1082
20606W        W36790  12.249  16.259   3.139 -0.1750  0.0799  0.4244
20607W        W36791  13.236  10.165   3.544  0.2532  0.0964  0.2237
20608W        W36792   2.700  17.411  13.664  0.2497  0.0594  0.0717
20609W        W36793   9.965   2.381   5.512 -0.2504 -0.1129 -0.0952
20610W        W36794   4.958   7.521  13.746 -0.3402  0.1433  0.0935
20611W        W36795  14.568   0.850  16.046 -0.0460  0.1470 -0.1777
20612W        W36796  15.226   5.754  13.666  0.2233 -0.2429 -0.2519
20613W        W36797  13.519  15.267   4.350  0.0151 -0.0866  0.2768
20614W        W36798  11.497  16.081   4.955 -0.0473  0.0430 -0.0670
20615W        W36799   5.319  10.392   4.060  0.2348  0.2419  0.2692
20616W        W36800  15.743  15.849   1.655  0.1403 -0.1541  0.2085
20617W        W36801  18.115  10.237   0.383 -0.1560  0.0003  0.1114
20618W        W36802  15.149   8.334  16.266 -0.2365  0.0694  0.1816
20619W        W36803  17.182   0.613   0.012 -0.1830  0.0989  0.0698
20620W        W36804   2.123  15.769   4.517  0.4647 -0.1165 -0.1359
20621W        W36805   3.630   3.093  13.196  0.0485  0.3818 -0.1289
20622W        W36806  10.242   3.037   3.432 -0.0377  0.0323 -0.1067
20623W        W36807   6.857  16.738   1.184  0.1109  0.0286  0.0636
20624W        W36808   0.657  12.831  14.707 -0.2422  0.1673 -0.1980
20625W        W36809  12.699  10.980   1.683  0.0245 -0.0645 -0.1418
20626W        W36810   0.069   7.350  15.551 -0.0284  0.2877 -0.0666
20627W        W36811  14.994   0.306   0.345 -0.2981  0.0326 -0.0509
20628W        W36812  11.349  17.131   2.568 -0.2570  0.0127 -0.0198
20629W        W36813  12.801   2.824  12.907  0.2056 -0.0614  0.2197
20630W        W36814   8.376  13.274  15.682  0.0809  0.0579 -0.0091
20631W        W36815   4.676   1.041  12.601 -0.0405  0.3556  0.1428
20632W        W36816   2.746  17.247   4.358 -0.1742  0.0034 -0.1043
20633W        W36817   7.209   7.114   1.604 -0.2548 -0.1937 -0.1808
20634W        W36818   6.871  13.706   5.262 -0.1187 -0.1062  0.1147
20635W        W36819   0.731  17.183   4.712 -0.2834  0.3299  0.0611
20636W        W36820   4.078   9.112   2.830  0.0779 -0.3614  0.2582
20637W        W36821   2.627  11.878   0.176  0.0798 -0.2641 -0.4481
20638W        W36822   6.910   5.084  12.523 -0.1640  0.0260  0.0242
20639W        W36823  15.975  13.814   0.263  0.1117 -0.0924 -0.2255
20640W        W36824  13.926   5.305   1.449 -0.0120  0.0166 -0.0624
20641W        W36825   2.298  14.775   1.759  0.0912  0.0715  0.1266
20642W        W36826   1.998   6.670   5.068 -0.2504  0.2092  0.2278
20643W        W36827  12.757  14.628   3.901 -0.0690  0.0886 -0.0166
20644W        W36828   8.901  11.304   2.750  0.0999  0.1384  0.1286
20645W        W36829   2.804  10.920  15.782  0.0178  0.1891  0.0315
20646W        W36830   0.638  11.611  15.650  0.1921 -0.0559  0.3954
20647W        W36831   1.360  14.204  13.672 -0.1826  0.3009  0.0637
20648W        W36832   8.074  13.883   3.551 -0.0523  0.2481 -0.1418
20649W        W36833  11.863  16.945  13.689 -0.3044  0.0048 -0.1987
20650W        W36834  12.544   3.734   5.867 -0.1814  0.2120 -0.3822
20651W        W36835  16.900  16.501  14.344  0.1529  0.2453  0.1026
20652W        W36836   3.930   1.155  14.744 -0.0455 -0.0090 -0.0593
20653W        W36837  14.919   2.172   3.935 -0.3078  0.1342 -0.1279
20654W        W36838  16.365   4.642   0.640 -0.2460 -0.1148 -0.1312
20655W        W36839  10.720   6.470  16.460  0.2917  0.0650  0.0267
20656W        W36840  14.428  17.509  11.669 -0.1239 -0.3739  0.1019
20657W        W36841  12.562   1.028   4.080  0.1757  0.2637 -0.1834
20658W        W36842   8.946  15.548   4.747  0.1702 -0.0157  0.1986
20659W        W36843   3.324  15.945  13.989 -0.2316  0.0989  0.0092
20660W        W36844  15.797   6.243   4.400  0.1304 -0.2134 -0.3470
20661W        W36845  16.740   6.325  10.627 -0.3586  0.0801 -0.1432
20662W        W36846  10.223   0.264  15.043  0.1020  0.1463 -0.1797
20663W        W36847   7.921  11.189  12.773  0.5152 -0.2376 -0.1888
20664W        W36848  14.246  17.659   4.912 -0.2646  0.0341  0.3435
20665W        W36849  10.113  17.365  11.391  0.0247 -0.2017  0.1923
20666W        W36850   0.243   9.636  12.999 -0.2125 -0.1264 -0.0832
20667W        W36851  11.235  14.117   2.288 -0.2676  0.1651  0.4496
20668W        W36852  14.952  14.584   4.525  0.0621 -0.0378 -0.2801
20669W        W36853  11.255   6.664  13.451 -0.4921  0.0432 -0.0795
20670W        W36854   8.799   9.515   6.391  0.0125 -0.1726  0.2100
20671W        W36855  14.511   0.104  14.268  0.1255  0.0824  0.0309
20672W        W36856  10.102  11.832  13.039 -0.1943 -0.0116 -0.2317
20673W        W36857   0.868   0.926   5.212  0.1519 -0.1440  0.1716
20674W        W36858   1.487   3.765  15.804 -0.0254 -0.3233  0.2143
20675W        W36859  14.121   7.538   3.168 -0.2670  0.2063  0.1544
20676W        W36860  16.514  13.716  15.659  0.0695 -0.1615 -0.1972
20677W        W36861   3.348  16.905  14.316 -0.0900  0.0388  0.0870
20678W        W36862  13.454  17.063  16.604 -0.0958 -0.0785 -0.0014
20679W        W36863   6.502   2.421   2.699  0.1987 -0.2557  0.0603
20680W        W36864  11.543   2.672   2.628 -0.4211  0.0958 -0.2196
20681W        W36865   8.471   4.323  12.451 -0.1183 -0.1260 -0.0988
20682W        W36866  13.374   0.305   0.404 -0.1667 -0.1226  0.0062
20683W        W36867   5.349  16.568   2.178 -0.1429  0.0038  0.1589
20684W        W36868  12.470  12.834   5.626  0.1198 -0.1095  0.0309
20685W        W36869  11.878  17.677  14.566  0.2960  0.0659 -0.0271
20686W        W36870   8.608   0.421  15.138  0.4738 -0.2525  0.0907
20687W        W36871   9.362  18.017  14.469 -0.1206  0.1741 -0.3258
20688W        W36872  15.495   2.943  11.636 -0.0988 -0.1611  0.0477
20689W        W36873  13.948   4.942  15.477  0.0383 -0.1726 -0.0198
20690W        W36874   3.250   6.510  11.012  0.0820 -0.0673 -0.0206
20691W        W36875   9.243  17.286  14.673 -0.0273  0.0668 -0.1246
20692W        W36876   8.590   8.845   0.740  0.1018 -0.2036 -0.0813
20693W        W36877  11.372  13.353  14.374 -0.2119 -0.0005  0.0670
20694W        W36878   6.770   2.898  11.888 -0.1066  0.2626 -0.2456
20695W        W36879  12.123  12.082   0.027 -0.2352  0.0525 -0.1137
20696W        W36880   3.630   4.609  14.749  0.2064  0.0380  0.0689
20697W        W36881  16.560   7.231   1.969  0.1150 -0.1536 -0.0519
20698W        W36882   9.349  15.449   2.562  0.2272  0.2180  0.3901
20699W        W36883   7.386  11.332  16.198  0.0285 -0.1030  0.0248
20700W        W36884  17.550   2.571  16.493 -0.1236  0.1277  0.0994
20701W        W36885  13.920  14.675  14.525 -0.0819  0.0451 -0.1328
20702W        W36886   9.224   0.086   4.241  0.0591 -0.0695  0.2013
20703W        W36887  11.637  14.578   3.432 -0.1422  0.1090  0.1408
20704W        W36888   6.821   0.550   1.632 -0.1278 -0.3053  0.0528
20705W        W36889   8.828   1.241   1.651 -0.0819 -0.0148  0.2629
20706W        W36890  15.837   2.178   4.353  0.0332 -0.2262  0.1040
20707W        W36891  14.401   4.421  11.546 -0.0574  0.5228 -0.1356
20708W        W36892   7.647   3.905  16.178 -0.0940  0.1947 -0.0382
20709W        W36893   5.249  14.994   1.033 -0.3453  0.2398 -0.1388
20710W        W36894  12.591  10.443   3.828  0.1943 -0.0033  0.0350
20711W        W36895  16.976  14.902   3.542  0.2399  0.1508 -0.0261
20712W        W36896   6.046   9.764   4.953  0.1369 -0.0801  0.0105
20713W        W36897  14.290   3.486   6.047 -0.1693  0.0202  0.2738
20714W        W36898  12.733  11.757   3.334 -0.2966  0.4397 -0.0839
20715W        W36899  16.773   4.277   4.748 -0.1421 -0.1360 -0.0614
20716W        W36900   9.524  10.766   0.888  0.1609  0.2752  0.0701
20717W        W36901   6.745  17.781  12.541  0.1121 -0.1823  0.1765
20718W        W36902  17.411   2.271   1.941 -0.3533 -0.0189 -0.2130
20719W        W36903  17.255  15.358   3.868  0.0065  0.0663 -0.1879
20720W        W36904   5.688  12.611   0.630 -0.0725 -0.0905  0.0880
20721W        W36905  12.908   1.579  12.082  0.0693  0.0796  0.1642
20722W        W36906   7.107  11.642   5.827 -0.0817 -0.0319 -0.1870
20723W        W36907  16.596   1.693   2.264  0.2982 -0.1148 -0.4355
20724W        W36908  15.774  17.468  13.793 -0.1071  0.0253 -0.1916
20725W        W36909   6.857  10.656  13.577 -0.4569  0.1019 -0.6110
20726W        W36910   9.013  16.499  11.328  0.0878 -0.0356 -0.0443
20727W        W36911   2.052  15.022   4.849  0.1824 -0.0342  0.1501
20728W        W36912   8.095   8.081  15.233  0.0434  0.2523  0.0490
20729W        W36913   2.422  12.027  13.854 -0.0454  0.2090  0.0812
20730W        W36914  17.444   6.684  11.886  0.1631 -0.6529 -0.1185
20731W        W36915  15.197   6.838  12.915 -0.2442 -0.2394  0.1972
20732W        W36916   2.482   0.962  16.616 -0.5110  0.2318 -0.1434
20733W        W36917   5.136  15.899  16.385 -0.1601 -0.2176 -0.2445
20734W        W36918   4.931   1.277   5.199 -0.0286  0.0424 -0.1153
20735W        W36919   6.967   9.975  14.053  0.0319  0.2365  0.0025
20736W        W36920  15.978  10.394   5.799  0.0768 -0.0926  0.0046
20737W        W36921  13.216  15.574  15.314 -0.1704  0.0266  0.0824
20738W        W36922  10.996  17.430  14.723 -0.1032  0.2479  0.0102
20739W        W36923  14.680  16.457   0.060 -0.5184 -0.2227 -0.0606
20740W        W36924  16.661  10.739  15.016 -0.0606  0.2322 -0.0825
20741W        W36925   7.495   6.741  14.910  0.1131 -0.0447  0.1056
20742W        W36926   9.994   4.275   0.059  0.0440 -0.0150  0.2331
20743W        W36927  16.627   7.800   4.958 -0.0119 -0.2227 -0.0076
20744W        W36928  17.380   7.501   4.543 -0.3694 -0.1839 -0.2464
20745W        W36929  15.176   8.906   4.646  0.0215  0.0196 -0.0622
20746W        W36930  10.087  17.382  13.068  0.3213  0.3439 -0.0703
20747W        W36931   8.680  15.982   1.671 -0.2147  0.5782  0.2843
20748W        W36932  16.365  10.717   5.073  0.1556  0.1850 -0.3130
20749W        W36933   1.488   1.837   3.639  0.2611 -0.1469 -0.4162
20750W        W36934  10.921   7.343   0.159 -0.0235  0.3377  0.1563
20751W        W36935  12.611  10.175   1.808  0.1405  0.2891 -0.0254
20752W        W36936   6.665   6.424   1.230 -0.1560 -0.2094 -0.0630
20753W        W36937  15.606  15.742   1.151  0.2727 -0.0508 -0.1564
20754W        W36938  16.330   6.261   3.695  0.1543  0.0721  0.0177
20755W        W36939  11.165  14.647  14.538  0.0528  0.1514  0.1277
20756W        W36940  14.440  11.575  14.460 -0.0578 -0.1103 -0.1697
20757W        W36941  16.597  12.461  12.222 -0.3318 -0.0911  0.0047
20758W        W36942   4.548   6.333   4.876  0.2954  0.0174 -0.4852
20759W        W36943   2.229  12.412   1.558  0.0868 -0.4003  0.2017
20760W        W36944  10.740  17.385   1.883  0.2761  0.0073 -0.0306
20761W        W36945   6.992   8.303   0.974 -0.0256  0.1889  0.2109
20762W        W36946  15.146  16.889  12.187  0.0855 -0.1205 -0.0732
20763W        W36947   0.194  16.992   2.916  0.0156 -0.3040  0.0575
20764W        W36948  10.192  14.130   1.726  0.0359 -0.2030 -0.0140
20765W        W36949   1.268   2.243  12.056  0.2485  0.1405  0.1744
20766W        W36950   0.458   6.584  12.446 -0.2745  0.2890  0.0938
20767W        W36951   9.931   5.136  12.208  0.2756 -0.0835 -0.1027
20768W        W36952  16.251  14.624   1.873 -0.5695  0.1120 -0.2653
20769W        W36953   3.851   0.531  16.658  0.2115 -0.0408 -0.2000
20770W        W36954  14.096   9.121   1.717  0.2438 -0.1014 -0.1590
20771W        W36955  10.314   8.196  13.383  0.0416 -0.2003 -0.0150
20772W        W36956   6.478  16.165  16.054 -0.2439 -0.1747 -0.1786
20773W        W36957   6.343   4.196  16.198 -0.3164 -0.4741  0.0902
20774W        W36958   1.415  15.214  12.348  0.0082 -0.2756  0.0760
20775W        W36959  15.515  11.785   5.669  0.0877  0.2200 -0.1095
20776W        W36960   4.009  13.845   4.328 -0.0275  0.0744  0.1216
20777W        W36961  18.123   0.058  15.017 -0.0936 -0.1522  0.0172
20778W        W36962  17.572  14.999  11.681  0.0992 -0.0866  0.1716
20779W        W36963   7.297   0.104   0.980  0.0987 -0.1967 -0.1355
20780W        W36964   4.792  13.628  16.571 -0.0985  0.1091  0.2604
20781W        W36965  16.503   8.054   0.350  0.0914  0.1747  0.1184
20782W        W36966  13.261  14.442  16.253 -0.2070 -0.0469 -0.2493
20783W        W36967   5.774  16.063   3.036  0.1855 -0.0788 -0.1399
20784W        W36968   5.127   6.230  14.028  0.1547 -0.2291  0.1239
20785W        W36969   3.707   7.895   3.185  0.0027 -0.2639  0.1011
20786W        W36970   6.318   0.978   0.653  0.2884  0.2217 -0.0209
20787W        W36971   8.761  11.075   3.216  0.3531  0.0938 -0.1496
20788W        W36972   2.157   6.543  14.134  0.2198  0.0861  0.2504
20789W        W36973   6.138  10.126  13.790 -0.1466  0.3788 -0.2473
20790W        W36974   1.838  11.894  14.985 -0.1026 -0.1719  0.1000
20791W        W36975   1.044  15.045  14.352 -0.4659  0.2028  0.3500
20792W        W36976   5.490   6.316  13.171  0.0414  0.1791 -0.1511
20793W        W36977   7.304   7.213   3.098 -0.1173  0.0816  0.2157
20794W        W36978  17.033  16.234   1.539  0.0904 -0.2025 -0.1257
20795W        W36979   0.215  15.110   2.937 -0.1830  0.2175  0.4299
20796W        W36980   9.610   4.562  16.528 -0.3848  0.2903 -0.0713
20797W        W36981  15.555  10.822  11.760  0.0187 -0.0364  0.0052
20798W        W36982   2.833  12.301  16.242 -0.0462  0.1572 -0.1166
20799W        W36983  13.293  11.976   1.009 -0.2373 -0.1056  0.1136
20800W        W36984  13.786  13.121   0.597  0.0808  0.1055  0.0597
20801W        W36985   4.451   4.218  12.539  0.1411 -0.0190 -0.0336
20802W        W36986   9.065   6.910  14.029  0.0684 -0.2433  0.1466
20803W        W36987   6.540   2.473  11.694 -0.1118 -0.2059 -0.2737
20804W        W36988   6.887  17.677  14.541 -0.2899  0.4030  0.0206
20805W        W36989  12.959   5.721   0.574 -0.3541 -0.1805 -0.0727
20806W        W36990  14.699   1.617   2.333  0.2776  0.0006 -0.0611
20807W        W36991  11.021   0.062   1.214  0.0965 -0.2473  0.0240
20808W        W36992   1.697   2.051  10.873  0.0277 -0.0470 -0.1263
20809W        W36993  16.523   0.195   4.598 -0.2658 -0.0867 -0.1626
20810W        W36994   5.541   7.737   4.818  0.1060  0.2443  0.2745
20811W        W36995   4.979   9.476   0.370  0.0451  0.1004 -0.2070
20812W        W36996  13.387   7.696  13.977 -0.0133  0.2415 -0.0546
20813W        W36997  10.130   0.628   2.026 -0.0066 -0.3460  0.2297
20814W        W36998  13.253   0.970  13.147  0.0036 -0.0322  0.3691
20815W        W36999   5.306   3.184   0.456 -0.1750  0.2405  0.1622
20816W        W37000   3.753   9.312   4.167  0.0346  0.1906 -0.1372
20817W        W37001   3.869   5.374   3.379  0.2032  0.2735  0.0812
20818W        W37002   5.756   9.085  13.835  0.0407 -0.1931  0.0683
20819W        W37003  17.567   6.826  14.786  0.2535  0.0413  0.0974
20820W        W37004   6.442  16.176  13.567  0.3550  0.0410  0.1720
20821W        W37005  13.066   0.847   2.075  0.0754 -0.2427  0.0198
20822W        W37006  12.716   6.001  12.514  0.1801 -0.2907  0.1260
20823W        W37007  15.157   9.762   3.524  0.0097  0.1963 -0.1313
20824W        W37008   1.319  14.814  13.068  0.1656 -0.2362 -0.2654
20825W        W37009   0.637  10.276   5.268 -0.0964 -0.0015 -0.0528
20826W        W37010  17.384   4.930  14.617 -0.1707  0.1670  0.1144
20827W        W37011   3.486   9.134   0.126 -0.0071 -0.0918 -0.0116
20828W        W37012   4.316  11.054   2.090  0.4565 -0.2731  0.1648
20829W        W37013   1.108  15.656  13.743  0.1122 -0.1512 -0.0196
20830W        W37014  16.696  11.130  16.524  0.0099 -0.0847 -0.1957
20831W        W37015  10.151   6.418   3.933  0.1441  0.0660 -0.2532
20832W        W37016   2.804  11.413   5.959  0.0249  0.0095 -0.2482
20833W        W37017   7.762  10.969   5.086 -0.1407  0.0853 -0.0522
20834W        W37018  15.157   7.669  12.228  0.3025  0.2030  0.1211
20835W        W37019  17.028  16.506   1.903  0.0634  0.1121 -0.1970
20836W        W37020   5.170  17.482  15.291  0.1305 -0.0044  0.1593
20837W        W37021   2.930   0.592   6.195  0.1335  0.0020 -0.2222
20838W        W37022   4.474   5.332   1.862 -0.4212  0.1611 -0.3296
20839W        W37023   0.028   4.122  11.561 -0.0868 -0.0431 -0.1573
20840W        W37024   8.110   8.509  16.572 -0.2476  0.2738  0.3128
20841W        W37025  18.027   3.071   5.215 -0.0224  0.1095 -0.0109
20842W        W37026  14.015   2.910  15.064 -0.3313 -0.1482 -0.3780
20843W        W37027  11.199  12.488  15.052 -0.0878  0.2488  0.2026
20844W        W37028   8.764   1.188  16.219  0.1096 -0.4796  0.0879
20845W        W37029  10.359  11.787   4.221  0.0961  0.0563 -0.0351
20846W        W37030  14.495  16.985  12.957  0.1528  0.2365 -0.0677
20847W        W37031  16.337   2.084  14.440 -0.2466  0.1525  0.5145
20848W        W37032  10.718   4.097   1.074 -0.1694 -0.0273 -0.0706
20849W        W37033   1.164   7.150   2.294 -0.1719  0.0956  0.0633
20850W        W37034   4.908   5.012  10.228 -0.1908  0.0377 -0.0261
20851W        W37035   1.675  14.890  13.773  0.0307  0.1628 -0.0655
20852W        W37036  10.348   5.449  13.564  0.0433  0.0758  0.1631
20853W        W37037  14.945   2.025   2.215  0.0665 -0.2338 -0.0062
20854W        W37038   1.020   5.514  12.610 -0.1712 -0.1065 -0.0432
20855W        W37039  12.589   8.197   0.837  0.1453 -0.0037  0.1938
20856W        W37040  14.376   1.600   5.972  0.0732  0.0056 -0.3935
20857W        W37041   4.439   4.338   1.661 -0.2193  0.2179 -0.0134
20858W        W37042   7.260  18.053   3.590 -0.0624 -0.0612 -0.2616
20859W        W37043   0.608  10.306  14.045  0.1981 -0.1593 -0.0708
20860W        W37044   1.763   0.228  12.825  0.1222  0.0771 -0.0772
20861W        W37045   1.389  13.632  15.575  0.1935  0.2539 -0.2073
20862W        W37046   7.180  11.374  14.886  0.0006 -0.0631 -0.1231
20863W        W37047   4.204   3.656  14.658 -0.2830 -0.1420  0.1073
20864W        W37048  15.642  13.432  15.547  0.0955 -0.2845 -0.2557
20865W        W37049  11.782   7.737   3.642 -0.0072 -0.3696  0.1164
20866W        W37050  17.665   8.981  13.338 -0.2584 -0.2192  0.1874
20867W        W37051  16.672  11.523   5.403  0.0455  0.0965 -0.1400
20868W        W37052  15.369  13.997  12.787  0.1120  0.1298 -0.1585
20869W        W37053   0.921   0.463   0.069  0.3941  0.2410 -0.0276
20870W        W37054   9.569  12.942  15.070 -0.1110 -0.3241 -0.2281
20871W        W37055  12.244   6.018  13.988 -0.1633  0.1928 -0.0057
20872W        W37056   7.287   9.710   3.341 -0.1646  0.1696 -0.0439
20873W        W37057   1.552   5.325  12.147 -0.1559  0.2205 -0.1094
20874W        W37058  15.306  15.175   5.043 -0.3157 -0.2553  0.0722
20875W        W37059  16.569  15.554   3.845  0.2424 -0.4106 -0.2467
20876W        W37060   2.415  11.190  15.636 -0.2338  0.1989  0.1035
20877W        W37061   7.482   2.120  15.345 -0.3457  0.1670 -0.0514
20878W        W37062   4.946  17.764  11.531  0.0456  0.0396  0.0668
20879W        W37063   4.269   4.795   5.119  0.1481  0.5340 -0.0515
20880W        W37064   6.058  10.984   2.731  0.0111  0.0112  0.1064
20881W        W37065  12.213  12.671   0.084 -0.0685  0.3249  0.0345
20882W        W37066   5.090  16.412   4.819  0.1875 -0.2835 -0.0987
20883W        W37067  14.924  17.319  16.201 -0.0023  0.0722  0.1221
20884W        W37068   5.014   3.189  16.556 -0.0656 -0.1887 -0.3158
20885W        W37069   6.813  12.693  15.065  0.0251  0.1963  0.2379
20886W        W37070   7.095  16.756   0.087 -0.0370  0.3533 -0.0082
20887W        W37071   6.934  10.683   2.477 -0.0654 -0.2036 -0.0049
20888W        W37072  13.587  12.766   3.643 -0.0435  0.1188 -0.0278
20889W        W37073  14.593   3.780  13.731  0.1029 -0.0769 -0.0980
20890W        W37074   4.401  12.801  14.131 -0.2206 -0.1525 -0.1365
20891W        W37075  15.456  10.414   0.649  0.0314  0.1834  0.1309
20892W        W37076   9.240  15.531  12.343  0.0045 -0.2699  0.2673
20893W        W37077  14.772   6.525   5.356  0.0407  0.2242  0.1736
20894W        W37078  15.949   3.894  12.581 -0.1826  0.2041 -0.5454
20895W        W37079   1.078  12.292  12.142 -0.0383  0.0468 -0.1258
20896W        W37080  13.843   3.517   2.851 -0.1216 -0.2568 -0.1546
20897W        W37081   4.679   0.755   0.735 -0.0022  0.0640  0.0287
20898W        W37082  13.554  11.679   0.537 -0.0225 -0.1042 -0.2452
20899W        W37083   8.314  11.823  16.278 -0.1632  0.0570  0.0643
20900W        W37084  14.195  10.443   4.376 -0.0429 -0.0519 -0.1444
20901W        W37085  17.725  17.377  15.536 -0.0176 -0.1379 -0.0975
20902W        W37086  15.171  11.873  13.272 -0.0542 -0.0837  0.2873
20903W        W37087   5.472  10.163  16.141  0.1752  0.0807  0.1397
20904W        W37088  15.312   4.875   9.230  0.0462  0.4958 -0.1678
20905W        W37089  14.768   3.100   9.944  0.2249 -0.1350 -0.0999
20906W        W37090  12.448  17.942  14.539 -0.0224  0.0116 -0.4288
20907W        W37091   2.360   8.640   4.181  0.2024 -0.0698  0.2046
20908W        W37092  13.129  16.794  13.898  0.1926 -0.0337  0.2206
20909W        W37093  12.193   7.979   1.857  0.0547 -0.0891  0.2275
20910W        W37094  17.673  13.674  13.748 -0.0126 -0.1037  0.0392
20911W        W37095  13.965  11.577   5.127  0.2247  0.1792 -0.2743
20912W        W37096  15.455   7.733  11.074 -0.0420 -0.0456  0.3493
20913W        W37097  13.964  11.090   5.040 -0.0515  0.0133 -0.0128
20914W        W37098  17.192   1.456   2.163  0.1961 -0.0649 -0.0953
20915W        W37099  10.007  10.965   1.706 -0.2189 -0.2074  0.2737
20916W        W37100   3.489   0.761  13.378 -0.1009 -0.0043 -0.0748
20917W        W37101   0.091   7.249  13.005  0.1502 -0.1539  0.1133
20918W        W37102  11.896   6.462  16.569  0.1624  0.4527  0.0749
20919W        W37103   1.421  12.148   5.622  0.2983  0.0906  0.0272
20920W        W37104   7.442  13.797   0.682 -0.0031 -0.0977 -0.2630
20921W        W37105   7.463   7.798  12.774 -0.0063  0.2483  0.2270
20922W        W37106   6.096  14.441   0.465  0.2185  0.1792  0.4409
20923W        W37107  15.160   4.550  15.679 -0.2134  0.2215  0.6866
20924W        W37108   9.986  16.540   2.477 -0.1338  0.0542  0.0354
20925W        W37109  14.958  16.213  15.868  0.1463 -0.2062 -0.1770
20926W        W37110  10.083  13.706  15.638 -0.0631 -0.1102 -0.0005
20927W        W37111  11.417   8.133  12.653 -0.0511  0.1483  0.2889
20928W        W37112   9.251   9.476  15.487  0.0809  0.1947 -0.1265
20929W        W37113   0.671  10.488  11.881  0.2318 -0.1558 -0.2051
20930W        W37114   1.981  12.216  13.642  0.2729 -0.2618  0.4072
20931W        W37115  16.389   1.202  15.671 -0.3846  0.0311 -0.0083
20932W        W37116   1.556  14.872   2.254 -0.0399 -0.0960  0.0596
20933W        W37117  15.560   7.716   4.261  0.2155  0.2234  0.3552
20934W        W37118   0.437   8.837   1.930  0.1052 -0.2088  0.2380
20935W        W37119  14.320   8.334  12.476 -0.1095  0.1242 -0.1205
20936W        W37120   4.737   7.752  12.334  0.3706  0.2524 -0.0227
20937W        W37121   9.156  16.581   0.927 -0.1157  0.0975  0.1487
20938W        W37122   2.811  13.439   2.411  0.0550  0.2861 -0.0099
20939W        W37123   0.540   4.569  10.215 -0.2772 -0.0200 -0.0419
20940W        W37124   4.411  12.814   2.317 -0.1008 -0.2883 -0.1352
20941W        W37125   0.352  14.229  14.306  0.2190  0.0129  0.0560
20942W        W37126  15.009   5.697  16.433  0.0871  0.4798 -0.0689
20943W        W37127  10.594  11.284   5.866 -0.0014  0.0192  0.1364
20944W        W37128  10.675   5.186   3.689  0.0759 -0.1422 -0.0502
20945W        W37129   5.962  10.970   5.036  0.1256  0.1227 -0.1914
20946W        W37130   1.798   8.651  12.170  0.0496  0.0574  0.1666
20947W        W37131   3.634  10.812  11.953  0.0620 -0.1159  0.1883
20948W        W37132   3.887  15.724  15.393  0.0194 -0.0626  0.0622
20949W        W37133   1.097  16.723   0.559 -0.1110  0.0595  0.0139
20950W        W37134   9.638  12.522   1.688 -0.1766  0.2566 -0.1887
20951W        W37135   3.467   1.258   0.874  0.0446 -0.1689  0.5851
20952W        W37136  10.512  13.013   3.123  0.3031 -0.3545 -0.0661
20953W        W37137   9.659  11.519   2.959  0.0732 -0.1107  0.2353
20954W        W37138  12.274   5.111  14.453 -0.0914  0.3653 -0.1109
20955W        W37139  18.071  11.079  13.830 -0.0445  0.0652 -0.1849
20956W        W37140   2.855   4.124  15.532  0.0478  0.0699  0.1027
20957W        W37141  15.840   4.148   1.937 -0.0461  0.2471  0.1494
20958W        W37142  11.745   6.669   2.291  0.0213 -0.0780  0.2329
20959W        W37143  12.036  11.034   4.382 -0.0509 -0.0863  0.2412
20960W        W37144   1.373   3.052   3.338 -0.3124  0.0681  0.2183
20961W        W37145  12.164   2.804   5.084  0.2445  0.2712 -0.2058
20962W        W37146  10.516   8.981  16.356  0.1339  0.0930 -0.3525
20963W        W37147   1.711   3.645   2.160  0.0870  0.1473  0.3502
20964W        W37148  15.850  14.866   0.860 -0.0296 -0.3606  0.1525
20965W        W37149   1.356   1.760   2.039 -0.2572  0.2237 -0.0469
20966W        W37150   9.845  15.389  15.054  0.0347 -0.0607 -0.2093
20967W        W37151  17.643  13.608  14.252 -0.2283 -0.2392 -0.2378
20968W        W37152   8.502   2.597  16.338 -0.2070 -0.1051 -0.4109
20969W        W37153  15.171   5.418  13.201 -0.0882  0.2451  0.2159
20970W        W37154  10.930   6.527   2.709  0.0967 -0.1510 -0.1364
20971W        W37155   0.005  15.196  14.492  0.0599  0.1616 -0.0765
20972W        W37156   2.764   8.252   0.620  0.0527 -0.1203  0.0897
20973W        W37157   5.029   8.280  16.500 -0.0333  0.4352 -0.1163
20974W        W37158   2.896   4.277   3.928 -0.0440 -0.0982 -0.3938
20975W        W37159  12.434   2.047  14.367  0.1136  0.1845  0.0461
20976W        W37160  12.994  15.383   5.259  0.1627 -0.2059 -0.0904
20977W        W37161   7.501   8.152   5.379  0.0285 -0.3331 -0.0312
20978W        W37162   1.470  16.400  11.903  0.1818 -0.2090  0.0717
20979W        W37163   7.594  11.203   2.425  0.0612  0.4466 -0.0973
20980W        W37164   6.979   3.141  12.416 -0.2928  0.0315 -0.0963
20981W        W37165  11.000   3.282  16.666  0.0209  0.1581  0.2419
20982W        W37166   8.747  13.277  12.227  0.5021  0.0014  0.0120
20983W        W37167  12.669   0.184   6.346 -0.1488 -0.2293  0.0070
20984W        W37168  16.221  10.388   6.408 -0.1174  0.1809 -0.0653
20985W        W37169   8.329  15.670  15.781 -0.0022  0.1299  0.1050
20986W        W37170  16.806   3.025  16.545 -0.0472 -0.0961 -0.1040
20987W        W37171  12.400   8.422  13.078  0.1571  0.1523  0.1900
20988W        W37172  10.301   9.664  14.494  0.0096 -0.0060  0.0599
20989W        W37173  11.799   1.418  14.028 -0.1467  0.0120 -0.1004
20990W        W37174   8.258  11.129  15.802 -0.0012  0.1195 -0.2016
20991W        W37175   8.604  13.546  11.457  0.0399  0.1537 -0.0787
20992W        W37176  12.945   0.950  14.939 -0.0781 -0.1129 -0.0661
20993W        W37177   0.947   4.695   0.987 -0.1377 -0.0090 -0.2632
20994W        W37178   9.498   1.985   0.710  0.3385  0.0352  0.2113
20995W        W37179  17.733   2.330  14.527 -0.0410  0.2354 -0.0865
20996W        W37180  10.226  14.156   5.652  0.1336 -0.3048 -0.1896
20997W        W37181   6.308   4.082  11.437  0.2990  0.1253  0.1189
20998W        W37182   3.717   5.390  13.015  0.0009  0.0855  0.0415
20999W        W37183  15.259  10.403  14.888 -0.0129 -0.1386  0.0033
21000W        W37184   0.430   8.679  14.446 -0.3482  0.3849 -0.0104
21001W        W37185  12.513   1.227  12.149 -0.2212 -0.2198  0.0309
21002W        W37186   0.024  11.539   1.071 -0.0410 -0.2428  0.2116
21003W        W37187   9.514   1.014   1.347 -0.0367  0.0737 -0.0375
21004W        W37188   9.862  17.444   3.415  0.0737 -0.2682  0.0453
21005W        W37189   6.411  11.613   2.907  0.1184  0.1709 -0.1148
21006W        W37190   6.478   3.453  13.101 -0.1929 -0.0967  0.2359
21007W        W37191   9.134   6.773   1.649 -0.2045  0.1485 -0.0683
21008W        W37192  13.301   1.637  12.356  0.1520  0.0922  0.1052
21009W        W37193  10.596   2.531  12.471 -0.3095 -0.0424 -0.2315
21010W        W37194   0.746  10.155   3.952  0.0111 -0.4977  0.3152
21011W        W37195   5.196  16.795   0.177  0.0773 -0.1223  0.0337
21012W        W37196   4.598   5.186  11.910  0.0465  0.0040 -0.2460
21013W        W37197   3.172   7.842   2.980  0.1897  0.2281 -0.0821
21014W        W37198   5.138  14.550  15.528 -0.3353  0.1157  0.1624
21015W        W37199  14.862   7.405   3.682 -0.0202 -0.0913 -0.0065
21016W        W37200  15.036  14.073  13.766  0.0143 -0.1380  0.0266
21017W        W37201   4.234  14.385   1.296  0.1653  0.3746 -0.0518
21018W        W37202   1.068   4.600   2.117 -0.1836  0.0412  0.1776
21019W        W37203   7.197   7.562   6.125 -0.0222  0.1512  0.2872
21020W        W37204   2.098   6.988  15.296 -0.1530 -0.1112  0.0296
21021W        W37205  12.111   2.195   4.872  0.2089 -0.0559  0.1130
21022W        W37206   8.867   8.809  16.351  0.0699 -0.0756  0.3330
21023W        W37207   4.339   5.342  11.415 -0.1011  0.2472  0.0296
21024W        W37208  13.217  17.547  12.614  0.2424 -0.1348 -0.1396
21025W        W37209  17.481  10.069   2.943  0.0981  0.0875  0.1316
21026W        W37210  10.603   8.707  15.023  0.1986 -0.0016 -0.1605
21027W        W37211  11.907   8.979  13.905 -0.1352  0.1763  0.3490
21028W        W37212   5.734   6.135   1.429 -0.0792 -0.0374  0.0121
21029W        W37213   9.126  11.109   0.614 -0.0665  0.0683 -0.4121
21030W        W37214  17.891   5.517   4.808  0.0272  0.1581  0.0898
21031W        W37215   0.660   8.948  12.324 -0.2024  0.0551  0.1535
21032W        W37216  10.115   8.066  15.336 -0.2651  0.0038  0.2269
21033W        W37217  12.082   0.875  12.438 -0.0512  0.1088 -0.0193
21034W        W37218  13.588   0.460  14.933  0.2867  0.3501 -0.0929
21035W        W37219   8.487  18.045   2.337  0.1825 -0.1052  0.1551
21036W        W37220  11.074   3.113   3.303 -0.0904 -0.3579  0.0675
21037W        W37221   3.423   5.980   3.032 -0.0439  0.2108 -0.1383
21038W        W37222   4.221   9.870  15.993 -0.1056  0.0066 -0.1583
21039W        W37223  17.645   6.747  12.608  0.1847 -0.0578 -0.0191
21040W        W37224   8.373  13.571  12.397 -0.1631  0.0602 -0.0602
21041W        W37225   4.709  15.094  16.279  0.0974 -0.2104 -0.0196
21042W        W37226   1.571  15.153   1.814  0.0819  0.2082 -0.0567
21043W        W37227  10.100  16.662   1.953 -0.0766  0.0391  0.0991
21044W        W37228   0.090  16.537   0.911  0.0904 -0.2169 -0.4834
21045W        W37229  10.183   0.864   0.679  0.0049  0.0945  0.1748
21046W        W37230   8.314  11.242   1.081  0.1232  0.0313  0.1855
21047W        W37231  14.549  16.142  14.365  0.0779 -0.1591  0.1266
21048W        W37232  16.469  16.442   4.538  0.1486  0.0134 -0.2027
21049W        W37233  17.767  10.591   2.822 -0.3369 -0.0802  0.0117
21050W        W37234   5.445  11.592  16.155  0.1131 -0.4506 -0.0204
21051W        W37235   8.790   5.036   2.955  0.0664 -0.2789 -0.1955
21052W        W37236   9.605  14.760   5.470 -0.1718 -0.0347 -0.1701
21053W        W37237   4.899   2.583   2.183  0.0302  0.1290 -0.1854
21054W        W37238   5.189  14.938  12.138 -0.1003  0.1760 -0.0657
21055W        W37239  13.844  12.508   1.804  0.0092 -0.1395  0.1267
21056W        W37240   2.884  13.540  16.265  0.1153 -0.0494  0.1146
21057W        W37241  11.032   3.884  11.717 -0.0026  0.1912  0.1139
21058W        W37242  13.976   8.518  15.857 -0.0347  0.2826 -0.4362
21059W        W37243  13.771   2.530   1.952  0.0486 -0.3131  0.0183
21060W        W37244  10.147   1.720   1.118 -0.0440 -0.1289 -0.4434
21061W        W37245  12.182   0.061  12.139  0.0212  0.0233  0.0011
21062W        W37246  16.713  15.300   4.743  0.2282  0.1362  0.3474
21063W        W37247  13.901  10.950   3.768  0.1726 -0.1677  0.0479
21064W        W37248  11.127   3.529   2.926  0.0808 -0.0044  0.0294
21065W        W37249   9.092  12.615   3.252 -0.2391  0.3024  0.1037
21066W        W37250  13.715  17.629  13.953 -0.5726  0.1562  0.1562
21067W        W37251  11.081   0.376  14.772 -0.0161  0.1385  0.0106
21068W        W37252   3.652  14.521   0.439  0.0150 -0.5880  0.1778
21069W        W37253  13.882   3.583   4.360 -0.0393 -0.1766 -0.1181
21070W        W37254   7.138   6.310  12.227  0.0896  0.3716  0.0829
21071W        W37255   4.253  12.890   1.822 -0.3067 -0.1830 -0.1506
21072W        W37256  14.216   8.334   1.827  0.0790 -0.1430  0.0880
21073W        W37257   0.162   7.281   3.296  0.1867 -0.0252 -0.0941
21074W        W37258  15.513   9.382  13.965 -0.1116  0.3180 -0.3488
21075W        W37259  12.235  17.524   0.110 -0.2154 -0.1964  0.1828
21076W        W37260   1.121  15.047   3.215  0.0215  0.0202  0.1105
21077W        W37261   0.793  10.770  12.372  0.0852 -0.0999 -0.0138
21078W        W37262   9.950   8.533   2.083 -0.0331  0.2960  0.3811
21079W        W37263   2.104   1.157   0.251  0.3425 -0.0626 -0.0122
21080W        W37264  14.172   6.562   3.027  0.0772 -0.2302 -0.0513
21081W        W37265   8.004   3.201  16.392 -0.0396 -0.0228 -0.2814
21082W        W37266   6.187   4.375  13.842  0.0005  0.0401  0.0106
21083W        W37267   7.000  11.855   3.445  0.3808 -0.1265  0.1021
21084W        W37268  11.203   9.237   1.008 -0.0141 -0.1658 -0.0704
21085W        W37269  11.145   6.248   0.911  0.2739 -0.2443  0.2498
21086W        W37270   4.687  13.958   4.176 -0.3115 -0.2532 -0.1162
21087W        W37271  16.175   4.890   2.522  0.2225  0.1743  0.2055
21088W        W37272   8.686   8.979   4.712  0.1518 -0.2092  0.0878
21089W        W37273   2.803  17.217   4.989 -0.1156 -0.2461  0.1431
21090W        W37274  17.506   8.786  15.542 -0.2479  0.0340  0.2639
21091W        W37275  15.023   9.434  11.701  0.3849 -0.4345 -0.0669
21092W        W37276   7.974  13.676  13.488 -0.0139  0.1111  0.1164
21093W        W37277   2.767   2.315  12.318  0.2684  0.2948 -0.2698
21094W        W37278   1.170   6.140   1.170  0.0033  0.2119  0.1248
21095W        W37279   1.165  15.668   4.166 -0.3979 -0.0994 -0.1246
21096W        W37280   2.726   8.929  11.240 -0.2747  0.2123 -0.0348
21097W        W37281  13.651   8.560  12.691  0.0508  0.0006  0.2262
21098W        W37282  11.017   1.715   6.192 -0.1220  0.0333  0.1232
21099W        W37283   9.348  15.254   3.336 -0.2300 -0.0989 -0.3137
21100W        W37284   8.227  13.795  13.913 -0.2645  0.0355  0.2531
21101W        W37285   1.110   2.632   3.284 -0.1489  0.5387 -0.2185
21102W        W37286   8.561   8.149  13.940  0.0264 -0.0033 -0.3960
21103W        W37287  16.007  14.107  12.159 -0.0572 -0.3087 -0.2234
21104W        W37288  15.941  17.611   3.120 -0.0519 -0.2958 -0.0958
21105W        W37289  10.557  10.099  16.554  0.0400  0.0968 -0.1439
21106W        W37290  15.908   7.447  11.629  0.0903 -0.2655  0.3562
21107W        W37291  17.612  14.822   2.547 -0.0426 -0.1652  0.3628
21108W        W37292  16.603  16.870   2.844 -0.1678  0.0262  0.0745
21109W        W37293  12.694  14.842  15.824 -0.0271 -0.0825  0.1164
21110W        W37294   6.686   4.404   0.199 -0.0706 -0.0149 -0.1880
21111W        W37295  14.008   8.920   4.509 -0.2938 -0.1058  0.1740
21112W        W37296   6.906   9.196   3.229 -0.0306 -0.2508 -0.2199
21113W        W37297   1.243   9.004  15.636  0.0571 -0.2284  0.0213
21114W        W37298   2.764   6.517  13.671 -0.1086 -0.2218 -0.0414
21115W        W37299  17.056   6.840   2.107 -0.0621 -0.3455  0.1359
21116W        W37300  14.322   7.153  15.705  0.1638  0.3100 -0.0530
21117W        W37301   0.693   2.128  13.692  0.1749  0.3902 -0.0457
21118W        W37302  11.559   6.398   1.756 -0.5274  0.1764  0.1751
21119W        W37303  13.854  11.699  14.461 -0.1888 -0.2242 -0.0388
21120W        W37304  11.346   6.795   2.665 -0.3722  0.1407  0.2745
21121W        W37305   9.325   9.873   2.508  0.0447 -0.4127  0.3935
21122W        W37306  13.974   6.063  12.722 -0.2470 -0.0067 -0.0220
21123W        W37307   0.148  16.478  16.221  0.0115 -0.1004 -0.0670
21124W        W37308  17.085  17.241   3.738  0.1252  0.1034 -0.0760
21125W        W37309   3.243  17.349  12.115  0.0998 -0.0469  0.2112
21126W        W37310  16.861  12.214  11.661 -0.1542  0.2556  0.1461
21127W        W37311   2.663   0.275   4.939  0.1744 -0.1167  0.0817
21128W        W37312   6.083  12.245   0.881  0.4410 -0.1766 -0.0889
21129W        W37313  12.398   9.281  11.268 -0.0274  0.0219  0.1572
21130W        W37314   5.381   3.163   2.873  0.1986 -0.1912 -0.1144
21131W        W37315   4.203   2.780   3.880  0.0116  0.0913  0.0243
21132W        W37316   3.927   3.774   4.978  0.1361 -0.2940 -0.2940
21133W        W37317   6.744  12.377   5.352 -0.0228 -0.0593 -0.0732
21134W        W37318  16.734  12.553  14.676 -0.3044 -0.0425 -0.0739
21135W        W37319  18.057   5.920  14.235  0.5790 -0.0745  0.3572
21136W        W37320  16.505  17.919   4.807 -0.2300 -0.0903  0.2600
21137W        W37321  14.290  13.063   2.314 -0.1350  0.1332  0.0650
21138W        W37322  10.916   2.215   1.157 -0.4538  0.1509  0.2345
21139W        W37323  11.304   1.657   3.606  0.2866 -0.0287  0.0826
21140W        W37324   9.350   1.720   2.668  0.0244 -0.0011  0.3706
21141W        W37325  11.875  16.801   3.842 -0.1730 -0.0043 -0.3166
21142W        W37326  12.054  15.002  13.081  0.0650 -0.4670 -0.1117
21143W        W37327  14.710   8.187  16.512 -0.3412 -0.1414  0.0652
21144W        W37328  11.062  13.963   0.475  0.0210  0.1424  0.0551
21145W        W37329   3.380   7.513  12.223 -0.2472  0.1800  0.2728
21146W        W37330   0.830   2.522  14.580 -0.0500 -0.1296 -0.3061
21147W        W37331  13.176   5.419  12.413  0.1735  0.2544  0.2037
21148W        W37332  13.573  16.000   5.276 -0.1970 -0.0771 -0.0397
21149W        W37333   5.131   3.678   4.053  0.2150  0.0907 -0.0490
21150W        W37334   4.198   3.822  11.396  0.2895  0.0619 -0.0955
21151W        W37335   5.698   5.261   4.546 -0.4513 -0.2548  0.1879
21152W        W37336  16.931  15.480  12.904 -0.0922  0.1598  0.2181
21153W        W37337  15.630   5.558  12.895 -0.1234  0.1579 -0.2780
21154W        W37338   4.258  12.719  11.840  0.3475 -0.2601  0.0752
21155W        W37339   2.466   3.806  11.211  0.3105 -0.1179  0.2225
21156W        W37340  13.707   7.818  15.486 -0.0950 -0.0015 -0.0448
21157W        W37341   2.243  14.372  14.708  0.0798  0.0790 -0.1870
21158W        W37342   9.170  12.362  16.561  0.1323  0.1946 -0.0024
21159W        W37343   8.121  13.563   3.098  0.0163  0.0870 -0.1018
21160W        W37344   8.642  13.945  14.390  0.1968 -0.1840  0.1882
21161W        W37345  16.891   3.034   2.427 -0.2171 -0.2063  0.0167
21162W        W37346  14.728  18.102   0.162 -0.0664  0.0023  0.2310
21163W        W37347   9.924  16.403   4.947 -0.1160  0.0011 -0.0609
21164W        W37348   3.657   9.771   5.389 -0.0711  0.1793 -0.0531
21165W        W37349  16.405  10.362  12.112  0.0999 -0.0018  0.3808
21166W        W37350  11.633  13.926   1.400 -0.0088 -0.0904 -0.0380
21167W        W37351   3.060   9.202  13.549  0.1017  0.0485  0.1573
21168W        W37352   6.458  17.916  15.791 -0.1059 -0.2095 -0.1210
21169W        W37353   2.056   1.065   2.369  0.0836 -0.1220  0.1600
21170W        W37354  12.852   5.128   4.281 -0.1197 -0.1766 -0.0787
21171W        W37355   2.708  12.337   1.137  0.1015 -0.0312 -0.3185
21172W        W37356  15.758   3.671   2.242 -0.0914 -0.0548 -0.2437
21173W        W37357  14.592   0.976  13.283  0.2737 -0.1649 -0.2314
21174W        W37358   4.061   6.750  14.250  0.1851 -0.1531  0.0069
21175W        W37359   9.651   5.393   2.923 -0.3225  0.1486  0.1562
21176W        W37360   3.729   3.529   3.205  0.0641  0.4018  0.1243
21177W        W37361   5.166   7.667   0.025  0.1121  0.0071 -0.1943
21178W        W37362  12.607  14.307  12.866  0.0792 -0.1782 -0.0893
21179W        W37363   5.613   7.095   5.322 -0.0972 -0.0209  0.0056
21180W        W37364  13.196   5.158  14.229  0.0636  0.0621  0.0473
21181W        W37365  14.073   8.075  13.245  0.2329  0.0270 -0.0593
21182W        W37366   3.758   5.471   0.190  0.2516  0.1649  0.0674
21183W        W37367   2.333  16.381   1.983 -0.0377  0.0734 -0.2449
21184W        W37368   1.057  12.567   4.063 -0.0827  0.5010  0.0697
21185W        W37369   8.457   0.715  14.453  0.2209 -0.1224 -0.2803
21186W        W37370  16.479   6.889  13.146 -0.1515 -0.1359 -0.1616
21187W        W37371   3.394   0.653   0.981 -0.0771  0.2395  0.0097
21188W        W37372  14.908   3.791  12.431 -0.0126  0.2378  0.1511
21189W        W37373   2.014   8.302  14.640  0.0316  0.2676  0.3890
21190W        W37374  10.963   5.362  11.659 -0.0450  0.1848 -0.2897
21191W        W37375   7.327   5.836   0.406  0.2750 -0.0623 -0.1184
21192W        W37376   5.493   6.170   4.546  0.0942 -0.1466 -0.2442
21193W        W37377  10.202  15.608  13.642 -0.0553 -0.0792  0.0438
21194W        W37378   2.723  10.337   5.185 -0.0378 -0.0881  0.1625
21195W        W37379   6.994  17.381   5.853  0.1862 -0.0656  0.4265
21196W        W37380  13.252   9.661   3.927  0.1243  0.1696 -0.0740
21197W        W37381   2.135  13.236   5.514  0.1503 -0.4880  0.1926
21198W        W37382  14.248   7.255   4.410  0.2569 -0.2118  0.0628
21199W        W37383   4.798   7.847   1.325 -0.0966  0.0770  0.3080
21200W        W37384  10.655   9.799  12.608  0.1650 -0.2065 -0.5215
21201W        W37385  16.257   7.148  16.037  0.0565  0.2931  0.2722
21202W        W37386  13.913  10.205  13.489  0.0653 -0.0933 -0.1309
21203W        W37387  11.862  14.316   4.328 -0.1197 -0.2332 -0.1258
21204W        W37388  11.787   2.760   5.745  0.3274  0.1624  0.2414
21205W        W37389  11.058  16.148   3.586  0.3871  0.0995 -0.0849
21206W        W37390  16.208   4.665   5.324 -0.1392  0.3410  0.0292
21207W        W37391   6.843   9.084  12.645 -0.1161  0.0428 -0.2082
21208W        W37392   8.573   9.175  12.785  0.0483 -0.0690  0.0074
21209W        W37393   1.621   0.402   0.596 -0.1633 -0.1186  0.2458
21210W        W37394   1.078  11.662   4.960 -0.0467  0.4009  0.0199
21211W        W37395  13.344   1.474  13.864  0.1533  0.0451  0.2798
21212W        W37396   4.504  13.059  12.041  0.0047  0.1236 -0.1076
21213W        W37397   2.113  11.967   0.161 -0.2347  0.1877  0.1802
21214W        W37398  11.241   2.249   2.360  0.1461 -0.1614  0.2540
21215W        W37399   6.379  10.594  13.938  0.0862  0.1012  0.2788
21216W        W37400   8.801   9.495  13.738  0.0416 -0.1268 -0.4306
21217W        W37401  10.757   4.443   3.360 -0.1641 -0.4109 -0.1021
21218W        W37402   3.903   8.514   2.677  0.0150 -0.3104  0.4878
21219W        W37403   7.068  17.431  15.467 -0.2212  0.1507  0.1532
21220W        W37404  13.321  11.860  15.031 -0.0436 -0.2728 -0.5205
21221W        W37405   0.469   0.435  15.793  0.1089  0.2987 -0.1868
21222W        W37406  11.892  10.981  15.482 -0.1865 -0.1745  0.0835
21223W        W37407   8.677   8.350  12.989  0.2086 -0.0786  0.0631
21224W        W37408  17.644  14.231  13.908  0.2399  0.1284 -0.5391
21225W        W37409   2.248   9.726  16.057  0.0061 -0.1220 -0.3382
21226W        W37410  12.397   9.036  14.736  0.0532 -0.1413  0.0983
21227W        W37411   9.962  16.294  15.832 -0.1014  0.1791 -0.3508
21228W        W37412   1.778  15.159   0.427  0.0740  0.0969  0.3147
21229W        W37413   8.491   4.159   2.346 -0.0832  0.0772 -0.0393
21230W        W37414  14.996   3.623   3.481 -0.1453 -0.0580 -0.0110
21231W        W37415  15.088   6.714   2.474 -0.1153 -0.0177  0.0301
21232W        W37416   1.864   4.122   1.977  0.2071 -0.1498 -0.1171
21233W        W37417  12.752  11.115  13.236  0.2689  0.2667 -0.0954
21234W        W37418  12.325  14.966   2.193  0.1663  0.0492 -0.3366
21235W        W37419   7.232   6.112  13.483  0.3379  0.1791 -0.1735
21236W        W37420  11.006   1.471  14.808 -0.1829  0.0874 -0.1073
21237W        W37421  16.687   0.621  15.636 -0.2088 -0.2845 -0.0234
21238W        W37422  15.972  17.941  11.181 -0.0217  0.1094 -0.1867
21239W        W37423   7.174  10.200   3.729 -0.2675  0.0596  0.0210
21240W        W37424   1.512  11.788   1.924 -0.0945 -0.1445  0.3173
21241W        W37425  16.308  16.560  15.821  0.2574  0.2073  0.3310
21242W        W37426   4.638   7.624   4.115 -0.0827  0.2666 -0.0390
21243W        W37427   7.465  10.746   6.088 -0.0894 -0.2306 -0.2841
21244W        W37428   9.028  15.085   2.821 -0.1526  0.1333  0.2409
21245W        W37429   6.930   7.188   4.695 -0.0189  0.2248 -0.0460
21246W        W37430  12.737   7.763  15.700 -0.4097 -0.1426 -0.1639
21247W        W37431  16.049  15.855  16.289 -0.1432 -0.1633 -0.1077
21248W        W37432  13.318  11.679  14.167  0.0899  0.1314  0.1174
21249W        W37433   2.867   3.104  13.373  0.0384 -0.0950  0.0752
21250W        W37434  10.108   1.038  13.306  0.1207  0.0598 -0.2086
21251W        W37435  13.361   2.019  12.933  0.0591 -0.0265  0.1328
21252W        W37436  16.576  13.924   4.271 -0.0477 -0.2941  0.1394
21253W        W37437   8.087   5.332  12.389  0.1193 -0.0448  0.0617
21254W        W37438   4.870  10.544   1.705 -0.2135  0.1635 -0.0246
21255W        W37439   3.444  14.486  15.191 -0.1109 -0.1866  0.0564
21256W        W37440   3.011   8.273   0.083 -0.4929  0.0522  0.0803
21257W        W37441  10.488   7.844   4.511  0.3892  0.1850  0.0841
21258W        W37442   0.623  10.039  12.855 -0.2907  0.0306 -0.0760
21259W        W37443  15.707   9.619  13.586 -0.3249 -0.0796  0.1411
21260W        W37444   6.493   0.344   3.165 -0.0860  0.1436 -0.0623
21261W        W37445   3.400  16.060  14.597 -0.0091  0.0710  0.1117
21262W        W37446  13.326   3.359  13.942 -0.0778 -0.0235 -0.0858
21263W        W37447  12.510  16.055   3.548 -0.0358  0.1465 -0.1274
21264W        W37448  11.926  11.989   3.060 -0.1803 -0.1315 -0.2130
21265W        W37449   0.515   5.486   3.247  0.1045  0.3099 -0.0265
21266W        W37450  11.467  10.911   3.659  0.0221 -0.1622 -0.0458
21267W        W37451  10.796   0.246  13.791  0.2142  0.0822  0.0746
21268W        W37452  11.484   2.757  12.996  0.2211 -0.1971 -0.0960
21269W        W37453  15.205  13.442   1.823  0.2312 -0.1725 -0.0753
21270W        W37454   6.240  13.311   0.894 -0.0723  0.0211  0.4530
21271W        W37455   3.307   4.470   1.785  0.2142  0.4332  0.1930
21272W        W37456  16.407  12.823  16.049  0.1708  0.1067 -0.0744
21273W        W37457   4.132  15.385   3.416 -0.1957 -0.2219 -0.1878
21274W        W37458   5.989  16.153   5.206  0.1869 -0.0526 -0.2102
21275W        W37459  17.248  15.226  15.231  0.3197  0.2174  0.1422
21276W        W37460   0.053   4.366  11.062  0.0054 -0.0241 -0.0217
21277W        W37461   1.258   8.357   3.478 -0.0726  0.2727  0.1419
21278W        W37462  11.161   0.921   2.362 -0.2779 -0.1288  0.1175
21279W        W37463   4.160  15.446  12.063  0.0578 -0.0230  0.5476
21280W        W37464  17.434   2.074   0.059 -0.0156 -0.1294  0.1564
21281W        W37465  16.843   1.872   3.142  0.0669 -0.1229  0.2180
21282W        W37466   8.179   6.319   2.456  0.2760  0.1385  0.0181
21283W        W37467  10.178   3.157  15.606  0.0251  0.2738 -0.5724
21284W        W37468  15.797   2.072  15.104  0.2956  0.0457 -0.0255
21285W        W37469   0.452   3.079   3.464 -0.0182 -0.0589 -0.5424
21286W        W37470  10.037  16.992   4.336  0.1391 -0.0894  0.1035
21287W        W37471   7.137  17.406  16.481  0.0794 -0.2689 -0.3602
21288W        W37472  17.122  14.595   3.258 -0.1382 -0.1866 -0.1825
21289W        W37473   3.695   3.706   1.472  0.0366 -0.2060 -0.2490
21290W        W37474   7.533  17.393   3.593  0.0336 -0.2179  0.1170
21291W        W37475  14.173  11.823  12.634 -0.2255 -0.3435  0.1738
21292W        W37476  10.375   4.959   1.545  0.1070  0.1226 -0.2132
21293W        W37477   7.505  17.990   4.437  0.0172  0.2193  0.0270
21294W        W37478  13.360  15.954   6.341 -0.1235  0.4778 -0.1430
21295W        W37479  14.810   5.500  13.737  0.1523  0.2383 -0.1556
21296W        W37480   8.923  17.264   2.742  0.1287  0.0725  0.2091
21297W        W37481  11.811  10.848   5.634 -0.0566  0.2236  0.0822
21298W        W37482   2.981   2.754  14.938 -0.1147 -0.0262 -0.0984
21299W        W37483  11.632  17.821   4.650  0.0682  0.0709 -0.0953
21300W        W37484   5.645  10.610  16.574 -0.0022  0.0015 -0.0260
21301W        W37485  12.185   0.633   3.149  0.0526 -0.0513 -0.0889
21302W        W37486   5.863  14.060  16.639  0.0963  0.5383 -0.2913
21303W        W37487   9.114  13.645   2.191  0.2073  0.2650 -0.0958
21304W        W37488   6.877   5.698   0.132  0.1770  0.0577 -0.0146
21305W        W37489   5.956  13.288   1.794  0.3749 -0.1539  0.1382
21306W        W37490  13.756   5.502  11.522  0.1519  0.1627  0.0319
21307W        W37491  12.745  14.903  12.922 -0.2777  0.2735  0.1403
21308W        W37492   5.323  13.237   5.839  0.0452  0.1170 -0.2447
21309W        W37493   0.320  17.956   3.869 -0.1825  0.0833 -0.1547
21310W        W37494  15.375  16.823   4.563  0.1425 -0.2458 -0.4219
21311W        W37495   5.459  13.904   0.996  0.2222  0.0918  0.0394
21312W        W37496   0.368   2.600  15.744 -0.0485  0.2139 -0.1998
21313W        W37497  18.167   6.222  11.830  0.0287 -0.3359  0.0408
21314W        W37498   1.071   1.002   2.704 -0.0157  0.0102  0.3125
21315W        W37499   1.638   0.451  16.380  0.0520 -0.2264 -0.1599
21316W        W37500  10.570  11.962  12.818 -0.0012  0.0533 -0.0799
21317W        W37501  14.808   4.140  12.789  0.1570  0.0689 -0.0686
21318W        W37502   8.037   2.390  16.081 -0.4772  0.3222  0.3454
21319W        W37503   4.284   5.913   3.270 -0.3769 -0.3361 -0.1276
21320W        W37504   3.624   6.037   4.868  0.4011 -0.0201 -0.4497
21321W        W37505   4.961   6.160  14.530 -0.0817 -0.1133 -0.1088
21322W        W37506  16.997   1.703  11.706  0.0488 -0.0790  0.0790
21323W        W37507   7.982  14.318  14.656 -0.0635 -0.0700  0.2118
21324W        W37508  15.576   9.799  11.874 -0.0048 -0.0000 -0.0357
21325W        W37509   8.343   0.519  15.685  0.0686  0.2987  0.0793
21326W        W37510   1.637   6.624  15.831 -0.0097  0.0858  0.3782
21327W        W37511  12.889  12.068  15.920 -0.1878  0.1330 -0.1957
21328W        W37512  17.353   3.212   2.292  0.0852  0.0539  0.1551
21329W        W37513   7.999  12.637  13.166  0.1554 -0.0542 -0.5266
21330W        W37514   7.894  16.389  15.757 -0.3390  0.0381 -0.2207
21331W        W37515  13.382  15.743  11.909  0.1497  0.1564  0.0840
21332W        W37516  16.828  15.086  12.562 -0.0297  0.1520 -0.0122
21333W        W37517   6.379   7.870   0.869 -0.1731  0.1589  0.0926
21334W        W37518  16.154   2.104  13.717 -0.0739  0.1174 -0.3726
21335W        W37519   6.758  14.479   2.221 -0.2529  0.3552  0.2870
21336W        W37520   1.553   9.166   0.350  0.4795 -0.0884 -0.2265
21337W        W37521   5.286   6.760   2.025 -0.3739 -0.0572  0.2597
21338W        W37522  16.855  17.614   2.993  0.1036 -0.0829  0.0096
21339W        W37523  14.847   9.570   0.169 -0.0034 -0.0430 -0.0996
21340W        W37524   3.752   8.158  11.740  0.2082  0.0277  0.0763
21341W        W37525  17.765  17.212  12.904 -0.0718  0.0542  0.1407
21342W        W37526   7.037  10.194  16.066  0.0300 -0.1622 -0.0853
21343W        W37527  17.527   7.089   0.056 -0.4006  0.2122  0.0188
21344W        W37528  15.222  16.800  14.996 -0.0710  0.5957  0.0067
21345W        W37529  17.616  11.409  13.405  0.0471 -0.0180  0.0394
21346W        W37530  15.316  11.681   0.588 -0.0622  0.1054  0.2780
21347W        W37531   9.014   9.981  11.517  0.1253  0.1517  0.1081
21348W        W37532  13.415  16.816  11.299 -0.3498  0.1110  0.2451
21349W        W37533   5.600  15.349   3.555  0.0062 -0.0709 -0.0328
21350W        W37534   7.583  17.560   1.976 -0.1947  0.1816  0.3422
21351W        W37535  17.077   5.738  16.220 -0.0080  0.1526  0.0122
21352W        W37536   2.732   0.789   1.858 -0.0100 -0.0602 -0.1804
21353W        W37537   3.742   2.872  12.298  0.1926 -0.2494  0.0856
21354W        W37538   1.225   9.491   0.284 -0.0482 -0.1963  0.0958
21355W        W37539   5.990  10.259   0.175 -0.1947  0.0697  0.1547
21356W        W37540  11.205  17.588   5.861  0.2247 -0.1713 -0.0930
21357W        W37541  10.568  14.562   0.975  0.0197 -0.1105 -0.0033
21358W        W37542  13.294   3.022  11.483  0.0298  0.3137 -0.0303
21359W        W37543  16.553   8.696  14.442  0.0347  0.0096  0.0188
21360W        W37544   9.848   5.428  16.211  0.3132 -0.4041  0.2985
21361W        W37545   7.699   6.059  13.441 -0.0954  0.1712  0.1229
21362W        W37546   1.283  14.081   4.295 -0.2257  0.0475  0.2073
21363W        W37547  12.608   2.831  15.837  0.0615  0.1063  0.0985
21364W        W37548   7.897  13.809   2.759  0.0054 -0.1484  0.1260
21365W        W37549   9.105  14.243  13.896  0.1452  0.0713 -0.2186
21366W        W37550  10.774  11.536   4.345 -0.4447  0.0614 -0.3274
21367W        W37551   4.751   5.057  13.635  0.1936 -0.2100  0.0864
21368W        W37552   0.109   6.974   1.507  0.1814  0.2276  0.4503
21369W        W37553  11.293  15.169  13.543 -0.2215 -0.0874  0.0690
21370W        W37554   2.757   8.617   2.243  0.1284  0.1390 -0.1126
21371W        W37555  14.689   5.188   3.533  0.1166  0.0213  0.2843
21372W        W37556   4.954  15.981   4.183 -0.0286 -0.1565  0.0021
21373W        W37557   9.241  17.684   1.171  0.1324 -0.2930 -0.3921
21374W        W37558   5.051  14.137   1.259 -0.0121  0.2484  0.3400
21375W        W37559  10.535  10.207   5.154 -0.4216  0.0511  0.0532
21376W        W37560   7.797  14.794  11.753  0.0034  0.0075 -0.1013
21377W        W37561  15.288  11.463  12.938 -0.2666 -0.2660 -0.2145
21378W        W37562   5.254  16.945  13.333  0.1837 -0.2498 -0.1863
21379W        W37563  11.773   1.550   5.588  0.1147 -0.0551  0.2445
21380W        W37564  15.631   7.381   1.862  0.1304 -0.2477  0.0106
21381W        W37565   4.825   0.635   4.811  0.0111  0.0568  0.0964
21382W        W37566   0.243  11.896  11.192  0.0364  0.1792  0.1826
21383W        W37567  13.603  12.307  16.604  0.1023  0.2360 -0.1931
21384W        W37568  11.465  14.859   0.148  0.0351 -0.2213  0.1366
21385W        W37569   4.247  10.098  12.713 -0.5111 -0.4677 -0.1063
21386W        W37570  12.672   2.462   4.011  0.1068 -0.0376  0.1293
21387W        W37571  11.955   5.141   3.480 -0.2610  0.1281 -0.0790
21388W        W37572  11.741  14.858  13.987  0.0584 -0.0264 -0.0945
21389W        W37573   5.138   5.669  14.671 -0.0560  0.1868 -0.4004
21390W        W37574  13.327  11.020  11.817  0.1570  0.0312  0.1593
21391W        W37575  13.959   0.376   4.801  0.1956 -0.0628 -0.0687
21392W        W37576  11.742   6.404   5.542  0.1067 -0.0692 -0.0115
21393W        W37577  14.760   5.233   3.007 -0.2148 -0.0710  0.0462
21394W        W37578   2.437   8.540   2.629  0.2520  0.3026  0.0215
21395W        W37579   0.632  13.464   2.000 -0.0388  0.1764 -0.0754
21396W        W37580   3.861  14.282   4.141 -0.1828 -0.4350  0.2568
21397W        W37581   0.742  14.111   0.854  0.0997 -0.0320 -0.1318
21398W        W37582   6.245  11.212   0.756 -0.1565 -0.0257  0.2632
21399W        W37583   4.639  12.214  16.373 -0.1480  0.0214 -0.0947
21400W        W37584  10.671  12.993   4.877  0.0887 -0.0418 -0.0479
21401W        W37585   8.546   2.009  14.175 -0.0553  0.1327 -0.1719
21402W        W37586  14.945   5.477   0.184 -0.1523 -0.1292  0.0794
21403W        W37587   3.131   6.211  12.390 -0.2370 -0.0813 -0.1096
21404W        W37588  16.073   6.474   4.811 -0.0183  0.0890 -0.0216
21405W        W37589   5.847  14.255  15.232  0.0556  0.0636  0.1760
21406W        W37590   0.633  17.616  14.476 -0.1601 -0.0590 -0.0046
21407W        W37591   6.249   0.945   2.790  0.0151 -0.2377 -0.0585
21408W        W37592  18.161  15.533   4.638 -0.0960  0.0384 -0.0529
21409W        W37593  18.055  17.232   4.868  0.2286  0.0697 -0.2235
21410W        W37594  16.144   4.857   1.421 -0.0324  0.2109 -0.0360
21411W        W37595   7.011  13.939  14.531 -0.0945  0.1871 -0.1239
21412W        W37596   5.444  11.507   4.581  0.1674  0.0317 -0.2551
21413W        W37597   4.280  13.933  13.677 -0.0460 -0.4172 -0.0921
21414W        W37598   1.941  13.426   4.708  0.2989  0.0466  0.0568
21415W        W37599   7.048  15.415   1.263  0.0749  0.2192  0.1667
21416W        W37600  17.704   6.285   1.993 -0.2537 -0.1731 -0.0970
21417W        W37601  10.697  16.578   5.802  0.1148  0.0210 -0.1351
21418W        W37602   9.583  16.000  12.924  0.3178  0.2058  0.4256
21419W        W37603   1.729   3.424  13.907 -0.2455 -0.3330 -0.1442
21420W        W37604   8.404   0.866  12.985  0.3601  0.0518  0.0633
21421W        W37605  13.549   3.641  15.885  0.1860  0.0568  0.1360
21422W        W37606   5.394  16.573   0.947  0.1790  0.1051  0.3864
21423W        W37607  12.122   0.773  14.888 -0.0497  0.1214 -0.0734
21424W        W37608   7.245  11.795   3.918  0.2179  0.1792  0.2529
21425W        W37609  13.736   8.450   0.447  0.3282  0.0919 -0.0154
21426W        W37610   5.153  14.355  12.294  0.0784 -0.0651 -0.1845
21427W        W37611   7.213  15.072   0.069  0.0629 -0.1581  0.1371
21428W        W37612   5.324  12.237   3.890 -0.0634 -0.1672  0.0000
21429W        W37613  11.922   2.039   5.355  0.2327  0.4031  0.3297
21430W        W37614  17.571   0.513  12.772  0.0091  0.1924 -0.1391
21431W        W37615   1.492  14.806  16.614 -0.0757 -0.1659  0.0496
21432W        W37616  16.146  12.710  12.897  0.3714 -0.2789 -0.0955
21433W        W37617  16.345  14.602  14.950  0.1906 -0.2086  0.1236
21434W        W37618  13.676  12.747  13.822 -0.0046 -0.2005  0.1163
21435W        W37619   4.939   3.671   1.961  0.1005  0.0244  0.1017
21436W        W37620   9.657  11.598  12.199 -0.1329  0.0923 -0.1648
21437W        W37621   6.387   8.573  12.882  0.2802  0.2530 -0.1239
21438W        W37622  16.561  17.406  13.132  0.0475  0.1258 -0.0023
21439W        W37623   2.701   7.797   3.157 -0.0731  0.0348  0.1484
21440W        W37624   6.251   8.695  13.911 -0.0213  0.0360 -0.0590
21441W        W37625   7.305  14.887  15.555 -0.0634  0.0408 -0.8034
21442W        W37626   5.903   0.357   5.335 -0.1294  0.0725 -0.1927
21443W        W37627   1.598   7.175  15.201 -0.0157 -0.2813  0.0472
21444W        W37628  17.606   7.335   0.477  0.3674  0.4868 -0.1561
21445W        W37629  10.726   9.108   0.926  0.1542  0.3857 -0.2574
21446W        W37630  14.013  17.958   3.438 -0.3065  0.3102  0.1977
21447W        W37631   3.551   5.408   3.787 -0.0460 -0.1416 -0.2750
21448W        W37632   6.723  11.185  14.671  0.1309  0.1327  0.3315
21449W        W37633   7.273  13.417   2.562 -0.1450 -0.1556  0.1425
21450W        W37634   9.003  16.624   4.067 -0.2410  0.2415  0.2550
21451W        W37635  11.131   4.820  12.013 -0.1669  0.0587 -0.0893
21452W        W37636  16.043  12.615   0.761 -0.1211  0.3344  0.1835
21453W        W37637   9.494   0.033   3.309  0.0256 -0.0203 -0.1168
21454W        W37638   7.684  17.630   5.614 -0.0178 -0.1816  0.1032
21455W        W37639  16.268   7.090   0.669  0.0233 -0.0365 -0.1449
21456W        W37640  11.944   9.082  13.403  0.1276 -0.0547 -0.0558
21457W        W37641   7.850  16.984  13.881 -0.0542 -0.1947 -0.0670
21458W        W37642   5.322  18.111   4.660  0.0190 -0.0079 -0.0598
21459W        W37643   3.678   3.062  11.731 -0.0235  0.0075 -0.0197
21460W        W37644   5.620   3.620   3.986 -0.3202 -0.0292  0.3329
21461W        W37645  15.015   5.679   2.197 -0.4341 -0.1780  0.0824
21462W        W37646   8.610   4.590  16.368  0.2791 -0.0972 -0.1888
21463W        W37647  13.657   7.757   2.146 -0.2966  0.0655 -0.1666
21464W        W37648  15.671   4.659   2.679 -0.0909 -0.2606  0.5162
21465W        W37649  15.605   1.538  14.292  0.1128  0.0140 -0.2157
21466W        W37650  11.239   7.009  16.129 -0.2377  0.2506  0.3214
21467W        W37651   5.241   3.896   2.319  0.0340 -0.0031  0.0034
21468W        W37652   8.629  14.102  13.914  0.0890 -0.1281 -0.4645
21469W        W37653  14.265   6.641   5.386 -0.1351 -0.1393  0.0700
21470W        W37654  18.158  13.248  15.073 -0.0760  0.0291  0.0253
21471W        W37655   9.078   7.792   1.288 -0.1666 -0.1415 -0.0562
21472W        W37656   4.343   7.313   0.374  0.2200  0.1166 -0.0116
21473W        W37657   2.964   3.251   0.154  0.3429 -0.0176 -0.0671
21474W        W37658  12.626   6.414  16.356 -0.0030  0.1314  0.1895
21475W        W37659   8.342  15.495  12.101  0.0810 -0.0544 -0.1063
21476W        W37660   7.744   3.855  13.560  0.0813  0.0342  0.1187
21477W        W37661  17.408  16.111   4.072 -0.1125  0.0770  0.2452
21478W        W37662  11.159   6.182  11.788 -0.2005  0.3994  0.0883
21479W        W37663   9.076   3.384   5.650  0.5780  0.1202  0.1114
21480W        W37664   2.009  17.919  13.640  0.2018 -0.0345 -0.3446
21481W        W37665  13.791   8.998  13.038  0.2041 -0.1578  0.1455
21482W        W37666  17.905   9.564  14.491 -0.0766 -0.2138 -0.0899
21483W        W37667   1.118   0.741  13.339  0.2374 -0.4848  0.2796
21484W        W37668   6.459   5.640   3.183  0.2090 -0.0033  0.0636
21485W        W37669   9.753  14.091  15.670  0.3129  0.2980  0.0353
21486W        W37670   6.340  16.593   5.909  0.4390  0.0592  0.1642
21487W        W37671   0.654   0.069   2.398 -0.0386  0.1310  0.1402
21488W        W37672   8.830  15.592   1.974  0.0766 -0.0807  0.2613
21489W        W37673   4.342   2.225   4.430  0.1744  0.0248  0.0178
21490W        W37674   2.631   9.135   1.255  0.0229 -0.0462 -0.0399
21491W        W37675  16.148   2.625  13.819 -0.3126  0.1814  0.1634
21492W        W37676  17.331   6.218   3.359 -0.0128  0.1859  0.3653
21493W        W37677  16.793   6.984  11.953  0.1951 -0.3818 -0.0203
21494W        W37678   9.496  10.175   4.966  0.0609  0.1232 -0.0432
21495W        W37679   5.020   4.700  11.270 -0.0465  0.0583 -0.2983
21496W        W37680  18.039   2.573  13.364 -0.0298 -0.2547  0.0413
21497W        W37681  16.078   4.243   4.212  0.3153  0.3572 -0.0143
21498W        W37682  17.468   9.116  16.566 -0.3148 -0.0302  0.3128
21499W        W37683  11.391  10.707   1.327 -0.0061  0.0113  0.4172
21500W        W37684   9.617  11.625   1.703  0.2739  0.1024  0.0315
21501W        W37685  17.608   8.425   2.678 -0.0423 -0.1288 -0.1123
21502W        W37686  13.924   0.372  15.854  0.2482  0.1856 -0.0360
21503W        W37687  17.469  16.293   1.176  0.0513 -0.0528 -0.0465
21504W        W37688   4.840   2.776  13.868 -0.2107 -0.1612  0.2664
21505W        W37689   0.606  17.520   3.592 -0.1419  0.0881  0.1050
21506W        W37690   4.770   9.010   2.642  0.0613  0.1035 -0.1517
21507W        W37691  10.593  18.080   4.284  0.0832 -0.1498  0.4926
21508W        W37692  17.011   3.562  15.634 -0.4171  0.3989  0.1012
21509W        W37693   2.397   2.308  14.525 -0.0107  0.2962 -0.1527
21510W        W37694   9.323  17.447  14.168 -0.4292 -0.0224  0.0193
21511W        W37695  16.622  11.054   1.550 -0.3444  0.2137 -0.2036
21512W        W37696   9.580   7.612   3.922  0.2398  0.0145  0.2410
21513W        W37697  15.481   2.502  13.872  0.3224  0.1940 -0.0655
21514W        W37698  16.376   1.570   1.363  0.3461  0.0783 -0.0583
21515W        W37699   7.513  16.208  16.065 -0.1686 -0.1870  0.0344
21516W        W37700  13.403  13.759   3.976 -0.0289  0.3246 -0.3259
21517W        W37701   3.142   0.681  15.328  0.1162 -0.1023  0.0856
21518W        W37702   4.604   9.059   5.180 -0.0741 -0.1525 -0.2472
21519W        W37703  14.801  14.154   5.675 -0.1872  0.4392  0.0794
21520W        W37704   5.643  14.169   4.569  0.0197 -0.3550 -0.3033
21521W        W37705   0.088  15.600   0.329  0.1122 -0.0312  0.1479
21522W        W37706  13.300   2.235   1.301 -0.1959 -0.0411  0.0672
21523W        W37707   0.890   1.874  16.270 -0.0143 -0.1418 -0.2108
21524W        W37708  16.470   9.547   5.579 -0.4516 -0.0514 -0.2522
21525W        W37709   5.881   7.314   2.552 -0.2898 -0.1573  0.3187
21526W        W37710   5.055   1.902   4.452 -0.0246  0.0098 -0.1722
21527W        W37711   8.148   1.386   5.037  0.1466  0.0557  0.0299
21528W        W37712  13.138   2.720   4.051 -0.0801 -0.2277 -0.2032
21529W        W37713  12.519  12.309   5.278  0.3579  0.0096  0.0890
21530W        W37714   3.077  11.458  14.458  0.1185 -0.1981 -0.1096
21531W        W37715  17.438  10.005   3.801 -0.1432 -0.2198 -0.0635
21532W        W37716   0.179   0.878  13.262  0.0448 -0.0520 -0.1194
21533W        W37717   1.282   2.559  14.895  0.1423 -0.1228  0.0852
21534W        W37718   1.831  16.845   1.821 -0.1046  0.5588 -0.1826
21535W        W37719  16.666   2.600  16.172  0.0182 -0.2069 -0.1892
21536W        W37720   5.271   0.560  15.996 -0.0155 -0.0819  0.0459
21537W        W37721  11.547  16.382   2.069 -0.1247 -0.2397  0.2003
21538W        W37722  15.064  13.702   0.049 -0.0521 -0.2597  0.3624
21539W        W37723  11.457  17.989   1.049 -0.0898  0.5067 -0.1505
21540W        W37724  11.069   9.443   2.717 -0.0453  0.0580 -0.1818
21541W        W37725   6.488  17.133   1.082  0.2940  0.0284 -0.1180
21542W        W37726  12.120  11.332  14.229 -0.0976 -0.4452  0.2618
21543W        W37727  16.182   4.551   2.931 -0.0768 -0.1419  0.0346
21544W        W37728   1.183   7.941   4.049  0.1585 -0.3189  0.0813
21545W        W37729  14.228   5.348  12.946  0.2640 -0.1260  0.1532
21546W        W37730  11.878  10.990   2.729  0.2438 -0.0264  0.0495
21547W        W37731   9.789  18.005  12.424  0.0120 -0.2129 -0.0278
21548W        W37732  16.745  17.950   5.434 -0.0476 -0.2582 -0.4049
21549W        W37733  13.013   6.139   0.888 -0.1710  0.0016 -0.0911
21550W        W37734  16.461   7.246  14.384 -0.2332  0.2491  0.0435
21551W        W37735   9.819  14.886  11.991 -0.1675  0.1826 -0.1577
21552W        W37736   7.183   8.983   4.406 -0.0421  0.1243 -0.3118
21553W        W37737  10.608   0.082   2.354 -0.0317  0.1156 -0.2963
21554W        W37738  10.641  17.100  13.729  0.1971  0.1547  0.0261
21555W        W37739  13.207   1.758  14.754 -0.2184  0.1620 -0.1976
21556W        W37740  14.581  14.337  13.792 -0.0349  0.1410  0.2286
21557W        W37741  12.196   9.210   0.784 -0.2146 -0.0602 -0.2026
21558W        W37742  18.109   3.688   1.783  0.2911  0.0505 -0.0019
21559W        W37743  11.862   5.117  14.987  0.3100 -0.1376  0.0157
21560W        W37744  18.036  14.385   5.181 -0.3405 -0.1014  0.0909
21561W        W37745   3.742  14.069  15.108 -0.0366  0.1583  0.0368
21562W        W37746   4.505   3.096   3.594 -0.1235  0.1890  0.2858
21563W        W37747  10.795  15.810   2.956 -0.1609  0.1006  0.4207
21564W        W37748   6.523  16.377   4.089  0.0414  0.0317  0.1195
21565W        W37749  14.123   2.011   3.447 -0.1129 -0.1896  0.2831
21566W        W37750   3.206   9.499  16.054  0.0757  0.0945  0.2292
21567W        W37751   1.373   9.234   3.267  0.5242  0.0788 -0.1279
21568W        W37752  10.002   0.581   1.144  0.1091  0.1153  0.2458
21569W        W37753   1.385  12.823  15.472  0.1208 -0.0343  0.3284
21570W        W37754   6.867  18.145  14.683 -0.1503 -0.0962  0.3438
21571W        W37755  14.108   6.832   0.653  0.0853  0.0754  0.4161
21572W        W37756  17.048   2.890  12.498  0.0775  0.1337 -0.3062
21573W        W37757   2.978  13.320  13.754 -0.0958  0.0331  0.0328
21574W        W37758  17.690   7.742  14.335  0.1202  0.0044  0.2675
21575W        W37759  14.026  17.668   1.002  0.1526 -0.2911  0.0627
21576W        W37760   4.073  11.717  12.105  0.1972  0.1706 -0.3216
21577W        W37761   2.182  10.639   0.467  0.0169 -0.1595 -0.0652
21578W        W37762  10.315  14.912   3.184 -0.0823 -0.1504 -0.0712
21579W        W37763   3.191  17.147   0.749  0.1599 -0.2254  0.3802
21580W        W37764   1.253  12.889  13.022 -0.3290 -0.0348 -0.2972
21581W        W37765  15.696  14.888  15.829  0.0652 -0.0762  0.1265
21582W        W37766   0.189   2.929  15.014 -0.1159 -0.2037  0.1076
21583W        W37767   4.420  17.705  14.268 -0.2786 -0.2120 -0.1435
21584W        W37768  16.477   3.245   4.268  0.0918 -0.0913 -0.0005
21585W        W37769   9.336   3.953  12.676  0.2843  0.0504  0.0919
21586W        W37770   5.005   6.327  15.764  0.4935 -0.4010  0.0965
21587W        W37771   4.741   9.020   0.489  0.0084  0.0963 -0.1394
21588W        W37772  17.756   1.099  11.776 -0.1059 -0.0305  0.2963
21589W        W37773  18.040   1.057   0.087 -0.2405 -0.0076 -0.2801
21590W        W37774   5.523   3.106  15.561 -0.3086  0.1880 -0.1371
21591W        W37775  17.183   5.853   1.331  0.1375  0.2437  0.0600
21592W        W37776  11.129   8.262   2.612  0.4049  0.3922 -0.1419
21593W        W37777   5.121   9.782  14.044  0.1169  0.1461  0.0123
21594W        W37778   3.094  17.059  13.807 -0.0122  0.0120 -0.3971
21595W        W37779   4.432  12.696  15.967  0.1319  0.2028  0.1614
21596W        W37780   0.310   1.322  14.902 -0.0107  0.0636  0.1262
21597W        W37781  16.860   3.588  13.252  0.1848  0.1122 -0.1102
21598W        W37782  12.499   9.919  15.226 -0.4072 -0.0684 -0.1490
21599W        W37783  13.687   7.950   4.056  0.0336  0.2303  0.0659
21600W        W37784  11.158   6.066   1.842 -0.1174  0.0155 -0.0710
21601W        W37785  15.939  14.648  14.057  0.0489  0.3927  0.2353
21602W        W37786  13.016  12.515  13.639  0.1700  0.1457  0.0345
21603W        W37787   9.363  16.483  14.365 -0.0315  0.2887 -0.1820
21604W        W37788   5.834   3.388   6.052  0.2132  0.1941 -0.0969
21605W        W37789   6.406   3.587  14.787  0.5608 -0.3391  0.0411
21606W        W37790  14.942   4.659   1.469 -0.3393 -0.4989  0.1793
21607W        W37791   0.088   1.694   4.094  0.1350 -0.0276 -0.0034
21608W        W37792   7.762   1.601   0.228  0.2002  0.0345  0.1707
21609W        W37793  10.067   0.703  16.515 -0.0976 -0.1064  0.2366
21610W        W37794   7.858  10.316  12.372  0.1962 -0.0577 -0.0759
21611W        W37795  17.255   7.591  11.008  0.1477  0.0609 -0.1390
21612W        W37796   8.718  13.605  15.906  0.1204 -0.0282  0.0186
21613W        W37797   0.116  14.052   3.224  0.2042  0.5534 -0.0708
21614W        W37798  11.599  14.009   0.373  0.0244  0.2447  0.1833
21615W        W37799  15.438  10.555   3.490 -0.2227  0.1451  0.1216
21616W        W37800   9.766   4.217  14.489 -0.1985  0.3408 -0.0211
21617W        W37801   9.091  14.096   0.747  0.1077  0.2036  0.1073
21618W        W37802   5.203   8.571   2.201  0.1197  0.0105  0.0061
21619W        W37803  12.704  12.726   4.272 -0.4086  0.3396  0.2462
21620W        W37804   3.681   1.878  13.250  0.0609 -0.0803  0.1845
21621W        W37805  16.050   5.159  10.902 -0.1383 -0.0670  0.3709
21622W        W37806  11.528   0.475   4.010 -0.2554  0.1001  0.0938
21623W        W37807  14.571  14.363   0.451  0.1197  0.0810 -0.1883
21624W        W37808   6.755   5.518   3.612 -0.3090 -0.2475  0.0742
21625W        W37809   5.131  11.949  11.732  0.1275 -0.1626  0.1014
21626W        W37810   9.478  10.624   3.960 -0.1446 -0.2981 -0.0708
21627W        W37811   4.213   6.004   4.177  0.0697 -0.1336  0.1450
21628W        W37812   6.671   7.066  16.213  0.1436 -0.0807 -0.0949
21629W        W37813   4.605  13.489   3.113  0.1049 -0.1397 -0.1621
21630W        W37814   9.812  12.737   4.298 -0.2418  0.0734 -0.0595
21631W        W37815   7.722   0.149  15.094  0.2050 -0.2235  0.0594
21632W        W37816   9.868  11.573   5.046 -0.0051 -0.1326 -0.0082
21633W        W37817  11.948  13.744   4.821 -0.0780  0.0278 -0.0833
21634W        W37818  10.389   7.106   1.541  0.0286  0.1529  0.2267
21635W        W37819  16.272  13.067   3.047  0.1519 -0.2160  0.1524
21636W        W37820  17.010   5.820  13.379  0.0891  0.1107 -0.0706
21637W        W37821   5.755   1.574   5.484 -0.1758  0.1242  0.1804
21638W        W37822   6.132  15.158  15.937 -0.1136 -0.0466  0.2352
21639W        W37823  17.397   4.108  13.913  0.0669  0.1466  0.4022
21640W        W37824  14.160  17.520   3.658  0.1631 -0.0882  0.1553
21641W        W37825   5.604  15.787   5.454 -0.0275 -0.0305 -0.1175
21642W        W37826   3.495  14.520  14.101 -0.0405  0.4023  0.3137
21643W        W37827  12.229   7.200   0.925 -0.0365 -0.0160  0.2671
21644W        W37828   3.005   9.905  13.498 -0.1988 -0.3301  0.1451
21645W        W37829   7.695   2.859  15.982  0.0692  0.0336  0.2635
21646W        W37830  11.806  14.595   5.992  0.1132  0.0425  0.0103
21647W        W37831   1.257  10.366  15.682 -0.3374  0.2142  0.1968
21648W        W37832   6.620  17.421   3.665  0.2458  0.0634  0.0546
21649W        W37833   3.997   8.257   5.047 -0.1227  0.0170  0.0339
21650W        W37834   5.854   3.411  15.980 -0.0139  0.0161 -0.1721
21651W        W37835   0.226  15.763   1.199 -0.2009  0.2120 -0.3639
21652W        W37836  17.286  15.411  12.503  0.1935 -0.0666  0.1425
21653W        W37837  10.613   6.931   2.649 -0.0979  0.0897 -0.2578
21654W        W37838  15.476  14.724  14.312 -0.3675  0.3463  0.0603
21655W        W37839  14.030  14.619  15.435  0.0032  0.0383  0.1579
21656W        W37840  11.132   7.494   5.595  0.0105  0.1732 -0.0642
21657W        W37841   7.314  10.821  13.904  0.2405 -0.4662  0.1436
21658W        W37842  12.109   2.849   6.112 -0.0106  0.2390 -0.2361
21659W        W37843  10.900   8.209  16.005  0.1626 -0.0193  0.3216
21660W        W37844  14.537  17.464  15.072 -0.1381 -0.1796 -0.0457
21661W        W37845  12.462   8.614   2.635  0.1470  0.5224  0.1681
21662W        W37846  11.253  10.202  15.641 -0.1983 -0.3013 -0.0736
21663W        W37847  14.767  13.257  12.468  0.0792 -0.1616 -0.2653
21664W        W37848  13.610   2.099   3.257  0.0772 -0.1774  0.0030
21665W        W37849   4.508  14.556   2.831 -0.0450  0.0807  0.0882
21666W        W37850   7.237  15.208   2.827  0.1656 -0.1362  0.1165
21667W        W37851   5.227  13.759  13.587 -0.2306  0.2195  0.0637
21668W        W37852  14.689   7.302  14.013 -0.1647  0.2548 -0.1640
21669W        W37853   3.192  12.630  15.396 -0.3160 -0.0312  0.1120
21670W        W37854   6.435  10.452  15.818 -0.1288 -0.0700 -0.0950
21671W        W37855   7.257   3.512  12.914 -0.0530 -0.1249  0.2195
21672W        W37856  12.625  15.382  12.939 -0.3171 -0.1067 -0.0560
21673W        W37857   4.488  15.543  12.373 -0.2136  0.5312 -0.1061
21674W        W37858   8.477   1.164   0.486  0.0302 -0.1652  0.0379
21675W        W37859  14.658   5.276  16.471 -0.0683 -0.0825  0.1359
21676W        W37860   3.911  11.167   3.813 -0.0174 -0.2390 -0.0660
21677W        W37861  10.803   5.201  13.398  0.0824  0.0206 -0.0442
21678W        W37862  14.365   5.194  13.790  0.1335  0.1009  0.3433
21679W        W37863  12.061  11.586  13.287 -0.1093  0.2254 -0.0892
21680W        W37864   0.225   5.983   1.216 -0.0221  0.2891 -0.1725
21681W        W37865   6.889  14.545  11.823  0.1381  0.0746  0.1624
21682W        W37866   6.211  14.174   5.885 -0.1893  0.1206 -0.0490
21683W        W37867  17.068  17.486  13.290  0.0046 -0.1718  0.1739
21684W        W37868   2.408   0.180   0.057  0.1006 -0.0492  0.1832
21685W        W37869  12.997  10.128   4.030 -0.0494 -0.2253  0.1296
21686W        W37870   1.075  13.171  15.830 -0.1191  0.2008  0.4337
21687W        W37871   4.926  17.633  16.577 -0.1434 -0.1640 -0.1276
21688W        W37872   6.828   0.699  13.525  0.0320  0.0466  0.1016
21689W        W37873   0.910  12.072  15.787  0.0175 -0.0161 -0.2428
21690W        W37874  10.716   8.656   0.588  0.2481 -0.3652  0.1561
21691W        W37875  17.655   8.326   4.271  0.0362  0.3382 -0.1751
21692W        W37876   3.681   1.685   2.437 -0.2675 -0.0963  0.2484
21693W        W37877   1.032  13.985   3.155  0.3465 -0.1896 -0.0659
21694W        W37878   2.011  13.999   1.621  0.1073 -0.0343  0.1087
21695W        W37879  10.818   1.206  13.641 -0.1471 -0.0489 -0.3452
21696W        W37880  15.044  15.093   0.293 -0.1938 -0.1996 -0.2944
21697W        W37881   7.107  10.410  15.078 -0.0732  0.1260 -0.2374
21698W        W37882  15.342   4.421   5.045 -0.1781  0.2175  0.2768
21699W        W37883  13.959   3.625  11.399 -0.1552  0.1325 -0.1121
21700W        W37884  17.428  12.164  13.338 -0.4153  0.1847  0.1449
21701W        W37885   2.134   5.926   1.925  0.1715  0.2121 -0.4024
21702W        W37886  15.925   0.218  15.059  0.0120  0.0207  0.1998
21703W        W37887   8.910  16.005  13.482 -0.0108 -0.0419  0.1389
21704W        W37888  12.126   3.011   0.531  0.1477 -0.1159 -0.0499
21705W        W37889  12.416   9.159   2.394  0.0603 -0.0010 -0.2520
21706W        W37890  13.778   3.073  11.201 -0.0716 -0.3522 -0.1448
21707W        W37891   6.797   8.836  15.589 -0.1838  0.1706 -0.1323
21708W        W37892  15.947   8.810  16.661  0.2575 -0.0614  0.2386
21709W        W37893   7.876   7.298  14.044 -0.0745 -0.3262 -0.0661
21710W        W37894   5.198  15.397  14.498 -0.1809  0.1298  0.3612
21711W        W37895   5.762   3.379   1.149 -0.3351  0.0421 -0.4458
21712W        W37896   0.470   1.633   3.720  0.1670 -0.2989 -0.1514
21713W        W37897  15.682   7.311  16.453 -0.2786  0.1568 -0.1666
21714W        W37898  17.501  12.370   4.591  0.1100  0.2125 -0.0515
21715W        W37899  14.493   8.140  15.982  0.1344 -0.0212  0.3152
21716W        W37900   3.113   7.913   0.561  0.1837  0.2200  0.6582
21717W        W37901   1.323   3.860  14.871 -0.1267 -0.1172 -0.1546
21718W        W37902  13.032   0.414   4.299 -0.1271 -0.0757 -0.0453
21719W        W37903  16.335   0.915   4.056 -0.2312 -0.0463  0.0854
21720W        W37904   7.486   3.228   4.055  0.1067 -0.0143  0.0823
21721W        W37905  16.565  10.070  16.675  0.0468  0.0425 -0.1451
21722W        W37906   1.651  10.503  14.936 -0.0316  0.1015 -0.1495
21723W        W37907   8.173   1.299  12.912 -0.2839  0.1072 -0.1545
21724W        W37908  10.447   8.761   0.155 -0.0039  0.4064 -0.0226
21725W        W37909   5.292   9.312  13.802 -0.1215 -0.2326  0.0761
21726W        W37910  10.812   0.860  14.059  0.0637  0.3497  0.1452
21727W        W37911   8.970   5.202   5.410 -0.2904 -0.1569  0.2380
21728W        W37912  10.916   8.905  16.623 -0.1208  0.1395  0.2236
21729W        W37913  15.890   3.380  13.782 -0.3348 -0.4466 -0.3450
21730W        W37914  17.883   2.950  16.422  0.0668 -0.2824  0.2430
21731W        W37915   5.924  11.543   2.796  0.1027 -0.2175  0.4894
21732W        W37916  17.194   2.359   0.602 -0.1441  0.1630  0.0850
21733W        W37917   1.643   7.970  15.455 -0.2733  0.3328 -0.1696
21734W        W37918  17.173   8.749   3.595 -0.0481 -0.0425  0.1151
21735W        W37919  13.456  10.859  16.446 -0.1551 -0.0887  0.1171
21736W        W37920   6.108  14.133  14.829 -0.0438 -0.2191  0.0587
21737W        W37921  18.109   8.985   4.405  0.3652 -0.1348  0.0183
21738W        W37922  17.992   4.147  10.712 -0.0375 -0.1705 -0.0364
21739W        W37923  12.781  17.313  13.168  0.1698 -0.1208  0.1493
21740W        W37924  15.597   6.558   2.360  0.0630  0.1735 -0.2676
21741W        W37925   5.052   9.088   1.121 -0.0662  0.4117 -0.0173
21742W        W37926  14.438  16.682  15.331 -0.2352 -0.0080 -0.1754
21743W        W37927  17.552   2.787  14.849 -0.2721 -0.1002 -0.2239
21744W        W37928  15.948   4.446  10.843 -0.3505  0.1923 -0.1790
21745W        W37929  17.812  10.980   1.972 -0.0611 -0.0224 -0.0077
21746W        W37930   9.373   7.278   5.246  0.0329  0.0625 -0.2881
21747W        W37931  13.891   4.668   1.481 -0.2833 -0.2447 -0.0929
21748W        W37932   5.435   5.362  15.645 -0.1391  0.0431  0.0440
21749W        W37933  17.306  17.100  13.721 -0.1978 -0.1068  0.1426
21750W        W37934  11.944  16.183  13.782  0.0006 -0.2497 -0.4226
21751W        W37935   1.900  11.152  15.804  0.1846 -0.0514 -0.4198
21752W        W37936   9.137   6.859  15.553 -0.1627  0.0736 -0.0936
21753W        W37937   5.302  11.580  15.050 -0.1041 -0.1412  0.0500
21754W        W37938  16.588   7.219  12.736  0.0990  0.1869 -0.1565
21755W        W37939  15.846  12.104   2.531  0.0446  0.2064 -0.1796
21756W        W37940   1.054   0.413   2.662  0.3267  0.1124  0.0361
21757W        W37941   5.392  17.960   3.697  0.1751 -0.0383 -0.2648
21758W        W37942   7.280   3.913  13.820 -0.0789 -0.4520  0.3365
21759W        W37943   9.804   0.742   2.600 -0.0689 -0.1984 -0.1873
21760W        W37944   9.199  17.715  11.792 -0.2538 -0.1342 -0.2562
21761W        W37945   3.235  15.676  14.860 -0.0893  0.0156  0.0112
21762W        W37946   4.078   7.386  15.713 -0.2073 -0.1055 -0.0435
21763W        W37947  13.746   3.138   5.213  0.3647 -0.3522  0.0046
21764W        W37948  17.460   8.904   2.569 -0.1781  0.0924 -0.2130
21765W        W37949  15.394   9.085  11.839  0.0625  0.1257  0.0078
21766W        W37950  13.370   9.339  11.275 -0.4595  0.2018 -0.0120
21767W        W37951   6.861   1.820   4.349  0.0577  0.2259  0.0375
21768W        W37952   6.823   1.265   4.196  0.3156 -0.1768 -0.0008
21769W        W37953   1.260   3.035  16.641 -0.2967 -0.0386  0.0322
21770W        W37954   3.616   8.819  14.612  0.0230 -0.0162 -0.0832
21771W        W37955   7.007   2.880  14.086  0.1490 -0.0173 -0.1564
21772W        W37956  17.718  11.185  13.008 -0.3831 -0.1954 -0.1190
21773W        W37957  16.686   3.958  11.482 -0.3253 -0.1225 -0.1637
21774W        W37958   4.238  11.166  13.054 -0.1706 -0.0464  0.1633
21775W        W37959   4.161  14.405   3.676 -0.0798 -0.2923  0.0532
21776W        W37960   1.202   7.385  11.258  0.0564 -0.1900 -0.0182
21777W        W37961   2.317  12.094   5.455 -0.2134  0.2682  0.0391
21778W        W37962   3.727   3.429  14.927 -0.0766 -0.0441  0.2439
21779W        W37963   5.916  13.270  13.276  0.1200 -0.1629 -0.1602
21780W        W37964   4.066  12.324  12.459 -0.2217  0.2065  0.0613
21781W        W37965   1.653   3.103   3.916  0.1446 -0.1132  0.5552
21782W        W37966  13.296   7.829  11.552  0.0877  0.0340  0.1392
21783W        W37967  13.192   8.077   3.254  0.2962  0.0351 -0.1089
21784W        W37968   8.105  12.373   5.399 -0.0291  0.0725  0.1272
21785W        W37969  17.093   8.588  11.624  0.0562  0.0829  0.3836
21786W        W37970   5.451   8.327  13.295  0.0229  0.0718  0.1500
21787W        W37971  13.314  12.201  13.410 -0.3418 -0.1381  0.1171
21788W        W37972   9.212  15.650  13.028 -0.3089  0.2774 -0.0631
21789W        W37973   2.067   3.408  11.992 -0.0430  0.0479 -0.1502
21790W        W37974  13.225   7.080   0.665  0.2073  0.0729 -0.3023
21791W        W37975   8.297   7.030   5.225 -0.0495  0.3222  0.1250
21792W        W37976  10.047   7.556   1.060  0.1007 -0.1877  0.0813
21793W        W37977  16.262   3.517  10.810  0.2666 -0.0861 -0.1466
21794W        W37978   8.706   5.211  13.199 -0.0402 -0.0115  0.1811
21795W        W37979  16.052   5.708  14.980 -0.0668  0.3015  0.3448
21796W        W37980   8.668  14.294   5.621  0.2095 -0.1275 -0.0660
21797W        W37981  13.296   5.176  16.556  0.0804 -0.0004  0.2062
21798W        W37982  11.450  14.279   2.770 -0.4488  0.1287  0.0870
21799W        W37983  15.840   8.206   3.361 -0.1137  0.1361 -0.2502
21800W        W37984  10.466   3.455   4.107  0.0466 -0.0595 -0.0354
21801W        W37985   6.132   2.943  15.637 -0.1000  0.1268  0.0984
21802W        W37986   8.024   9.713  15.306  0.1432 -0.3059  0.1253
21803W        W37987   1.659  14.461   3.879  0.0603 -0.1342  0.2573
21804W        W37988   5.631  15.681  12.167  0.1514  0.2348  0.1148
21805W        W37989  13.237   4.869   4.006  0.1725 -0.3470 -0.0313
21806W        W37990  14.325   2.722  14.753  0.0601  0.3150  0.1526
21807W        W37991  10.211   6.609   1.306  0.5593 -0.0728  0.2649
21808W        W37992   8.532   6.651   2.728 -0.0688  0.1173 -0.0879
21809W        W37993  17.671   8.468  15.047  0.1813 -0.0021 -0.1107
21810W        W37994  15.478   3.410  15.215  0.2573  0.3717  0.0768
21811W        W37995  13.839   0.035  14.831  0.1601 -0.2966  0.2164
21812W        W37996   7.808  17.622   1.037 -0.1724  0.1007  0.1785
21813W        W37997  11.840   0.135   1.257 -0.1262 -0.0852  0.1617
21814W        W37998  13.072  15.946   5.267  0.2714  0.0002 -0.4976
21815W        W37999  17.056   4.414  12.514 -0.0568  0.3592  0.1074
21816W        W38000   5.880   7.764   0.827  0.0227 -0.2859  0.0098
21817W        W38001   6.882  13.150  11.464  0.0929 -0.0357 -0.3886
21818W        W38002   4.581  16.833   2.802 -0.1932  0.0349 -0.2565
21819W        W38003   7.212   0.140  13.760  0.2507  0.1616  0.0114
21820W        W38004   0.999   9.745  12.608  0.2711  0.0721  0.2047
21821W        W38005   5.838  15.401   2.617  0.0102 -0.0673 -0.1041
21822W        W38006   3.740   7.181   3.825 -0.0336 -0.0156  0.1150
21823W        W38007   8.730   2.851   2.332 -0.2755  0.0291  0.0372
21824W        W38008   5.382   9.691   5.077  0.0114 -0.0721  0.0080
21825W        W38009   5.212   5.898  15.846 -0.2962 -0.0207 -0.1069
21826W        W38010   2.549  11.523   4.847 -0.0854  0.0084  0.3234
21827W        W38011  11.903   4.057   4.861 -0.2555 -0.1038  0.0367
21828W        W38012   7.184   9.626  14.620  0.1318 -0.1374 -0.0052
21829W        W38013  14.057   8.779   2.601  0.1591 -0.0538 -0.0034
21830W        W38014   7.168   3.315   3.650  0.0271 -0.0967 -0.1126
21831W        W38015   0.955  13.009   5.588 -0.0823 -0.2825  0.2282
21832W        W38016  16.594   4.892   2.904 -0.0871 -0.2512 -0.1438
21833W        W38017  17.019  14.247   3.621  0.1515 -0.2308  0.0430
21834W        W38018   5.531   0.684  15.014  0.1865 -0.0118 -0.0717
21835W        W38019   3.168  13.454   2.888  0.2245 -0.1814 -0.0519
21836W        W38020   6.095  12.350   3.568 -0.1146 -0.0314  0.1324
21837W        W38021   3.860   1.921   3.508 -0.1082  0.2020  0.0183
21838W        W38022   1.066   4.456  13.522 -0.2088 -0.0674  0.0218
21839W        W38023   0.208   6.608  14.369  0.1037 -0.2263 -0.0351
21840W        W38024  12.347   4.112   0.929 -0.1906  0.1047 -0.1358
21841W        W38025  18.097   5.604   3.119  0.3896  0.1187 -0.0435
21842W        W38026  12.367  11.037  13.652 -0.5344 -0.0291  0.3651
21843W        W38027  17.015  16.424   1.038 -0.2331  0.1370  0.1049
21844W        W38028   5.586  16.474  12.785 -0.1391 -0.2341  0.4394
21845W        W38029   4.513  16.604   0.991  0.1798  0.2313 -0.0642
21846W        W38030  17.789   7.757  11.034  0.1298  0.2809  0.0375
21847W        W38031   4.325  17.098   0.248  0.0888  0.2275  0.0164
21848W        W38032   5.116   9.683   3.601 -0.0328 -0.0565 -0.3506
21849W        W38033   0.412   4.572  16.180  0.0267 -0.1574  0.2026
21850W        W38034  10.183  13.241   4.518  0.3183 -0.0842 -0.0328
21851W        W38035   1.377   8.120   2.112  0.2066  0.1422 -0.2586
21852W        W38036  15.778  10.583   6.270 -0.1801 -0.2734 -0.1673
21853W        W38037  10.711  12.103  12.347  0.3636  0.0378  0.0574
21854W        W38038  14.881   7.844  15.761  0.0108 -0.0535 -0.1558
21855W        W38039  16.793   4.882  13.208  0.0483 -0.0686 -0.0961
21856W        W38040   6.136   1.023  13.324  0.0318  0.0430  0.6002
21857W        W38041  15.345   0.305   2.880  0.2057  0.0219  0.1533
21858W        W38042  10.406   7.758  14.405 -0.2268 -0.1172 -0.0380
21859W        W38043  12.469  12.469   0.441 -0.0028 -0.0484  0.2648
21860W        W38044  17.445  10.415   2.524  0.1110 -0.0378  0.5159
21861W        W38045  10.410   7.839  14.918 -0.2162  0.0802  0.0751
21862W        W38046  10.650   0.876   4.387 -0.2949 -0.1496 -0.1413
21863W        W38047   1.381   0.714   0.171  0.2961 -0.1470 -0.0593
21864W        W38048  13.051  14.172  14.759  0.0731  0.1479  0.0335
21865W        W38049  15.847  15.325   5.110  0.0253 -0.3899  0.0112
21866W        W38050   8.190  15.262   2.811 -0.0106 -0.0404  0.0058
21867W        W38051   9.437  11.874   3.277  0.1153 -0.0487  0.4452
21868W        W38052  18.132   1.913  16.122 -0.1901 -0.1415 -0.2767
21869W        W38053   3.807  14.036   2.968 -0.2269  0.1408  0.0799
21870W        W38054  17.300   8.361   0.409  0.2854 -0.2237  0.1287
21871W        W38055   2.737   4.401   3.481  0.2253 -0.1002 -0.0816
21872W        W38056  11.749   8.466   4.700  0.0659 -0.3262 -0.1337
21873W        W38057  16.712   8.620   1.559 -0.3025 -0.1038 -0.2571
21874W        W38058   2.576   8.191   4.636  0.1065  0.1412  0.1703
21875W        W38059   7.772  14.013  16.508 -0.2001 -0.0279 -0.0380
21876W        W38060   9.702   3.529  13.441 -0.1635  0.3641 -0.1834
21877W        W38061  12.796  16.535   4.861 -0.0450 -0.0261  0.0028
21878W        W38062   5.423  14.560   1.413 -0.2654  0.1690 -0.0776
21879W        W38063  11.320  13.465   1.505 -0.0325  0.0211 -0.2961
21880W        W38064  14.811   3.809   2.577 -0.0617 -0.6038  0.0702
21881W        W38065  17.689   4.058   4.611 -0.2549  0.2042 -0.0680
21882W        W38066  15.320  14.323  13.404  0.2411 -0.1178 -0.2278
21883W        W38067  14.036  12.549  16.508  0.4285 -0.0342 -0.1087
21884W        W38068   9.985   7.992  13.023  0.2441  0.2261 -0.0157
21885W        W38069  14.644  12.076  14.585 -0.6883  0.1706  0.1423
21886W        W38070   1.245  17.522   2.355  0.2581  0.0905  0.1290
21887W        W38071   4.059  16.649  13.746  0.1720  0.0085  0.0014
21888W        W38072  12.804   7.524   6.244 -0.0236  0.3998  0.0412
21889W        W38073  17.937  17.961   2.599 -0.0706 -0.0340 -0.1331
21890W        W38074  17.485  14.632   6.374 -0.1317 -0.3197  0.0375
21891W        W38075  10.792  16.287   3.163  0.0591 -0.1236  0.0803
21892W        W38076  17.762   0.322   4.460 -0.1978  0.1543 -0.0592
21893W        W38077   5.760   4.626   3.650  0.0240 -0.1510 -0.2424
21894W        W38078   3.645  16.799   3.675  0.0314  0.2973 -0.1572
21895W        W38079  12.418  17.252  16.358  0.0861  0.2751 -0.3272
21896W        W38080  10.153   3.505  14.270  0.0237  0.0992 -0.0716
21897W        W38081  12.183  13.746   2.458 -0.1894 -0.1852 -0.1439
21898W        W38082   1.769   5.375   1.285 -0.0852 -0.0072 -0.1019
21899W        W38083  15.536   2.009  14.630 -0.0076  0.1941 -0.1943
21900W        W38084   5.891   0.429  15.454  0.2086 -0.0809 -0.1885
21901W        W38085   1.269  13.801  15.091  0.1564  0.2457 -0.1420
21902W        W38086  17.506   6.104  10.372 -0.1102  0.1956  0.0330
21903W        W38087   6.183  17.819   1.523  0.1115 -0.0269  0.0150
21904W        W38088   7.887   8.985   5.226 -0.3232  0.0876 -0.1342
21905W        W38089   6.535   0.482  15.988 -0.0184  0.0011  0.2108
21906W        W38090  11.065  10.372  12.047 -0.1212 -0.1172  0.0514
21907W        W38091   7.959   2.549  12.387 -0.3466  0.0373 -0.2605
21908W        W38092  12.179   9.307  12.051  0.2605 -0.1731 -0.1042
21909W        W38093  12.008   5.604   1.858 -0.0021  0.1611  0.1190
21910W        W38094   6.221   5.358   4.584 -0.0158  0.0189 -0.1632
21911W        W38095  13.927   2.040   1.971 -0.1268 -0.2496  0.0545
21912W        W38096   3.644  14.404  11.890  0.0310  0.2969 -0.0443
21913W        W38097  10.507   1.518   4.907  0.0836 -0.0426  0.2181
21914W        W38098   7.902   6.425  11.666  0.0665  0.0285 -0.0414
21915W        W38099   4.892   0.501  15.539 -0.0770 -0.2670 -0.1253
21916W        W38100   0.198   8.411   2.598 -0.0071 -0.2138  0.0446
21917W        W38101   2.054  11.219   1.828  0.0076  0.1234  0.1818
21918W        W38102   2.115  11.721   1.808 -0.2673  0.1519  0.1919
21919W        W38103   1.537  16.390   2.048 -0.4032 -0.0278  0.0380
21920W        W38104  11.431   5.218   3.848 -0.6638 -0.0366  0.2662
21921W        W38105  10.512  16.993   5.660 -0.0110 -0.0920  0.2295
21922W        W38106  18.132   5.821   2.043  0.2233 -0.2253  0.1269
21923W        W38107  12.376   9.457   4.367 -0.0942 -0.1652 -0.2765
21924W        W38108   2.335  17.368  14.525  0.0698 -0.2280  0.0644
21925W        W38109   2.586  15.251  12.982  0.0679  0.0760  0.1821
21926W        W38110   1.598  14.400   5.328  0.0764  0.5457  0.0615
21927W        W38111   3.625   8.981   0.691  0.1949  0.1168  0.2477
21928W        W38112  13.073   9.209  11.660 -0.0908 -0.0063 -0.1913
21929W        W38113   4.950  17.606   4.738 -0.1564  0.0495  0.0308
21930W        W38114  14.776  10.705   1.415 -0.3352 -0.1254 -0.0273
21931W        W38115  11.264   4.296   4.181  0.3959  0.4171 -0.1716
21932W        W38116  13.148   6.686  14.959 -0.0339  0.2230  0.1864
21933W        W38117   6.736   5.102   5.061 -0.1895  0.0376 -0.2339
21934W        W38118  10.502   3.714   4.550  0.1379  0.0947  0.3085
21935W        W38119   3.672   7.850  16.106  0.1172 -0.0921  0.1020
21936W        W38120  12.338   1.145  15.736 -0.1007 -0.0709 -0.1673
21937W        W38121  11.651  17.423  13.319  0.0277 -0.1430 -0.0167
21938W        W38122  14.966  12.774  12.621  0.0728 -0.1693  0.0310
21939W        W38123   4.949   7.805  11.517 -0.0627  0.0798  0.0719
21940W        W38124  15.406  15.936  14.563 -0.3786 -0.0657  0.3195
21941W        W38125  13.748   0.134  12.678 -0.2081 -0.0591  0.1874
21942W        W38126   4.022   3.522   5.957  0.3345  0.3768  0.1166
21943W        W38127   7.657   8.124   1.598  0.1182 -0.0516 -0.1156
21944W        W38128  16.021  10.747   4.341 -0.2093  0.0116 -0.1407
21945W        W38129   9.296  10.876  12.395 -0.2101  0.1184 -0.3191
21946W        W38130  11.650  11.141   0.687 -0.0764 -0.2639 -0.1645
21947W        W38131   2.587  13.070   5.655 -0.1284 -0.5225 -0.1710
21948W        W38132  12.651   3.874   3.295 -0.2077 -0.2843  0.0409
21949W        W38133  17.617   1.079  13.580 -0.1416  0.0560  0.2906
21950W        W38134   9.805   6.543  14.923  0.2015 -0.0331 -0.2635
21951W        W38135  17.959   0.279  16.408  0.1540 -0.0407  0.2867
21952W        W38136   0.157  17.571  13.659  0.2623  0.1369  0.0594
21953W        W38137  12.231   5.654   4.532 -0.2828  0.0129  0.0800
21954W        W38138   8.342   6.513  15.012  0.0449 -0.2125  0.1723
21955W        W38139   3.971  12.876   3.091 -0.4109 -0.0523 -0.0580
21956W        W38140   3.185  11.618   5.140 -0.1374  0.2103 -0.1531
21957W        W38141  13.359  18.036   1.316 -0.0915  0.1132 -0.1814
21958W        W38142  16.490   2.967  14.937  0.2440 -0.1357 -0.0224
21959W        W38143  17.261  10.399  13.341 -0.2883  0.0744  0.2594
21960W        W38144   3.881   0.224   5.381 -0.0791  0.0715  0.1219
21961W        W38145   4.248  17.709  12.040  0.0932  0.0773 -0.0321
21962W        W38146  14.768   7.883  13.140  0.1557 -0.0797 -0.0777
21963W        W38147  16.463  17.558   5.351 -0.4168 -0.0434 -0.3854
21964W        W38148   2.938   7.063  15.404 -0.1686  0.1805 -0.2609
21965W        W38149  10.136  16.134  15.361 -0.2727  0.0724  0.1180
21966W        W38150  12.314   9.940   0.896 -0.2699 -0.1409  0.0225
21967W        W38151   2.167   1.065  12.887 -0.2525 -0.3651 -0.1871
21968W        W38152   2.182   0.908   1.406 -0.2891 -0.0314 -0.0580
21969W        W38153  13.271  10.458   0.110 -0.0619 -0.1586  0.0443
21970W        W38154   1.523   3.839  12.510 -0.0242  0.0224  0.0257
21971W        W38155   4.395   9.168  13.460 -0.0524  0.2361 -0.1202
21972W        W38156   6.105  11.754   3.853 -0.0637 -0.1058 -0.0131
21973W        W38157   5.951   7.278   5.667  0.2204  0.1638 -0.0844
21974W        W38158  16.645  14.685   0.317  0.0569  0.2303  0.4186
21975W        W38159   8.000   6.181  13.859 -0.0467 -0.5148 -0.1580
21976W        W38160  15.663   4.912  16.261  0.3592 -0.2495 -0.0487
21977W        W38161   4.174   5.366  13.519 -0.0913 -0.1147 -0.1159
21978W        W38162   4.388   5.971  14.139 -0.0779  0.1447  0.0825
21979W        W38163  11.144  14.979  12.079  0.3399 -0.0223 -0.1805
21980W        W38164  13.059   2.868  14.708 -0.0492  0.1849 -0.0827
21981W        W38165   2.389   3.485   2.192  0.0818  0.0244 -0.0461
21982W        W38166   3.228  12.259  14.026 -0.1917  0.2997  0.1139
21983W        W38167  10.949  18.019   3.310  0.2642 -0.0241  0.0006
21984W        W38168   9.481  14.695  16.589  0.0995  0.0087  0.1560
21985W        W38169   5.704   4.370   0.301  0.0556  0.0350  0.0062
21986W        W38170  14.411   1.133   4.676 -0.0812  0.1240  0.0169
21987W        W38171   2.928  11.213   4.978 -0.2381 -0.0553  0.0735
21988W        W38172  13.079   0.902   0.747 -0.1022 -0.3810 -0.3087
21989W        W38173   0.225   6.688  14.866  0.0104 -0.0216  0.1604
21990W        W38174   4.825  13.274   3.577  0.4435 -0.0753 -0.1256
21991W        W38175   9.115  13.203   0.596  0.1313 -0.1006  0.3094
21992W        W38176   3.525   6.282   1.231 -0.1689 -0.0509  0.0992
21993W        W38177  14.528   6.665   4.915  0.1334 -0.4283 -0.1993
21994W        W38178  14.679  12.288  11.421 -0.2438  0.0553  0.0098
21995W        W38179  17.479  12.405  13.767  0.0032 -0.2507  0.1546
21996W        W38180   4.492   3.317  16.120  0.0783  0.0773 -0.0907
21997W        W38181   0.488  14.524  15.209 -0.0323 -0.0053  0.1966
21998W        W38182  16.141  16.529   3.532  0.1066 -0.2906 -0.1330
21999W        W38183  15.906   8.189  15.977 -0.1129  0.1481 -0.2806
22000W        W38184  11.672   4.124  12.497 -0.3139 -0.0913 -0.3487
22001W        W38185  17.832   8.392   2.065  0.1440  0.0106  0.0065
22002W        W38186  11.316   7.428   4.326  0.0260  0.3096 -0.3054
22003W        W38187   9.709   7.143   0.905  0.0383 -0.1001  0.0484
22004W        W38188   3.543   2.674  11.148  0.3782 -0.2228 -0.0066
22005W        W38189  15.292  15.630   5.896 -0.0773  0.1418 -0.0739
22006W        W38190   7.597   6.292  13.021  0.3317 -0.2112  0.0292
22007W        W38191   3.072   6.045   1.207 -0.0779  0.2822  0.1473
22008W        W38192   8.885  14.131  14.795 -0.0418  0.2368  0.1446
22009W        W38193  13.970  12.568  14.728  0.0206 -0.0710  0.1806
22010W        W38194   4.619  14.835   5.563  0.1012  0.2251  0.1733
22011W        W38195   5.546  16.141   1.679  0.0457  0.1442 -0.0135
22012W        W38196  14.412  17.626   4.096 -0.0837  0.4254 -0.0717
22013W        W38197   3.874   1.848  13.749 -0.2730  0.0617  0.2765
22014W        W38198   2.780   5.443  14.559 -0.0992  0.0806  0.1528
22015W        W38199   0.406  15.140   1.229  0.0284  0.1124  0.1423
22016W        W38200  13.758  15.369  12.105 -0.0979 -0.3837  0.0946
22017W        W38201  13.352   2.546  12.222 -0.3698 -0.1841 -0.0481
22018W        W38202  13.167  10.713  15.838 -0.1431 -0.0510  0.0561
22019W        W38203   9.781   7.222  15.490 -0.1914  0.3076 -0.0165
22020W        W38204  17.535   5.588  12.058  0.2395  0.0856  0.4872
22021W        W38205   1.085  17.494   1.907  0.1582  0.0572  0.1794
22022W        W38206   5.600   3.063   1.951 -0.2227 -0.1304  0.0234
22023W        W38207   0.807  14.613  13.206  0.0907 -0.0307 -0.0208
22024W        W38208   7.442   8.047   3.590 -0.1406 -0.0965 -0.2289
22025W        W38209  12.328  15.191  15.832 -0.1816 -0.3925  0.5014
22026W        W38210  10.832  12.532   5.098  0.1091  0.1145  0.2398
22027W        W38211   3.279   4.319  15.065 -0.2764  0.1606 -0.2001
22028W        W38212   3.289   0.440   2.466  0.1872 -0.1559 -0.1282
22029W        W38213   6.484   2.952   3.927  0.2747  0.2317 -0.3451
22030W        W38214   1.238   8.357   1.667  0.2248 -0.0001 -0.0774
22031W        W38215  12.789  17.338   3.858  0.1122 -0.0763 -0.0990
22032W        W38216   0.429   0.428  14.683 -0.1387  0.3604  0.3777
22033W        W38217  15.453   4.941  15.806 -0.0396 -0.0545  0.0410
22034W        W38218   3.198  14.865   5.004  0.1464  0.1084 -0.0514
22035W        W38219  13.282   5.917   1.454 -0.2433 -0.3225  0.2102
22036W        W38220   4.423   0.694   4.474 -0.5402 -0.0516 -0.0468
22037W        W38221  13.640   8.768  14.808  0.1352 -0.0460  0.1436
22038W        W38222  10.200   3.743   1.969  0.2446  0.2074  0.1401
22039W        W38223  15.296   2.899   1.924  0.2133  0.2846 -0.1492
22040W        W38224  12.791  12.754   6.014 -0.0998  0.4964  0.0184
22041W        W38225   8.221   5.282   4.315 -0.1686 -0.0114  0.0278
22042W        W38226  10.258  15.896   3.644  0.1573  0.1908  0.2302
22043W        W38227  17.498   7.891   5.349  0.2976  0.4634  0.4929
22044W        W38228  13.811   8.828   3.659 -0.0096  0.0981  0.2502
22045W        W38229   2.645   2.722  15.364 -0.0026  0.0407  0.0665
22046W        W38230  14.916  10.098   2.754  0.0341  0.0271  0.1565
22047W        W38231  16.348   2.183  10.949 -0.1416  0.2982  0.0713
22048W        W38232  10.128  13.161  11.736 -0.0961  0.0539  0.0572
22049W        W38233  12.092   6.408   1.328  0.0295 -0.0915 -0.2910
22050W        W38234   6.210  17.561   2.064  0.2950  0.2909 -0.3302
22051W        W38235   9.690   2.942   0.587 -0.0600 -0.0120  0.0836
22052W        W38236  12.259   5.439  15.465 -0.1601  0.0193  0.1499
22053W        W38237   7.020  12.711   4.609  0.0973 -0.2680 -0.1483
22054W        W38238  17.639  15.229   2.919 -0.1444  0.3370  0.2431
22055W        W38239  11.762   3.598   4.057  0.0772 -0.2241  0.0710
22056W        W38240  14.754  10.229   1.599  0.0847 -0.0369 -0.1068
22057W        W38241   8.262   4.006  13.453  0.3235  0.2328  0.0148
22058W        W38242   2.071   8.356  12.488 -0.2902 -0.2220 -0.2986
22059W        W38243  13.441  11.520   1.964  0.1616 -0.1531  0.0314
22060W        W38244   0.812   1.940  14.457 -0.0277  0.1663  0.2400
22061W        W38245   2.801  10.864  13.145  0.0580  0.0511 -0.0974
22062W        W38246  10.343  12.773   4.274 -0.1065  0.0825 -0.1410
22063W        W38247  14.026  15.857   3.098  0.0181 -0.2179  0.0981
22064W        W38248   9.435  15.481   4.875  0.0159  0.0396 -0.0412
22065W        W38249   8.842   9.345  13.226 -0.0234  0.3104 -0.0283
22066W        W38250  12.112   9.567   2.641 -0.1508 -0.1044  0.1180
22067W        W38251  15.325  15.118  12.895  0.0871  0.0049 -0.1207
22068W        W38252  17.667  14.966  15.871 -0.0110  0.3024  0.2050
22069W        W38253   0.133  13.534   1.911  0.1009 -0.1698  0.2546
22070W        W38254  10.491   8.638   3.700 -0.2242 -0.1621 -0.0482
22071W        W38255  13.723  10.455  14.812 -0.0777 -0.1960 -0.3610
22072W        W38256   3.959   9.943  15.524 -0.3347 -0.0179  0.0167
22073W        W38257  16.338   2.279  15.781  0.0633 -0.0137  0.0983
22074W        W38258   9.650   7.043   4.229  0.1788  0.1049 -0.0153
22075W        W38259  18.000  17.895  15.454  0.0217 -0.0030  0.1647
22076W        W38260   5.782   6.944  16.633  0.4150 -0.0792 -0.0753
22077W        W38261   9.887   3.270   5.120 -0.2123 -0.1546  0.3355
22078W        W38262  14.895  16.270   1.953 -0.0532 -0.1141 -0.0100
22079W        W38263   0.357  17.988  15.265 -0.2209  0.0778 -0.1826
22080W        W38264   9.694   4.362   6.083  0.2752  0.0044 -0.0536
22081W        W38265   3.525   9.328  14.455  0.1009  0.1645  0.1819
22082W        W38266   1.808   0.196   4.647 -0.0826 -0.0250 -0.1032
22083W        W38267   2.198   9.642   0.397 -0.1081  0.1842 -0.1982
22084W        W38268   5.501   7.794   3.807  0.1929 -0.0869  0.2815
22085W        W38269  14.668  14.150   4.768  0.0479  0.0296 -0.1566
22086W        W38270  15.487   3.435   0.527 -0.0560  0.0213 -0.0684
22087W        W38271   5.912  13.788  13.473 -0.4808  0.0226 -0.1826
22088W        W38272  10.654   0.381   3.099 -0.0063  0.0300 -0.4117
22089W        W38273   7.192  16.236  14.060  0.1581 -0.0078 -0.3214
22090W        W38274  12.969  16.758  16.597  0.3135 -0.0775  0.1361
22091W        W38275  15.263   7.104   1.505 -0.1468 -0.2654 -0.0002
22092W        W38276  15.315  11.417  13.493  0.0008 -0.3815 -0.3688
22093W        W38277  17.821  17.245   2.133 -0.1926 -0.0183  0.2724
22094W        W38278  15.932  17.249  15.661 -0.1019 -0.0719  0.2078
22095W        W38279   9.136  10.776   3.452  0.0779 -0.1822  0.1474
22096W        W38280   1.235   1.607   1.524 -0.2292  0.5963  0.0629
22097W        W38281   9.665  16.699  11.891 -0.2410 -0.0097 -0.1214
22098W        W38282  13.954  12.331  13.927  0.0262  0.0374 -0.1574
22099W        W38283  16.943   8.180  13.623  0.1516  0.0719 -0.1507
22100W        W38284  13.681  14.573  15.917 -0.1210 -0.2559  0.3533
22101W        W38285   7.759   7.883  12.321  0.1061  0.0531 -0.1350
22102W        W38286  16.265  17.509  12.005 -0.2382 -0.2179  0.1327
22103W        W38287  10.215  10.822   4.760  0.0813  0.1823 -0.5558
22104W        W38288  15.890  16.664   1.250  0.4629 -0.2936  0.3398
22105W        W38289  13.202  12.196  12.535 -0.3266  0.2752 -0.4039
22106W        W38290  11.374  14.132   3.500 -0.0886  0.0519 -0.0374
22107W        W38291  13.306  10.168   4.846  0.0785  0.1406 -0.1976
22108W        W38292   8.167   6.885  12.500 -0.0808  0.0271  0.1036
22109W        W38293  13.413  15.931  15.691  0.1555  0.2715  0.0073
22110W        W38294  13.347   1.584   4.270  0.0038  0.0640  0.0492
22111W        W38295   8.471   2.479  15.748 -0.0371  0.1955  0.4878
22112W        W38296   8.923   3.614   2.896  0.3686  0.2751 -0.2268
22113W        W38297   2.030   8.805   1.877 -0.1360  0.2294 -0.3114
22114W        W38298  14.073   1.036   3.950  0.4166  0.0242  0.1468
22115W        W38299   7.502   1.091   1.548 -0.0213 -0.1264 -0.0421
22116W        W38300   4.925   4.625   1.914 -0.1182 -0.0145 -0.0875
22117W        W38301   5.020  16.158   2.423  0.0362  0.1281  0.0511
22118W        W38302  14.261   2.884  16.362  0.0473  0.0630 -0.0173
22119W        W38303   2.382   4.063   1.704  0.0856 -0.0758  0.0581
22120W        W38304  13.878  17.351  16.160  0.1618  0.0014 -0.0903
22121W        W38305  11.659   6.622  14.971 -0.0231  0.1453 -0.0231
22122W        W38306   7.351  16.540  15.740  0.1139 -0.0374 -0.1968
22123W        W38307   3.206  13.089  12.682 -0.2326 -0.0567 -0.0530
22124W        W38308   1.173  13.912  14.115 -0.1256 -0.0818 -0.0330
22125W        W38309   9.892   8.249  11.804  0.0633 -0.1403  0.0755
22126W        W38310  12.820  10.247   0.243  0.1809 -0.2618 -0.0459
22127W        W38311  13.714   9.770  14.684 -0.2177 -0.0744 -0.0954
22128W        W38312   5.318  10.925   2.618  0.3869  0.0345  0.2357
22129W        W38313   2.296   1.440  15.237  0.1838 -0.1599  0.1071
22130W        W38314  13.537  11.062  12.786 -0.2928  0.0564 -0.0594
22131W        W38315  15.325   7.673   1.539  0.1835  0.1228  0.0372
22132W        W38316  10.944  14.169   4.381 -0.1230  0.0699  0.1542
22133W        W38317  15.371   1.721  10.195 -0.1967  0.1019  0.0152
22134W        W38318  16.115   9.736   5.310 -0.2496  0.0345 -0.3297
22135W        W38319   6.409  17.843  14.528 -0.2119 -0.1334 -0.1086
22136W        W38320  17.864  17.812  12.903 -0.0621  0.0729 -0.3426
22137W        W38321   4.891   3.822  12.621  0.1755 -0.1653  0.4030
22138W        W38322   8.017   1.051  14.428 -0.1920 -0.1679 -0.2883
22139W        W38323   1.276  16.793   1.901  0.1183  0.0444  0.0382
22140W        W38324  17.151   8.825  11.126 -0.1596  0.0117  0.1012
22141W        W38325  14.889  13.773  12.807  0.2007  0.3877  0.1134
22142W        W38326   1.034  13.100  14.142  0.0100  0.2264 -0.0733
22143W        W38327   0.297  14.704   0.901  0.1476  0.0913 -0.0898
22144W        W38328   9.489   4.595   1.228 -0.1744  0.0603  0.2613
22145W        W38329   3.200   3.204  12.847  0.2443 -0.0894 -0.0767
22146W        W38330   6.609  15.906   0.275 -0.0427 -0.4000 -0.2557
22147W        W38331  15.572   1.937   2.103  0.3127  0.1590  0.0913
22148W        W38332  15.770   3.835   3.355 -0.0896 -0.1390 -0.0649
22149W        W38333  13.818   0.052  11.876  0.3278  0.0032  0.0731
22150W        W38334   8.948   9.227   0.902 -0.1247 -0.0731  0.3025
22151W        W38335  12.274  17.954  11.633 -0.0220  0.0309  0.0509
22152W        W38336  12.047   6.837  13.449  0.1755  0.0073 -0.0641
22153W        W38337  13.508   9.970   1.840 -0.1087  0.0758  0.0791
22154W        W38338   0.127   0.379  12.383  0.1472  0.1112  0.1057
22155W        W38339   9.122   1.601   3.141  0.0384  0.2145 -0.0868
22156W        W38340  14.645   9.601  12.985  0.0265 -0.0455  0.1211
22157W        W38341   3.908   1.940   4.061 -0.1314  0.0952 -0.2190
22158W        W38342  15.000  16.399  14.638 -0.0743  0.1202 -0.1678
22159W        W38343  16.057   8.844   5.648  0.2462 -0.2336 -0.0629
22160W        W38344  17.426   9.805   1.299  0.2202  0.1411  0.2452
22161W        W38345   0.280  12.028   3.571  0.2992  0.1774 -0.0638
22162W        W38346   0.433  16.046  11.596  0.1031  0.1962  0.0341
22163W        W38347  10.885  10.543   0.733  0.2970  0.0198  0.0817
22164W        W38348  15.130   6.141   1.486 -0.0565  0.1083  0.0530
22165W        W38349  14.877   0.566  13.325 -0.0913  0.0209  0.0233
22166W        W38350  10.335   5.957   0.708 -0.1580 -0.1057  0.0821
22167W        W38351   3.799  13.583  12.197 -0.0918  0.3376  0.1650
22168W        W38352   3.240  15.953   1.170  0.2005  0.0379  0.3421
22169W        W38353   0.056  15.721  14.672 -0.0710 -0.0019 -0.0923
22170W        W38354   9.391  17.504   4.261 -0.3278  0.1873  0.0465
22171W        W38355   0.669   3.747  13.144  0.0092 -0.1570 -0.1064
22172W        W38356  10.730  10.789  15.739  0.0153 -0.3268  0.0754
22173W        W38357  17.677   0.818   4.299 -0.1468  0.0492  0.3231
22174W        W38358  14.560   4.891   1.167  0.3570  0.4299 -0.0722
22175W        W38359  16.243   3.858  15.402  0.3687 -0.0421 -0.2174
22176W        W38360  17.733   6.989   1.406  0.3075 -0.0780  0.1596
22177W        W38361   8.354  11.486   4.407  0.1962 -0.4034 -0.2009
22178W        W38362   5.102   5.742  13.351 -0.1352 -0.2788 -0.0668
22179W        W38363  13.453   9.071  13.954 -0.5342  0.0354  0.1049
22180W        W38364   7.633   8.089   2.984 -0.1224  0.3886  0.1350
22181W        W38365  13.881  13.611   5.013 -0.0957 -0.0671 -0.0818
22182W        W38366  13.793   0.558  12.146 -0.4507 -0.0880 -0.0649
22183W        W38367  16.720   7.690   1.853 -0.4128  0.0590  0.2187
22184W        W38368  12.320   3.144  15.579  0.0651 -0.0452 -0.0577
22185W        W38369   4.237   0.728  16.356 -0.0139 -0.1549 -0.1583
22186W        W38370   1.636   6.219  11.641  0.1872 -0.2241 -0.0855
22187W        W38371   1.833  14.776   1.638  0.0448 -0.1697  0.1996
22188W        W38372   1.121   1.161   2.212  0.0242  0.2097  0.4965
22189W        W38373  17.679   8.235  16.495  0.1763  0.1118 -0.1338
22190W        W38374  14.686  17.703   1.774  0.1455 -0.0230  0.0525
22191W        W38375   3.230   9.540   5.190 -0.3579 -0.0266  0.1882
22192W        W38376   9.024  12.261  12.563  0.0376  0.1320  0.0754
22193W        W38377  10.520   7.629   1.431 -0.0732 -0.1706  0.1925
22194W        W38378   7.830   4.975   2.786  0.0785  0.0505  0.1238
22195W        W38379   5.306  13.569   3.451 -0.2723 -0.2349  0.0820
22196W        W38380  14.673  17.449  12.735 -0.0139 -0.0878 -0.0097
22197W        W38381  17.466   8.753  14.661  0.0669 -0.0197 -0.1777
22198W        W38382  15.500   1.465  13.844  0.2028  0.3579 -0.2157
22199W        W38383  13.691   6.518   3.495  0.1817 -0.1451 -0.3819
22200W        W38384   7.757  17.105   1.086  0.2633  0.0057 -0.0030
22201W        W38385   4.193  18.041   1.755 -0.0513  0.1590 -0.2717
22202W        W38386   8.045   9.060  15.232  0.2177 -0.1798 -0.2261
22203W        W38387  15.464  13.513  12.967  0.0633 -0.2920 -0.0219
22204W        W38388  12.454   4.675   4.233 -0.1058 -0.0339 -0.1220
22205W        W38389  14.718   6.953   4.419  0.1441  0.1418  0.2092
22206W        W38390   2.917  14.191   2.203 -0.1567 -0.3777  0.0542
22207W        W38391  11.251   2.223  15.306  0.1687 -0.0792 -0.1575
22208W        W38392  10.936  12.978   5.430  0.0237  0.0729 -0.2511
22209W        W38393  13.875   2.211  11.537 -0.0528 -0.0595 -0.0274
22210W        W38394  10.173  16.127  13.602 -0.0138 -0.1946 -0.0503
22211W        W38395  15.271   1.933   3.638 -0.2350  0.2414  0.1175
22212W        W38396   7.923   9.171   3.773  0.0903  0.2261 -0.0662
22213W        W38397   8.590   5.336   1.751  0.1882  0.0498 -0.1018
22214W        W38398   0.125   1.318   2.967  0.0284 -0.0221  0.1662
22215W        W38399   0.591   7.351  13.893  0.0210  0.0422  0.2015
22216W        W38400  10.233  12.760   4.814 -0.2676 -0.0121 -0.0547
22217W        W38401   4.765   4.156  13.061 -0.2311 -0.2979  0.0713
22218W        W38402  10.491   9.027   1.405  0.1378  0.1463 -0.0614
22219W        W38403  11.212   6.453   4.390 -0.0177  0.1719  0.0589
22220W        W38404   0.649   1.399   0.016 -0.1908 -0.0535  0.0305
22221W        W38405  15.400   3.850   1.337  0.0004 -0.5081  0.0999
22222W        W38406  13.869  17.178   6.142  0.2517  0.2631 -0.0968
22223W        W38407  15.067   6.151  16.339  0.0743  0.0030 -0.0517
22224W        W38408  16.269   2.501   4.154  0.1164  0.0093  0.1524
22225W        W38409  12.466   5.169  13.003 -0.0242 -0.0733  0.4279
22226W        W38410  10.403   0.568  14.011 -0.1157  0.2481 -0.2153
22227W        W38411  18.170  14.311  13.930 -0.1359 -0.0904 -0.1457
22228W        W38412   4.456   7.068  14.303  0.1591 -0.0689  0.0303
22229W        W38413   1.556   7.853   1.677 -0.0033  0.1712  0.2902
22230W        W38414  12.079  13.800   1.108 -0.0499 -0.0671  0.1479
22231W        W38415   1.374   5.711   3.089  0.0973  0.3012 -0.0817
22232W        W38416   4.816   1.292   2.354 -0.2159 -0.0015 -0.0168
22233W        W38417  18.096   9.945  15.277  0.1126 -0.3358 -0.1229
22234W        W38418  11.955   1.810  12.789 -0.3873  0.0622 -0.0818
22235W        W38419  18.051   0.918  13.810 -0.0891 -0.2301 -0.0993
22236W        W38420   5.643  12.372   1.801  0.3084  0.3176  0.1377
22237W        W38421   3.795  12.371  13.560 -0.0050  0.0237 -0.0299
22238W        W38422   6.533   2.155   4.950  0.2431  0.4468 -0.3038
22239W        W38423  14.512  11.705   1.405 -0.0816 -0.3160 -0.1086
22240W        W38424   2.680   1.119   2.445 -0.1065 -0.1905  0.1716
22241W        W38425   5.289  17.362   1.615 -0.1150  0.0213 -0.0309
22242W        W38426   6.682   6.090  12.480 -0.2096  0.0434 -0.0975
22243W        W38427   2.557  16.071   3.748  0.0018 -0.4318  0.0178
22244W        W38428   4.884   3.015  16.084  0.2464  0.4837  0.1576
22245W        W38429   9.667  13.110   4.792 -0.1608  0.0749  0.0316
22246W        W38430   4.840  10.595  13.263  0.0007 -0.0110  0.1497
22247W        W38431  17.427   0.797  14.229  0.2254  0.1409 -0.1281
22248W        W38432  16.402   5.186  14.624  0.5771 -0.2912  0.5133
22249W        W38433   9.749  12.648   4.780  0.3285 -0.0513 -0.2269
22250W        W38434   0.551   6.508   0.767  0.0611 -0.1052  0.1735
22251W        W38435   0.848   9.356   3.657 -0.1718 -0.2347  0.3721
22252W        W38436  13.075   5.612   1.790  0.1892 -0.0244  0.1390
22253W        W38437  13.757  10.405   5.148  0.0941 -0.0827  0.4802
22254W        W38438   4.976   7.673  15.835 -0.0735  0.0405  0.2008
22255W        W38439  13.996  10.430  11.825  0.0449 -0.0988 -0.3992
22256W        W38440  14.508  14.246   3.736  0.1517 -0.1297 -0.1019
22257W        W38441   5.886  14.974   5.274  0.1941 -0.3407  0.0262
22258W        W38442  16.132  12.321  13.825  0.0087  0.2104 -0.1057
22259W        W38443  15.766  14.063   2.334  0.1413 -0.0212  0.0514
22260W        W38444  11.026   6.880  14.309  0.1456 -0.2283  0.0095
22261W        W38445   5.530  12.037  13.647 -0.0816 -0.1754  0.1533
22262W        W38446   5.922  10.325   5.720  0.0880  0.0764  0.0669
22263W        W38447  10.480   7.069  16.265 -0.0698 -0.2524 -0.1202
22264W        W38448  15.316   8.032  15.813 -0.1613  0.1583  0.2001
22265W        W38449  14.531  14.929   5.209 -0.0053 -0.2504 -0.0088
22266W        W38450  14.444  13.334   3.136  0.3096 -0.1597  0.1486
22267W        W38451   3.967   0.970   3.601  0.1765  0.0693  0.0517
22268W        W38452  13.380  10.306  13.335 -0.0547 -0.0200 -0.3238
22269W        W38453  12.739   3.606   1.911 -0.2558  0.3772  0.1320
22270W        W38454   5.852  14.340  14.144 -0.1382 -0.2016 -0.3686
22271W        W38455  14.937  15.358   2.154 -0.0651  0.1405 -0.3368
22272W        W38456   6.670   1.724  13.530  0.2882 -0.0494 -0.1660
22273W        W38457   4.216  12.484  15.270 -0.2542  0.4913 -0.2634
22274W        W38458   8.230   0.917  14.859 -0.1567 -0.0795  0.1859
22275W        W38459  16.047   2.029   4.804 -0.0541  0.0100  0.1421
22276W        W38460  10.644   7.597   4.963 -0.2066 -0.1410  0.0341
22277W        W38461  17.667   0.435  13.790 -0.1690  0.2279  0.2316
22278W        W38462   6.343   1.545  14.960  0.1534 -0.2119 -0.0277
22279W        W38463   6.020  15.493  16.288  0.4850  0.2339  0.1265
22280W        W38464   3.194   4.807   6.279  0.2549 -0.0696  0.1195
22281W        W38465   2.487   2.079   1.391  0.1547 -0.3085 -0.1302
22282W        W38466   7.737  10.219   3.932 -0.2816  0.2630 -0.0798
22283W        W38467   7.932   7.824   2.525  0.0692  0.1402 -0.0590
22284W        W38468  16.240  13.735   5.501 -0.0227 -0.1769 -0.0723
22285W        W38469   9.760   2.048  14.815  0.1196 -0.0582 -0.0878
22286W        W38470  16.541  16.162   3.807  0.2173 -0.0278  0.0844
22287W        W38471  15.914  17.670  13.237 -0.0528  0.2071  0.0098
22288W        W38472  13.568  14.375  16.674  0.0335  0.2792  0.2051
22289W        W38473   7.346  14.348   2.146 -0.0336 -0.0344  0.0762
22290W        W38474   9.151   3.210   6.196  0.1085  0.3068 -0.0083
22291W        W38475  14.170  14.019   3.308 -0.0580 -0.0553 -0.0086
22292W        W38476  12.514   4.418   4.755 -0.1160  0.0927  0.1598
22293W        W38477   1.957  12.624  14.548 -0.2379  0.1237 -0.2370
22294W        W38478   9.083   7.593  15.006 -0.2420  0.2585 -0.0098
22295W        W38479  16.107   5.962  11.883 -0.0815 -0.0162  0.3602
22296W        W38480   1.075   0.646   1.379 -0.2194  0.0030  0.0594
22297W        W38481  15.840  16.951   4.312  0.1319  0.2972  0.1982
22298W        W38482   8.036   5.959  15.907  0.1888 -0.4847  0.0666
22299W        W38483  16.171   8.100   5.077  0.1145 -0.1454 -0.1700
22300W        W38484   1.424   6.934  14.345  0.0987 -0.0260  0.1682
22301W        W38485  14.510   6.410   0.240 -0.0538 -0.1690  0.2833
22302W        W38486   4.253   3.539  11.903  0.2073 -0.4399  0.0555
22303W        W38487   8.114  12.621   1.271  0.2690  0.0845 -0.0026
22304W        W38488   6.846  12.805  13.548  0.0107  0.1174  0.0666
22305W        W38489   7.661  14.903  13.731  0.1201 -0.1765  0.1252
22306W        W38490  15.445   8.708  15.368 -0.2293 -0.0901 -0.1715
22307W        W38491   3.269   7.804   0.101  0.0236 -0.0197  0.1547
22308W        W38492  12.082   9.205  15.253  0.0308  0.0554  0.0667
22309W        W38493  11.926  13.439  12.415 -0.0302  0.0695  0.0692
22310W        W38494   0.636   7.356  12.173  0.1242 -0.0230  0.3034
22311W        W38495   5.915   3.284  13.583  0.0154 -0.0234  0.1882
22312W        W38496  11.380   8.304   2.155  0.0503  0.1743  0.3962
22313W        W38497   9.047   8.327  14.280  0.0004  0.1828 -0.1796
22314W        W38498   9.564   6.252   1.925  0.0210 -0.0829 -0.0971
22315W        W38499  14.697   5.057  13.443  0.3287  0.0373 -0.2351
22316W        W38500  17.259   5.913  12.637  0.0483 -0.0780 -0.0245
22317W        W38501  15.194  12.397  16.204  0.0032  0.1107  0.1196
22318W        W38502   2.606  17.202  12.232 -0.1751 -0.1192 -0.1543
22319W        W38503   2.011   3.172  14.239  0.4438  0.1702 -0.1440
22320W        W38504  14.500   4.187  13.423 -0.1502 -0.0639 -0.1983
22321W        W38505  17.434  15.361   3.394 -0.0166  0.0183  0.2509
22322W        W38506  10.762  10.356  13.458 -0.1926  0.2287  0.0285
22323W        W38507   4.602  11.511   2.224 -0.0154 -0.0326  0.0894
22324W        W38508   9.047   5.036  14.473  0.0766 -0.0297 -0.0366
22325W        W38509  14.901   3.768   0.386  0.0433  0.1547 -0.4194
22326W        W38510   2.609   0.507  15.295 -0.2784  0.3091 -0.0126
22327W        W38511   8.938  15.029  15.807  0.0126 -0.0908 -0.0965
22328W        W38512   6.256   2.889  11.759 -0.0680  0.0559  0.1385
22329W        W38513   5.130  13.989   3.843 -0.2996  0.1416  0.1320
22330W        W38514  17.016   7.506  15.731 -0.0709 -0.0492  0.0297
22331W        W38515   7.957  16.258   6.105 -0.0383  0.0732 -0.3434
22332W        W38516   3.433  11.637  12.684 -0.0125 -0.0853  0.0274
22333W        W38517  12.763  13.224  14.801  0.4485 -0.2508 -0.0145
22334W        W38518   9.445   0.956   2.356 -0.0523  0.0070 -0.2166
22335W        W38519   2.229   7.692   2.471 -0.1086 -0.4187 -0.1515
22336W        W38520  10.720  18.102   3.786  0.0910 -0.0693 -0.0684
22337W        W38521   8.055   2.705   2.600  0.1894 -0.0220 -0.0378
22338W        W38522   4.528   6.480   0.379  0.2373  0.2511  0.2267
22339W        W38523   3.051  14.410   3.226  0.1859  0.0161 -0.1728
22340W        W38524   5.999   0.669   5.750 -0.0547 -0.0931 -0.0140
22341W        W38525   1.080  10.315  11.587  0.0106  0.0526 -0.0215
22342W        W38526  15.231   1.611  11.592 -0.2946  0.1322 -0.1801
22343W        W38527   9.731  14.754   1.996  0.0078 -0.1827  0.0471
22344W        W38528  13.739   7.784  14.613 -0.2107 -0.0475 -0.0964
22345W        W38529   0.849  17.673   0.805 -0.0151  0.1240  0.2037
22346W        W38530  10.365   9.635   3.531 -0.0759  0.1578 -0.1924
22347W        W38531  15.546  10.599   2.528  0.2075  0.1904 -0.0067
22348W        W38532   2.837  10.711   1.795  0.0857  0.0122 -0.4793
22349W        W38533  17.256   7.484  16.664  0.2783 -0.1186  0.1613
22350W        W38534  10.332  11.763  16.187 -0.2165 -0.1545 -0.0492
22351W        W38535  11.022   6.341  15.445  0.3076  0.1907 -0.2410
22352W        W38536   5.020   8.660  12.494 -0.3617  0.0254 -0.1368
22353W        W38537  15.929  12.036   1.155  0.0798  0.0817 -0.1647
22354W        W38538   3.089  13.340   1.815  0.3496  0.3674 -0.2258
22355W        W38539  12.981   5.930  16.139  0.4959 -0.0771 -0.2582
22356W        W38540   5.294  11.237   1.121  0.0561  0.0377  0.2323
22357W        W38541  17.039   0.892   4.832  0.2533 -0.0512  0.2231
22358W        W38542   5.056  13.450   1.866 -0.0049  0.3209  0.1190
22359W        W38543  11.678  11.612   3.994  0.1419 -0.1646  0.1324
22360W        W38544   5.114   9.728  16.611 -0.1378 -0.1196  0.1304
22361W        W38545   0.037   6.317   2.032 -0.2567  0.2023  0.0500
22362W        W38546  11.842   0.140   2.522  0.1633 -0.1414  0.0968
22363W        W38547   3.979  12.189   5.047  0.1082  0.0063 -0.2367
22364W        W38548  15.201   3.264  16.309  0.0321 -0.1140  0.3054
22365W        W38549   9.964   8.292   6.089 -0.0272  0.2655 -0.0316
22366W        W38550  17.154  14.760  15.055  0.1297  0.1209  0.2908
22367W        W38551   2.872   2.780   0.918 -0.1256  0.1154 -0.0486
22368W        W38552   4.644   3.755   5.341  0.1642 -0.4052  0.0277
22369W        W38553   0.806   9.660  11.560  0.1398 -0.1356 -0.0493
22370W        W38554   4.557   8.687  14.874  0.0839  0.2658 -0.0543
22371W        W38555   3.308   1.497   0.429 -0.1164  0.3509  0.0591
22372W        W38556   7.147   6.021  12.944 -0.1504  0.0046 -0.0858
22373W        W38557  17.130  11.218   4.820  0.1674 -0.0602 -0.2662
22374W        W38558   2.439   3.676   5.060 -0.0410  0.1238 -0.0924
22375W        W38559  15.706   5.695   2.032  0.1148  0.1614 -0.0281
22376W        W38560   8.739  15.190   0.175 -0.0709 -0.0133 -0.0196
22377W        W38561   6.647   7.922   5.258  0.1677  0.2460  0.0207
22378W        W38562  17.087   2.517   1.616  0.1107  0.0361 -0.0763
22379W        W38563   6.647  15.244  15.893 -0.0297  0.0348 -0.0956
22380W        W38564   1.950   2.054   2.333  0.0909 -0.1193 -0.1010
22381W        W38565   8.026  12.927   3.977  0.3412 -0.4599 -0.2144
22382W        W38566   7.715   2.224   2.892 -0.0644  0.4019 -0.2065
22383W        W38567  10.380   6.449  12.492  0.2410 -0.4304 -0.1111
22384W        W38568   3.317   3.961  11.251 -0.0328 -0.0371  0.2815
22385W        W38569   8.255   1.815  13.814  0.2921  0.0124 -0.2248
22386W        W38570   4.261   7.148  12.685 -0.2279  0.1791 -0.0360
22387W        W38571  16.051  14.419  15.829 -0.0710  0.3015 -0.1083
22388W        W38572  17.813  15.159   3.689 -0.0088  0.1131 -0.3680
22389W        W38573   5.986  14.472  12.649 -0.1410 -0.2105 -0.3165
22390W        W38574   6.488  13.588  14.780 -0.3573 -0.1811 -0.4232
22391W        W38575   0.254   4.537  12.904  0.1127  0.2533 -0.1960
22392W        W38576  12.654  17.574  14.144 -0.2548  0.0036 -0.1801
22393W        W38577   5.285   0.584   2.832  0.3166 -0.1133  0.1244
22394W        W38578   3.719  16.133  15.728  0.2275  0.0349  0.0476
22395W        W38579  12.894  11.157  15.856  0.1351 -0.2757  0.1299
22396W        W38580  11.411   3.648  12.323  0.1329 -0.2412  0.0269
22397W        W38581   8.418   0.414  12.872 -0.1417 -0.0651  0.1856
22398W        W38582   0.384  13.330   4.790 -0.1433  0.0242  0.0893
22399W        W38583  13.657  18.036  13.667 -0.2228  0.1801  0.0808
22400W        W38584  13.817  12.872   6.224 -0.0549 -0.4474  0.3179
22401W        W38585   2.381   4.842   5.075 -0.1315 -0.0584 -0.0484
22402W        W38586  10.884  16.386  15.249 -0.2517  0.0671 -0.1391
22403W        W38587   1.513   1.998   4.596 -0.2315  0.1779  0.0195
22404W        W38588   6.588  10.627   0.204  0.6595  0.2905 -0.1789
22405W        W38589   2.250  12.377  14.206 -0.0943 -0.1187 -0.2074
22406W        W38590   2.295   4.778   4.349 -0.2856  0.0329 -0.4301
22407W        W38591   9.790   8.562  11.246 -0.1498 -0.1241 -0.0339
22408W        W38592   0.999  14.762  10.967 -0.2256  0.0800  0.2558
22409W        W38593  12.982  12.708  14.850 -0.1646 -0.1963  0.0789
22410W        W38594   8.438  18.141  11.062  0.0435 -0.0749  0.3527
22411W        W38595   3.929   6.247   3.301 -0.1317 -0.1049 -0.4454
22412W        W38596   8.559  18.073  13.924  0.1908 -0.0210  0.1308
22413W        W38597   3.925   1.225  15.621  0.0192 -0.0837 -0.0548
22414W        W38598   1.247  10.659  16.105  0.0563  0.1883 -0.0679
22415W        W38599  15.525   7.814   3.304  0.1876 -0.2382 -0.1976
22416W        W38600   6.600   9.169  14.116 -0.0121  0.0281  0.0434
22417W        W38601  16.291   6.842  15.677 -0.3188  0.1181 -0.1715
22418W        W38602   9.824   7.549   0.553  0.1904  0.1038 -0.0412
22419W        W38603  11.632   2.666   3.131 -0.0242 -0.5800  0.0682
22420W        W38604  10.894   6.067   0.063 -0.3069 -0.0566 -0.0741
22421W        W38605  10.865   0.606   2.710  0.1549  0.1701 -0.2162
22422W        W38606   5.795   2.619  16.444 -0.2300  0.2023 -0.1980
22423W        W38607   1.365   3.997  11.227 -0.1261  0.0421 -0.1285
22424W        W38608  11.637  16.383  14.862  0.0085  0.0872  0.2087
22425W        W38609  15.637  16.917  12.280  0.0562  0.1406 -0.0305
22426W        W38610   9.767   2.387   1.835  0.0945 -0.0104  0.4199
22427W        W38611   0.741  17.419   2.459 -0.0034  0.0030 -0.1233
22428W        W38612  16.294   5.351   1.047 -0.0985 -0.0636  0.1356
22429W        W38613   3.737   9.220   1.724 -0.0502 -0.1801  0.1500
22430W        W38614  11.823   4.896   5.341  0.2196  0.0884  0.0058
22431W        W38615   3.044   9.174  11.644  0.0908  0.0523 -0.4257
22432W        W38616   5.821  17.890   4.117 -0.2391  0.1195 -0.0342
22433W        W38617   3.415  11.500   5.923 -0.0210 -0.2422 -0.1620
22434W        W38618  12.562   1.887   1.148  0.1298 -0.1848 -0.0703
22435W        W38619   2.571   3.926  12.900  0.0443  0.2983 -0.0271
22436W        W38620   1.732  11.292  14.218 -0.1127  0.3039 -0.1592
22437W        W38621   0.295   0.155   3.400 -0.5180 -0.1323 -0.4113
22438W        W38622   1.756  10.281  14.070  0.1038  0.0923 -0.0413
22439W        W38623   5.638   5.002   2.285 -0.1942 -0.2318  0.3742
22440W        W38624  14.119  12.541  16.035  0.0276 -0.1224 -0.0546
22441W        W38625  16.389  12.158  12.514  0.1656 -0.1775  0.1826
22442W        W38626   1.631   5.130  14.206 -0.0385 -0.2064  0.1598
22443W        W38627  11.847   5.190   0.593 -0.1600 -0.1430  0.1000
22444W        W38628  12.753  13.084   5.228  0.3904  0.2371 -0.0076
22445W        W38629   2.995   2.697  12.764 -0.0541  0.2272 -0.0155
22446W        W38630  11.383   8.058   3.419  0.3375 -0.0320 -0.1458
22447W        W38631   8.520   2.284  15.204  0.0974 -0.1066  0.0891
22448W        W38632   2.784  14.798   1.300 -0.0784  0.0362 -0.4810
22449W        W38633   4.242  13.875   2.202 -0.0558 -0.2327  0.0758
22450W        W38634  14.989  15.673  12.496 -0.1569  0.0289 -0.2694
22451W        W38635   5.154   2.125   2.196 -0.2238 -0.0154  0.0804
22452W        W38636   0.868   6.372   0.304 -0.0260  0.3526  0.0775
22453W        W38637   7.989   4.416  12.348  0.0454  0.1783  0.0561
22454W        W38638  17.639   5.699   1.677  0.0853 -0.0083 -0.2655
22455W        W38639   0.610   4.481   3.618  0.2898 -0.1156  0.0977
22456W        W38640  10.630   6.571   3.948 -0.1081  0.1445  0.1773
22457W        W38641  13.320   4.260   2.815  0.1819 -0.0472  0.0037
22458W        W38642   4.839  10.414   0.752  0.0822 -0.0418 -0.0926
22459W        W38643   0.982  11.107   4.318  0.1811  0.4113  0.1094
22460W        W38644   7.283   8.561   0.522 -0.3087  0.0835 -0.0463
22461W        W38645  15.716  15.860   0.014  0.0372  0.1455 -0.0345
22462W        W38646   8.914   3.958   5.724 -0.0269 -0.3814  0.4293
22463W        W38647   7.634   2.566  15.285  0.0864  0.1952 -0.1725
22464W        W38648  15.107   0.211  12.057 -0.0675 -0.1240 -0.1189
22465W        W38649  10.824  10.627  13.963  0.2791  0.1547 -0.1265
22466W        W38650   8.655  13.830  12.025 -0.1148 -0.0199 -0.0946
22467W        W38651  10.242   3.105  16.222  0.1670  0.0044 -0.3070
22468W        W38652   5.873  12.344  13.154  0.2021  0.2764 -0.1378
22469W        W38653  14.619  17.151   4.054 -0.2654 -0.1349  0.2720
22470W        W38654   5.964   9.799  12.102 -0.5967 -0.1145 -0.0835
22471W        W38655   8.203   7.225  16.149  0.1244 -0.0525  0.4121
22472W        W38656   8.723   8.576   4.316 -0.0231  0.1059  0.2437
22473W        W38657   5.516   0.126   5.533  0.2356  0.1444  0.0170
22474W        W38658  10.735  16.716  14.134  0.0905 -0.1687  0.2481
22475W        W38659   2.807  10.185   6.403  0.1705  0.0448  0.2723
22476W        W38660  17.431  16.271   5.970 -0.0897  0.0149  0.0058
22477W        W38661  18.130  16.261  11.945  0.1627 -0.2478 -0.3393
22478W        W38662   3.942   9.131  13.176  0.1473  0.0712  0.0019
22479W        W38663   6.845  10.233  16.544 -0.2269  0.1226 -0.0035
22480W        W38664   0.895  12.096   5.289 -0.0377 -0.1874  0.2526
22481W        W38665  10.716  14.879  14.977 -0.0896 -0.1697  0.1815
22482W        W38666  17.949   5.480  13.434 -0.0365 -0.1018  0.2873
22483W        W38667  14.240  13.808   4.616  0.1913 -0.2032  0.2430
22484W        W38668   7.072   5.155  15.704 -0.1682 -0.2044 -0.0388
22485W        W38669   6.318   1.061  12.300 -0.1551  0.0447  0.2422
22486W        W38670   8.965   6.614   6.219  0.1967 -0.2115 -0.1328
22487W        W38671   4.911   2.267   3.168  0.3143 -0.0612  0.0191
22488W        W38672   3.723   0.819  15.160  0.2477 -0.1188 -0.0497
22489W        W38673  10.367   0.915  15.940  0.0775 -0.2227 -0.2098
22490W        W38674  10.400   4.379   5.028 -0.0922  0.3496  0.2168
22491W        W38675   0.301  12.180   1.094  0.2321 -0.2560  0.1359
22492W        W38676   8.745   5.494   4.130  0.1932 -0.3623 -0.1507
22493W        W38677   7.745  15.044   4.767  0.0158 -0.3096  0.0937
22494W        W38678   9.784   2.791   5.247  0.0079 -0.0039  0.1322
22495W        W38679  10.808   9.586   0.978  0.1170  0.1530 -0.1367
22496W        W38680   9.110  13.018  13.893  0.0407  0.4009  0.0963
22497W        W38681   8.762   2.577  12.708  0.3045  0.2545 -0.1831
22498W        W38682   7.615   5.139  15.775  0.0686 -0.1721  0.1276
22499W        W38683  10.357   6.969   5.755  0.0554  0.2437 -0.0284
22500W        W38684   0.750   4.552  14.867 -0.2046 -0.3813  0.1513
22501W        W38685   8.505  12.275  13.990 -0.0879 -0.0699  0.1863
22502W        W38686  10.692   6.767  15.490 -0.1097 -0.1315 -0.0584
22503W        W38687   4.567   5.382   3.153 -0.1506 -0.1860  0.0864
22504W        W38688  13.286   6.625   0.829  0.1535  0.0602 -0.0498
22505W        W38689   5.475  14.728   5.191 -0.0508 -0.0999  0.0327
22506W        W38690   7.570   2.591   1.918  0.1179 -0.1883  0.0508
22507W        W38691  15.877   4.262  15.703  0.0795  0.0457 -0.0061
22508W        W38692  18.110   6.800  10.269 -0.0864  0.0246 -0.1130
22509W        W38693   9.894   5.245   1.188 -0.0641  0.2696 -0.3060
22510W        W38694   1.442  11.346   6.469 -0.1281  0.1469  0.1113
22511W        W38695  13.274   3.502  12.975 -0.3810 -0.4641  0.0866
22512W        W38696   3.694   2.645  13.404  0.1692  0.0583 -0.1673
22513W        W38697  10.853  15.248   3.523 -0.0938  0.0708  0.1611
22514W        W38698  16.994  11.010  14.169 -0.0691  0.3387  0.1496
22515W        W38699   4.949  10.377  16.011  0.2862 -0.1438 -0.0023
22516W        W38700  15.235  16.427  12.136  0.0663  0.1526 -0.1240
22517W        W38701   6.431  11.951  16.178  0.2769  0.3054 -0.1468
22518W        W38702   4.185  14.892   1.263  0.0769  0.1637  0.1427
22519W        W38703   5.282  11.403   6.208 -0.3267  0.0652  0.0193
22520W        W38704   5.765   4.634   1.924  0.0303  0.0053  0.1117
22521W        W38705   9.196   1.225  15.719 -0.3862 -0.0582 -0.0959
22522W        W38706   0.462   5.366  11.702 -0.1053  0.0825  0.0625
22523W        W38707   4.608  14.311   0.470 -0.2100  0.1751 -0.0023
22524W        W38708   6.435   7.112   5.599 -0.0964 -0.1038 -0.0902
22525W        W38709  11.666   0.723  11.596 -0.0557  0.0635 -0.0014
22526W        W38710  10.517  11.107  13.990  0.0055 -0.1890 -0.1564
22527W        W38711   5.347  17.506   3.406  0.4561  0.2346  0.2079
22528W        W38712  12.056  14.528  16.558  0.3147  0.1533  0.1712
22529W        W38713   5.412  16.315   0.071 -0.0307  0.0092 -0.0167
22530W        W38714  15.981  16.681  13.001 -0.0425  0.0746  0.2575
22531W        W38715   6.658   3.732  11.635  0.2642  0.2085 -0.1086
22532W        W38716  12.621  10.363  16.496  0.1973 -0.0602  0.1530
22533W        W38717  15.238   4.945  12.606  0.1110  0.0404 -0.2974
22534W        W38718  15.506   1.653   4.494 -0.1178  0.0788 -0.0799
22535W        W38719   8.121  12.363   1.760 -0.0758  0.0687 -0.1387
22536W        W38720   6.558   5.155   3.343  0.2917 -0.1282 -0.1081
22537W        W38721   0.483   1.024  12.038  0.1815  0.3874 -0.1026
22538W        W38722  12.338   2.210   2.794  0.0639  0.0105 -0.1287
22539W        W38723   2.812   5.514  15.309 -0.1534 -0.3041  0.4303
22540W        W38724   8.211  11.539   3.766  0.0166 -0.0434  0.0079
22541W        W38725   4.879  17.260   2.508 -0.0687 -0.3444  0.2053
22542W        W38726  17.507  16.653  13.612 -0.3377  0.0494 -0.0210
22543W        W38727   9.525   3.112   4.402 -0.2399  0.2269 -0.0052
22544W        W38728  17.345  13.067   5.411  0.0522 -0.5416 -0.1019
22545W        W38729   9.922   8.925  15.968 -0.2149  0.1820  0.2201
22546W        W38730  10.236   6.842   5.265  0.1957  0.0456  0.0488
22547W        W38731  11.570   2.320   3.647  0.1624  0.1599  0.1262
22548W        W38732   7.418   5.978  14.506  0.1601 -0.0391 -0.1414
22549W        W38733  11.116  10.853   1.867  0.2981 -0.0450 -0.0579
22550W        W38734  18.095  10.753  15.748 -0.1230  0.0212 -0.1073
22551W        W38735   4.751   3.043   2.051 -0.1004  0.1855 -0.3493
22552W        W38736  11.853  17.279   2.276  0.0211  0.1329  0.1241
22553W        W38737  12.250   6.887   1.377 -0.1191 -0.0680 -0.3621
22554W        W38738   6.368   4.196  14.848 -0.0165  0.0309  0.0258
22555W        W38739   1.184  17.804  12.541  0.0235 -0.2054 -0.0599
22556W        W38740  13.017  14.485   5.711 -0.1407 -0.0412 -0.0519
22557W        W38741   5.362  11.599  15.654 -0.1097  0.2714  0.2412
22558W        W38742  14.031   2.379  14.947  0.2811 -0.2314 -0.3042
22559W        W38743   4.468  16.767  13.508 -0.0442  0.2736  0.0582
22560W        W38744   2.031  10.797  13.898  0.2859 -0.0148 -0.1696
22561W        W38745   2.426  14.963   6.537 -0.0704  0.2061 -0.1468
22562W        W38746   2.617  12.829   4.780  0.0466 -0.0330  0.0845
22563W        W38747   1.141  17.309  13.832 -0.2621  0.0023  0.1802
22564W        W38748  17.648   4.927  11.225 -0.2652 -0.1094  0.0097
22565W        W38749   0.883   7.773  15.723  0.0324  0.2693  0.0255
22566W        W38750   9.648  16.317  15.033  0.0148 -0.0749  0.2447
22567W        W38751  15.986   6.013  16.087  0.3751 -0.0127  0.4644
22568W        W38752  17.806   3.245  16.034 -0.0864  0.1375  0.1221
22569W        W38753  13.086  16.500  11.273  0.3683 -0.1051  0.2988
22570W        W38754   9.191  11.035   3.988  0.1576  0.4980  0.1306
22571W        W38755   8.951  11.345   0.198 -0.2451 -0.2245  0.4138
22572W        W38756   9.260   3.899   0.796 -0.1677 -0.0402 -0.0459
22573W        W38757  13.424   7.602  11.960 -0.0070  0.0184  0.0108
22574W        W38758   5.602  11.850  11.760  0.2551  0.0752 -0.0163
22575W        W38759  16.566   8.920   1.938  0.1683 -0.3580 -0.1540
22576W        W38760   9.268   0.147  13.151  0.1127 -0.0441 -0.2220
22577W        W38761  15.173   1.443  11.161 -0.0733  0.3040 -0.1772
22578W        W38762  13.146  12.131  14.562  0.2024 -0.2551  0.4653
22579W        W38763   5.653   8.775   3.007 -0.0391 -0.0828  0.2208
22580W        W38764   2.443   5.095   2.039  0.1184 -0.0597  0.1344
22581W        W38765   2.014   0.257  11.905 -0.1782 -0.0695  0.3882
22582W        W38766   3.753  13.467   2.166 -0.0887  0.2622 -0.1660
22583W        W38767  14.234  13.009  11.942  0.0428  0.1312  0.1381
22584W        W38768  13.421   0.868  15.311 -0.2234  0.0338  0.1155
22585W        W38769   2.629  10.515   5.747 -0.0722  0.1068  0.3120
22586W        W38770   4.731   2.805   3.860  0.1893  0.2538 -0.2408
22587W        W38771   7.370   5.278   2.211  0.0206  0.1368 -0.1250
22588W        W38772   5.357  13.526   2.865 -0.0527  0.2064 -0.0990
22589W        W38773   1.371   2.751   1.920 -0.0881  0.1096 -0.0610
22590W        W38774   2.993  13.819   1.096 -0.1121 -0.3988 -0.2119
22591W        W38775   8.050   0.207   2.292  0.0435  0.1389  0.1914
22592W        W38776   7.231   3.446   1.374  0.0627 -0.0872 -0.0542
22593W        W38777  17.005  16.573  15.617  0.2461  0.1523  0.1733
22594W        W38778  13.083   5.132   5.710  0.3032 -0.0120  0.1327
22595W        W38779   0.853   6.102  14.165 -0.0523 -0.0448 -0.3534
22596W        W38780  16.280  13.573   4.917 -0.1267 -0.2633  0.4429
22597W        W38781  17.555   7.464   2.071 -0.0214  0.1125  0.2389
22598W        W38782   8.650  11.694   5.026 -0.0272  0.1085  0.3328
22599W        W38783  12.690   5.016   3.311 -0.1629 -0.1570 -0.0937
22600W        W38784   5.568   5.798  11.626  0.1252 -0.2402  0.0335
22601W        W38785   6.311   3.134   0.994  0.1633  0.3042  0.0937
22602W        W38786  14.853  13.664   4.854  0.1010 -0.1103  0.1859
22603W        W38787  15.659  11.738  15.345  0.1439 -0.1233  0.1314
22604W        W38788   9.493   1.796  12.933  0.1422 -0.0604  0.3945
22605W        W38789   3.304   6.448   4.049  0.2108  0.2987  0.1499
22606W        W38790   7.188  15.807   0.921 -0.2060 -0.2286  0.1353
22607W        W38791  12.862  15.120   6.573 -0.0753 -0.2147  0.0672
22608W        W38792   3.210   4.110  14.536 -0.6907  0.0818 -0.1270
22609W        W38793  17.938   0.267   0.627  0.0451 -0.0129  0.3102
22610W        W38794  15.421   7.506   3.787  0.2936  0.1430 -0.2207
22611W        W38795  10.581  10.747   5.894 -0.0286  0.4013  0.2935
22612W        W38796   3.371  11.365   4.740  0.0836 -0.3301  0.2752
22613W        W38797  13.424  15.723   0.200 -0.0080  0.0063  0.0082
22614W        W38798   4.035  10.033   2.874  0.1907  0.0095  0.0616
22615W        W38799   2.473  15.713  12.966  0.0298 -0.0883 -0.1076
22616W        W38800   9.419   0.948   5.211 -0.4302 -0.3183 -0.0774
22617W        W38801  12.498   1.045  11.673 -0.0354  0.1584  0.2069
22618W        W38802   1.665  11.074   0.056  0.1330  0.0731 -0.3698
22619W        W38803  10.358  10.010  15.796  0.1496  0.0094  0.0728
22620W        W38804  11.587   1.838   1.511 -0.2291  0.0952  0.1746
22621W        W38805  12.879   9.048   6.224  0.3323  0.2453  0.0862
22622W        W38806  17.550  17.318  14.121 -0.0680 -0.1357  0.1666
22623W        W38807   7.182  15.504  11.859  0.0767 -0.0617  0.1722
22624W        W38808   8.932  15.593  15.651 -0.2472 -0.3551 -0.1190
22625W        W38809  16.468  17.754  12.806  0.0824 -0.0428 -0.2255
22626W        W38810   3.981   8.240   0.289  0.1286 -0.0783  0.0745
22627W        W38811  13.283  10.769  14.652  0.0535 -0.1038  0.1094
22628W        W38812   3.888   1.869   1.959  0.0143 -0.2079  0.0472
22629W        W38813   9.516  13.908  16.468  0.2186  0.1611 -0.1483
22630W        W38814   6.852   4.389  14.760 -0.0969  0.3052  0.2151
22631W        W38815   8.195  17.154  16.427 -0.0457  0.0860  0.3904
22632W        W38816   7.609  14.540   1.223 -0.4541 -0.0096  0.0985
22633W        W38817   3.686  17.923   3.512  0.1045  0.0102  0.4018
22634W        W38818  16.080   3.093   1.580  0.0979 -0.1668 -0.0852
22635W        W38819   8.147   2.772  16.609  0.3461  0.1798 -0.2039
22636W        W38820   3.596  10.692   5.656  0.1649 -0.3885  0.1638
22637W        W38821   7.271   6.415   6.201 -0.2162 -0.0287 -0.0457
22638W        W38822   2.928   2.870   1.916  0.1613 -0.0223  0.1943
22639W        W38823   6.958   7.877  13.160  0.1787 -0.2080  0.1682
22640W        W38824   8.691  14.304   0.414 -0.0248 -0.1569  0.0238
22641W        W38825   1.080  12.748   1.309  0.0673 -0.2105  0.0273
22642W        W38826   8.576  12.951  13.896 -0.4220  0.0671  0.1804
22643W        W38827  12.430  14.268   2.474  0.2395  0.0401  0.0538
22644W        W38828   2.443  15.504  13.900 -0.2302 -0.0796  0.1462
22645W        W38829  14.373  16.817   4.250 -0.2174  0.3986 -0.1525
22646W        W38830   8.325  11.374  15.287  0.0979  0.1915  0.2000
22647W        W38831  13.478  11.256   4.691  0.2791  0.1378 -0.2209
22648W        W38832  17.236  13.032   2.595 -0.0767  0.1967 -0.1194
22649W        W38833   0.671  12.520  15.553  0.0914 -0.0711 -0.1094
22650W        W38834   7.118   9.028  14.119  0.0727 -0.2235 -0.1259
22651W        W38835   2.932   2.809   4.910  0.4837  0.1450 -0.0334
22652W        W38836  14.469   1.636   5.449 -0.3064 -0.1057 -0.3061
22653W        W38837   8.887  14.762  12.931  0.0992 -0.0781  0.1269
22654W        W38838   5.533   3.017   4.461  0.1676  0.0538 -0.3080
22655W        W38839   3.331  14.905   6.012 -0.0368  0.0094 -0.1433
22656W        W38840   4.341  14.213   4.378 -0.0201  0.0686  0.0263
22657W        W38841   7.917   7.664  16.113  0.1698  0.0571 -0.0192
22658W        W38842  16.513  11.874  13.809 -0.0880  0.1802 -0.3114
22659W        W38843   8.175   1.311  10.643  0.2293  0.1474  0.1751
22660W        W38844   8.412   1.315  15.199  0.2116 -0.3009  0.3333
22661W        W38845   6.918   7.981  14.791  0.0293  0.0500 -0.2179
22662W        W38846   5.093   3.736   3.103 -0.2223 -0.0215 -0.0675
22663W        W38847  15.911   6.057  14.629 -0.1303 -0.0994  0.2725
22664W        W38848  13.396  12.769   0.645 -0.3100 -0.1607  0.1324
22665W        W38849   1.134  12.668  15.863 -0.1611  0.4963  0.2756
22666W        W38850   0.483  14.349   3.997  0.0221  0.1077  0.0176
22667W        W38851   1.376   6.318  12.340  0.0223  0.1353  0.2709
22668W        W38852   8.722   7.990   2.391  0.0765  0.0394  0.0664
22669W        W38853   8.679  17.042   4.740  0.1285  0.2847  0.0700
22670W        W38854   5.052   7.197  15.601 -0.0010  0.5677 -0.2225
22671W        W38855   8.332  13.440  16.175 -0.2307 -0.0320 -0.1587
22672W        W38856   3.341   8.679   0.111  0.0030  0.1980  0.2884
22673W        W38857  18.132  17.183   1.252  0.0276  0.2165 -0.1020
22674W        W38858   2.755  15.618  14.777 -0.0544 -0.0575 -0.0482
22675W        W38859  11.247   3.879  14.068 -0.1278  0.0675 -0.0245
22676W        W38860   8.048  10.679  14.485 -0.1459 -0.0990 -0.1170
22677W        W38861  12.487  15.615  14.010  0.0104  0.0939 -0.1363
22678W        W38862   4.955  13.782   2.282 -0.0288 -0.0845 -0.1280
22679W        W38863   3.576  10.774  15.219 -0.1622  0.1369  0.2347
22680W        W38864   7.461   0.420  14.388  0.2757  0.1018  0.3598
22681W        W38865   7.788   9.278  11.272 -0.0361  0.0102 -0.2794
22682W        W38866  14.379   5.872  13.015 -0.2881  0.2028  0.2731
22683W        W38867   4.366  13.305  16.542  0.1533  0.0887 -0.1879
22684W        W38868  16.639   0.859   0.905  0.2268  0.2955  0.3734
22685W        W38869  17.440  14.305   2.541  0.0986  0.1089  0.3448
22686W        W38870  18.118   5.057   0.051 -0.0052  0.0152 -0.1407
22687W        W38871   4.194  12.021   1.152  0.0887  0.2753 -0.0323
22688W        W38872   6.138   5.157   2.425  0.1317  0.0672  0.1474
22689W        W38873  12.925   5.365   2.753 -0.2424  0.1979  0.0036
22690W        W38874  11.852  11.921  14.925 -0.0551  0.2768  0.1475
22691W        W38875   9.832  15.153  14.488  0.2512  0.0928 -0.0725
22692W        W38876   8.375   5.829   0.508  0.0821 -0.0153 -0.1288
22693W        W38877   9.975   8.872  14.613  0.2489 -0.0347  0.1127
22694W        W38878   1.311   0.857  12.226 -0.2937 -0.0400  0.0334
22695W        W38879   8.948   4.795   1.027 -0.1813  0.0108 -0.2171
22696W        W38880  18.030   0.608  14.202  0.0668 -0.0678 -0.0209
22697W        W38881   0.322   5.236  12.209 -0.1308  0.0852 -0.1164
22698W        W38882  13.644  12.161  14.324 -0.2018 -0.0142  0.1106
22699W        W38883   1.066   8.660  13.653 -0.0062  0.0584  0.0668
22700W        W38884   5.545  17.124  12.609  0.1563  0.0513  0.0313
22701W        W38885  13.655  12.415   0.942 -0.1249  0.1473 -0.0157
22702W        W38886   4.941  10.222   3.117  0.0331  0.0013 -0.1586
22703W        W38887  17.980  17.096  12.390  0.0151  0.1493  0.5276
22704W        W38888   0.456   9.797   3.805  0.0200 -0.1336  0.0687
22705W        W38889   5.610   1.913  13.611  0.0792  0.1510 -0.0740
22706W        W38890  15.083  14.859  16.484  0.2033 -0.0109  0.1352
22707W        W38891  16.592   2.101  15.358  0.3578 -0.1065  0.0534
22708W        W38892  15.085   9.872  14.897  0.0292  0.3225  0.1131
22709W        W38893  13.844  15.884  16.476  0.0347  0.0582  0.4926
22710W        W38894  14.638   0.783   2.520 -0.1692 -0.0854 -0.1349
22711W        W38895  14.848   7.048   0.225 -0.1078  0.0129 -0.0305
22712W        W38896  15.562  16.203  16.391  0.0587 -0.2457 -0.1490
22713W        W38897   0.194  14.230   0.570  0.0670  0.0741 -0.0095
22714W        W38898  13.763  15.389   0.411  0.1279 -0.3576 -0.2240
22715W        W38899   0.659   6.214   1.136  0.1357 -0.0779 -0.1480
22716W        W38900   3.237   1.808   3.500  0.0676  0.0825  0.1135
22717W        W38901   3.748  10.100  14.072  0.2455  0.0584 -0.1744
22718W        W38902   0.098   0.913  11.704  0.2852 -0.0147 -0.0626
22719W        W38903  15.059  15.494   3.724  0.2072 -0.1420  0.4615
22720W        W38904   2.444   8.163  14.784  0.1132 -0.2706 -0.1890
22721W        W38905   0.178  12.997   1.722  0.2277 -0.1430  0.3868
22722W        W38906  11.281  16.055  15.106  0.2193  0.0305  0.2900
22723W        W38907   8.500   0.218   1.008 -0.2061 -0.1473 -0.0606
22724W        W38908  10.844   0.090   0.769 -0.1023 -0.5438 -0.0203
22725W        W38909   9.929   6.398   3.135 -0.0703 -0.2563 -0.0328
22726W        W38910   9.645  14.101  13.866  0.0084 -0.1059  0.1529
22727W        W38911  12.608   4.701  14.605  0.0832 -0.2315  0.1737
22728W        W38912  17.668   4.390   2.314  0.0568 -0.1399 -0.0587
22729W        W38913  16.349   3.763  14.019 -0.1803 -0.0995  0.0672
22730W        W38914  16.144   3.510   2.542  0.1995 -0.0792  0.0810
22731W        W38915   4.016   0.922   0.244  0.2593 -0.0136  0.2044
22732W        W38916   7.480  14.090   0.261  0.0353  0.0377 -0.0794
22733W        W38917   0.844   0.738   2.301 -0.2027 -0.0668  0.0618
22734W        W38918  17.027  13.681  12.492 -0.2686 -0.2371  0.0846
22735W        W38919  15.406   2.159  12.614  0.0438 -0.0106  0.2067
22736W        W38920  18.027   9.514   5.221  0.1483 -0.0108 -0.2135
22737W        W38921  15.761   2.898  13.709 -0.1681 -0.3701  0.3335
22738W        W38922   0.154  12.432  15.469  0.1188  0.3184  0.0942
22739W        W38923  14.274  13.091  15.876  0.0063  0.3695 -0.0072
22740W        W38924  15.144   3.754  16.216 -0.0893  0.0960 -0.0333
22741W        W38925   2.761   4.877   3.250  0.0689 -0.1520  0.2117
22742W        W38926  17.180   4.353   2.668 -0.0025 -0.1508  0.1810
22743W        W38927  10.320  15.878  13.137 -0.1024 -0.1140 -0.1846
22744W        W38928   7.922   6.697  15.202  0.0331  0.1332 -0.0555
22745W        W38929   2.156  12.698  13.359  0.1852  0.1070 -0.4665
22746W        W38930   4.997  17.085   1.988  0.0714  0.0323 -0.0573
22747W        W38931  13.291  11.719   5.561 -0.0738  0.0470  0.0587
22748W        W38932   8.806  12.737   2.810 -0.0268 -0.2089  0.0636
22749W        W38933  12.391   3.238   4.951 -0.3540 -0.0901  0.0934
22750W        W38934  13.359   2.821  12.620  0.2209  0.3731 -0.2648
22751W        W38935  10.468  11.275  11.591 -0.0010 -0.1917  0.0020
22752W        W38936  14.211   9.291  13.127 -0.0079  0.2906  0.2406
22753W        W38937  14.698  16.025   2.643 -0.2125 -0.1463  0.1172
22754W        W38938   5.311  12.859  16.129 -0.0086 -0.0508 -0.2155
22755W        W38939   4.927   2.513  15.369 -0.0377  0.1407  0.5031
22756W        W38940   7.499  15.341  13.981  0.0208  0.0331  0.0628
22757W        W38941  15.758   5.422  10.575 -0.1579 -0.1076  0.0400
22758W        W38942   4.372   6.936   0.042  0.0182  0.0337 -0.0722
22759W        W38943  12.763   9.097   0.736 -0.2680 -0.1556  0.1910
22760W        W38944  12.095  11.259   0.462 -0.1295  0.2438  0.1630
22761W        W38945   4.258  11.250  14.070 -0.0081 -0.1599  0.0485
22762W        W38946   2.409  11.267  12.455 -0.1333  0.1917  0.0330
22763W        W38947   9.426   9.483   0.198  0.1936 -0.1138  0.2442
22764W        W38948   8.043   2.175  14.110  0.1525  0.0108  0.1245
22765W        W38949  16.191  10.932  15.209  0.1438  0.1148 -0.5523
22766W        W38950   7.704  13.073  16.170 -0.2091  0.0793  0.1174
22767W        W38951  14.825  11.608   0.378  0.1561 -0.0310  0.0425
22768W        W38952  18.093  10.613  12.296 -0.0068  0.5344 -0.0086
22769W        W38953   9.772  12.494   2.704 -0.0888 -0.0516 -0.0573
22770W        W38954   9.314  13.622   3.982 -0.0063  0.0579 -0.0816
22771W        W38955   0.233   6.131  15.518 -0.1306  0.1237 -0.0847
22772W        W38956   9.255   0.217   4.694 -0.2006 -0.1258 -0.4837
22773W        W38957  15.151  11.894   2.991  0.0133  0.2805 -0.0917
22774W        W38958  13.283  15.250  11.777 -0.0590 -0.1780  0.0996
22775W        W38959   6.365   3.374   2.819 -0.1564  0.0696 -0.2449
22776W        W38960  10.528   0.483   4.983 -0.0667 -0.0198  0.1733
22777W        W38961  16.427  11.966   5.693  0.1022  0.0070 -0.4130
22778W        W38962   5.700  13.903   2.951 -0.0158 -0.0450  0.0888
22779W        W38963   8.641  16.894  11.154 -0.0978 -0.0805  0.3174
22780W        W38964   1.761   0.627   1.435  0.1355 -0.1146 -0.0364
22781W        W38965   0.019  17.446  12.723 -0.1770 -0.3561  0.3092
22782W        W38966   2.532  10.109  12.511  0.1497  0.2422  0.1860
22783W        W38967   2.177   9.212   4.140 -0.2046  0.3023 -0.3069
22784W        W38968  11.212  12.655   6.424 -0.0583 -0.1020 -0.0117
22785W        W38969   9.701  13.578  14.381  0.0313 -0.3486  0.1304
22786W        W38970   8.597  12.130   5.737  0.0778 -0.0829  0.2300
22787W        W38971   9.330   7.687   2.963  0.0421  0.2748 -0.0835
22788W        W38972   7.042  16.353   1.619 -0.1083  0.4408  0.0093
22789W        W38973  16.886  10.390   0.234 -0.3366  0.1697  0.2842
22790W        W38974   4.661  12.315   2.560  0.2162 -0.1569 -0.0106
22791W        W38975  14.192  12.585  14.302 -0.0822  0.0352 -0.1674
22792W        W38976  12.876   6.158   2.848  0.1541  0.0485  0.2248
22793W        W38977  15.682   4.543  14.381  0.1640 -0.1777 -0.2831
22794W        W38978   5.070  16.169   1.879 -0.2196 -0.4746  0.2295
22795W        W38979   3.508   9.413   0.889  0.0438 -0.0109 -0.2464
22796W        W38980   6.305  17.842   4.315  0.1799 -0.0996 -0.1690
22797W        W38981   9.661   4.008   5.172  0.2835  0.1840 -0.0452
22798W        W38982   6.715  14.807  13.212  0.1492  0.2871 -0.2202
22799W        W38983   6.379   5.797   2.704 -0.2155 -0.0307 -0.1761
22800W        W38984  13.867   5.391   2.314  0.3033 -0.0165 -0.0271
22801W        W38985   6.476   7.454   1.741 -0.0886  0.0572  0.1456
22802W        W38986  14.387   4.999  14.762  0.0368 -0.0747  0.0615
22803W        W38987   2.258  12.350  12.579 -0.0685 -0.2532  0.2568
22804W        W38988   3.756   9.596  13.026 -0.2554  0.0586 -0.0442
22805W        W38989   7.870  13.432  12.008  0.0348 -0.0834  0.0821
22806W        W38990  18.135   5.532   3.731  0.0569  0.2336 -0.4228
22807W        W38991  13.901   2.875   2.874  0.1299  0.0878 -0.3365
22808W        W38992  16.195   5.710  15.694 -0.4972 -0.2641  0.4539
22809W        W38993  11.037  14.535   0.724 -0.3137 -0.1552 -0.2695
22810W        W38994  15.109  13.108  15.332 -0.0654  0.2774  0.0122
22811W        W38995  12.052   9.318  16.339  0.1315  0.0514 -0.0524
22812W        W38996   1.646  17.970   5.275 -0.2212  0.0471 -0.2905
22813W        W38997  14.943  11.856  14.988  0.2410  0.0291 -0.3013
22814W        W38998   8.429  12.495   2.134 -0.1689 -0.0314  0.1306
22815W        W38999  15.405  10.254   4.270 -0.2153  0.1359 -0.0771
22816W        W39000   6.683   9.852   3.301 -0.0289 -0.1083  0.0775
22817W        W39001  17.852  15.315   1.978 -0.1457  0.1197  0.0376
22818W        W39002   3.665   9.578   4.907  0.2244  0.3651 -0.0688
22819W        W39003   3.598  13.748   6.419  0.1013 -0.1334  0.1111
22820W        W39004   6.955   8.128  11.419  0.1419 -0.0793  0.1302
22821W        W39005  13.322   7.415  12.722 -0.0130 -0.1855 -0.0191
22822W        W39006  18.105   2.663   0.092  0.1522 -0.1293 -0.3040
22823W        W39007   8.421  15.591   3.994  0.1139  0.2186  0.1144
22824W        W39008   1.418  17.179   1.626 -0.1298 -0.2994  0.0218
22825W        W39009  14.866  17.578  11.468 -0.0341 -0.0786 -0.0921
22826W        W39010  17.859   8.689   5.369 -0.0162  0.2895 -0.0274
22827W        W39011   6.274   1.195  11.710 -0.4608 -0.2494  0.3038
22828W        W39012   0.597  14.976   3.246  0.0430  0.3086 -0.1020
22829W        W39013   4.755   4.823   4.892 -0.4632  0.3454  0.0029
22830W        W39014   9.965   7.897   3.833  0.0184 -0.0976  0.1579
22831W        W39015   7.391  15.772   3.449 -0.0586  0.1856  0.1549
22832W        W39016   1.330  17.263   0.331  0.0444 -0.0808  0.1945
22833W        W39017   4.728  14.520  12.039  0.0038 -0.1629 -0.2330
22834W        W39018   3.999  12.944  12.230 -0.1633 -0.3574 -0.0254
22835W        W39019   8.693   8.998   1.830  0.0569  0.3008  0.0588
22836W        W39020  15.063   8.512  10.782  0.0386 -0.3074 -0.2836
22837W        W39021   3.429   2.119   3.162  0.1707 -0.1465 -0.3079
22838W        W39022   8.310   8.086  16.302 -0.0648 -0.3072  0.3188
22839W        W39023   9.727   2.825  14.112  0.2252 -0.0120 -0.0172
22840W        W39024   1.197   7.663   1.242  0.0982  0.0570 -0.0686
22841W        W39025   3.450  17.029  15.185 -0.0002 -0.2076  0.2793
22842W        W39026  13.041   1.103  12.183  0.0881 -0.1526 -0.0957
22843W        W39027  14.453   0.827   4.286 -0.0802 -0.1424 -0.1515
22844W        W39028   9.179   8.430  16.458  0.1831  0.1681 -0.0514
22845W        W39029  11.738  16.228  12.425  0.0161  0.0713  0.0180
22846W        W39030   7.583  16.011   2.982  0.2854 -0.0344  0.0277
22847W        W39031   0.730   1.369  14.582  0.0111 -0.0893 -0.1505
22848W        W39032  11.106  11.669  14.750 -0.2674 -0.1749  0.2155
22849W        W39033  14.542   3.034   5.001  0.0278 -0.1921  0.1094
22850W        W39034   7.224   0.995  13.701  0.0174 -0.0431 -0.0427
22851W        W39035   6.955   5.616   1.402  0.2022 -0.0425 -0.2416
22852W        W39036  11.373  12.380   2.986 -0.0627  0.0433 -0.1879
22853W        W39037   4.782   4.559  11.810 -0.0512 -0.1736  0.1783
22854W        W39038   0.446  14.986   4.051  0.2619 -0.1496  0.1785
22855W        W39039   9.639  13.884   5.041  0.1282 -0.2080  0.1191
22856W        W39040   2.269  15.129   2.714 -0.1392 -0.0621  0.2940
22857W        W39041  16.665   3.772   1.893  0.0142 -0.0984 -0.1544
22858W        W39042  13.483  16.538   4.100  0.5521 -0.1877  0.0083
22859W        W39043   8.113   5.825  14.146  0.2318  0.1267 -0.1015
22860W        W39044   3.226  12.582  13.669  0.0027  0.3003 -0.0500
22861W        W39045  14.810  15.896  13.586 -0.0389  0.0417 -0.2291
22862W        W39046  13.793   3.298  14.078 -0.0349 -0.0289  0.3975
22863W        W39047  17.351  10.485   4.682  0.0470 -0.0230  0.2262
22864W        W39048   6.496   3.483  12.572 -0.0476  0.1337 -0.2215
22865W        W39049  14.163   8.594   5.791  0.1452  0.1040  0.2552
22866W        W39050  14.851   0.176   2.990 -0.3326  0.2172 -0.3015
22867W        W39051  15.683   7.911   1.936 -0.2116  0.1814  0.0099
22868W        W39052  14.724  10.775   4.956 -0.0400 -0.0629  0.2370
22869W        W39053  11.337   1.405  11.296  0.0856  0.0254  0.1637
22870W        W39054  15.628   0.489   3.443  0.1525  0.0088 -0.0565
22871W        W39055  13.524   9.338  10.814  0.0905  0.1871  0.0407
22872W        W39056   1.179   4.469  14.545 -0.2068 -0.0554 -0.0493
22873W        W39057  12.382   2.852  11.997  0.2585  0.0414 -0.1275
22874W        W39058  14.116   3.857  13.490  0.1754  0.0222 -0.2654
22875W        W39059  12.179   3.132   2.406  0.0154  0.0768  0.1677
22876W        W39060   0.202  17.428  16.260 -0.1682 -0.1650 -0.3820
22877W        W39061   2.797  16.559   1.979  0.1447 -0.1051  0.4825
22878W        W39062  16.150  12.799   5.708  0.0901 -0.0152  0.1172
22879W        W39063  15.940  11.878  13.894 -0.0967 -0.1864  0.2437
22880W        W39064   3.944   3.206   4.211  0.0139  0.0445  0.3095
22881W        W39065   7.975   2.202   0.292  0.2041  0.1510 -0.0416
22882W        W39066  12.896  10.359  14.764 -0.1680  0.3643  0.2820
22883W        W39067   3.222   7.906   3.950  0.4266 -0.0419 -0.1497
22884W        W39068  17.936  12.911   0.480  0.1400  0.0554 -0.1839
22885W        W39069   1.838   3.198  13.469  0.1785  0.1835  0.2418
22886W        W39070   9.378  16.804  12.854 -0.1550  0.1074 -0.0494
22887W        W39071  15.037   7.013  14.679 -0.1852  0.2862  0.2463
22888W        W39072   7.073  15.137   5.151  0.0637  0.1894  0.0392
22889W        W39073   7.593   8.961  13.305  0.0330  0.0345  0.5429
22890W        W39074   0.088  14.171   2.251 -0.2027  0.0533 -0.2749
22891W        W39075   4.883   1.500  13.439  0.1271 -0.3765  0.0886
22892W        W39076   1.272  15.333   5.003  0.1118  0.0735 -0.3980
22893W        W39077  16.026  17.925   3.591 -0.0284  0.0138 -0.0407
22894W        W39078   1.988   8.672   2.652  0.3522  0.1773 -0.0653
22895W        W39079   7.388  13.142  14.168 -0.3860 -0.4473  0.3386
22896W        W39080   7.421   8.685   2.529  0.0470  0.0304 -0.4112
22897W        W39081  14.987   8.778   3.782 -0.0623  0.0211  0.1336
22898W        W39082  14.498   5.465   1.369  0.2373  0.0024 -0.1460
22899W        W39083   0.036   0.433  13.746  0.0963 -0.1517 -0.0777
22900W        W39084  12.737  13.977   4.503  0.1195  0.2731  0.1216
22901W        W39085  13.958   9.453  16.607  0.3645 -0.1515  0.2857
22902W        W39086   9.642   7.963   0.892 -0.4031  0.0691 -0.0180
22903W        W39087   4.196  16.333  13.358 -0.0682  0.0853 -0.0227
22904W        W39088   1.491  16.788  12.527 -0.2651 -0.0913 -0.0525
22905W        W39089   4.660   4.856   5.388  0.1106  0.4193  0.1276
22906W        W39090  11.109   0.592  11.885 -0.1554 -0.2479 -0.3084
22907W        W39091  16.477   6.629   3.370  0.0035 -0.0706 -0.1014
22908W        W39092  15.898  12.764  14.721  0.1234 -0.0982  0.0211
22909W        W39093  17.492   9.347   3.269  0.1964 -0.4201  0.0194
22910W        W39094  11.336   8.010   5.552  0.3551  0.0582  0.2700
22911W        W39095  11.477  17.359  13.903 -0.1551  0.0608 -0.1756
22912W        W39096   6.858   6.467   2.185 -0.0956 -0.2479  0.0601
22913W        W39097   0.263  10.767  16.133  0.2140  0.0013 -0.1093
22914W        W39098  15.279  13.310   4.831 -0.3502  0.2660 -0.0747
22915W        W39099   8.164  14.724   1.112  0.2403 -0.0434  0.1975
22916W        W39100  14.370  13.434   5.051 -0.1388  0.1436 -0.1926
22917W        W39101   4.974  16.412  12.662  0.1255 -0.1866 -0.1315
22918W        W39102  13.165   7.823   1.878  0.1005  0.1727 -0.1322
22919W        W39103  15.325  17.130   2.320  0.1575  0.2038  0.0756
22920W        W39104   1.025  16.910  15.926  0.2129 -0.0997 -0.0173
22921W        W39105   7.797   4.638   3.612 -0.0743 -0.2267  0.5051
22922W        W39106   1.230   2.083   2.723  0.0086 -0.1246  0.0266
22923W        W39107   9.010   3.073  13.548  0.0187  0.0772  0.1199
22924W        W39108  13.263  11.443   2.973  0.1470  0.0042  0.1279
22925W        W39109  16.943   3.569   4.210 -0.1158 -0.3063  0.0346
22926W        W39110  11.877   5.539   1.230 -0.2007  0.1440 -0.0516
22927W        W39111  12.774  18.121   1.653  0.0737 -0.3035 -0.1623
22928W        W39112   4.096   5.004  15.526  0.0361  0.2319 -0.0050
22929W        W39113  13.697   6.900   5.957  0.0931  0.1050 -0.0409
22930W        W39114  10.312   6.341   5.256  0.0392 -0.0006 -0.1143
22931W        W39115  13.565  13.344  12.597  0.0189 -0.4966 -0.0126
22932W        W39116  10.466   3.367  13.357 -0.2773 -0.3103 -0.0787
22933W        W39117   9.169  17.355  16.329 -0.0829 -0.1480  0.1377
22934W        W39118   1.319   1.616  12.903  0.1453 -0.0933 -0.0972
22935W        W39119   7.971   8.276   5.444  0.1002 -0.0216  0.1867
22936W        W39120   2.928  13.170  16.682  0.0578 -0.0967 -0.1494
22937W        W39121  17.268  15.707  16.453  0.0862  0.0195  0.1886
22938W        W39122  13.241  11.412   0.204  0.0528 -0.1301 -0.1658
22939W        W39123  14.085   3.171   4.007  0.1288 -0.2506  0.0512
22940W        W39124  12.614   4.117   4.351 -0.0414 -0.0915 -0.1597
22941W        W39125  12.015  10.220  15.274 -0.0384  0.3634  0.2513
22942W        W39126  13.491  12.741  12.553  0.0344 -0.0522  0.2538
22943W        W39127   5.167   3.025  12.569  0.1331 -0.0302 -0.3036
22944W        W39128  10.007   5.910  12.283  0.0652  0.0880 -0.0084
22945W        W39129  13.029  11.961  13.829  0.3537  0.1210 -0.2575
22946W        W39130   0.577   3.015  15.919 -0.0204  0.1510  0.0046
22947W        W39131   1.056   9.390   1.508  0.1863 -0.1305 -0.2115
22948W        W39132   4.671  16.713   0.163 -0.1467  0.2397  0.0334
22949W        W39133   4.792   9.304  11.997  0.2810  0.0734  0.1372
22950W        W39134   3.174  12.582  12.553 -0.1870  0.2142 -0.0244
22951W        W39135   0.778  17.367  12.338 -0.1755 -0.1921 -0.2900
22952W        W39136  11.157  17.837   4.467 -0.1715  0.1465 -0.0240
22953W        W39137   5.313   5.039  16.399  0.2436 -0.3154 -0.0389
22954W        W39138  17.001   3.631  12.751  0.4151 -0.1364 -0.0229
22955W        W39139   0.996   4.308  11.126 -0.1171  0.0880  0.0383
22956W        W39140  12.568   6.614   3.123  0.1984  0.0342 -0.0748
22957W        W39141   3.433  11.781   2.711  0.0442  0.2222 -0.1704
22958W        W39142  14.248  14.645  16.544  0.0169  0.4407 -0.2599
22959W        W39143  11.888  15.837  15.849 -0.0221  0.1823 -0.1350
22960W        W39144  11.364   7.150   1.504  0.2328 -0.2253  0.0064
22961W        W39145   2.126   7.705  14.000  0.1385  0.0513  0.2178
22962W        W39146   5.687  12.250  12.681  0.1114  0.1880 -0.1956
22963W        W39147   9.331  14.683  11.833 -0.2316 -0.3601 -0.0606
22964W        W39148   4.876  14.122  15.471  0.0149  0.2851 -0.1044
22965W        W39149   6.683   0.236  12.438  0.1529 -0.0433  0.0804
22966W        W39150  17.528  17.711   0.953 -0.1934 -0.1870  0.0621
22967W        W39151  16.026   4.523  14.719 -0.1612 -0.0602 -0.1578
22968W        W39152  13.545   1.731   1.998  0.1680  0.0005  0.1970
22969W        W39153   8.465  17.770   1.472 -0.1721  0.0594  0.0788
22970W        W39154   2.318   5.973  14.913 -0.2612  0.2361 -0.0837
22971W        W39155   2.443  15.575   3.942 -0.0523  0.2105 -0.3426
22972W        W39156   0.033   5.734  16.565 -0.0251  0.0786  0.1759
22973W        W39157  10.339   2.911  13.284 -0.0225  0.1536 -0.2152
22974W        W39158   2.290  15.007   1.206  0.0657 -0.3378 -0.1320
22975W        W39159   7.251  11.554  16.664  0.1217  0.0272  0.1279
22976W        W39160   9.969  13.195  16.200  0.1759  0.1403  0.1929
22977W        W39161  15.673  16.211   3.672 -0.0562 -0.1629 -0.0887
22978W        W39162   2.941   6.919   1.598 -0.0553 -0.0059  0.2003
22979W        W39163   1.591  17.708   6.222  0.0708  0.0106 -0.1461
22980W        W39164  16.192  15.200   2.996 -0.0457 -0.1897  0.1761
22981W        W39165  14.409  17.350   2.094 -0.1357 -0.1934 -0.0608
22982W        W39166  14.273   1.399   1.104  0.0364 -0.1503 -0.5355
22983W        W39167  10.279  12.814   3.739  0.0690  0.1854  0.0198
22984W        W39168   8.279  16.761   5.953  0.3752 -0.1146  0.2657
22985W        W39169  16.916   5.865  15.407 -0.1375  0.0643  0.0543
22986W        W39170  13.486   2.656   5.440  0.2267 -0.2099 -0.1747
22987W        W39171  11.047   2.914   3.773  0.2889 -0.0008  0.1938
22988W        W39172   6.006   9.584   1.228  0.1669 -0.1002  0.0340
22989W        W39173  16.319  10.404  16.221  0.2114  0.1765  0.2648
22990W        W39174  12.021   6.282   2.144  0.2833  0.0749  0.3021
22991W        W39175   5.242   3.935   1.020  0.3252 -0.2637 -0.0804
22992W        W39176  10.929  16.867  15.041  0.0070 -0.2491  0.0914
22993W        W39177  13.724  15.837   4.376  0.3447  0.3205 -0.0036
22994W        W39178  10.270   0.675  13.026  0.0953  0.2474 -0.0707
22995W        W39179  16.912  13.441   4.130  0.0172  0.1869 -0.1473
22996W        W39180  12.885   0.238   3.252  0.1505  0.2125  0.3042
22997W        W39181  17.364   0.673   3.888 -0.0035  0.0926 -0.1998
22998W        W39182  15.145   4.609  15.125  0.4067  0.0384 -0.0189
22999W        W39183  14.992   3.481   1.799 -0.1619 -0.0980  0.1839
23000W        W39184   8.645   6.026  14.304  0.2566 -0.2951  0.2348
23001W        W39185   9.711   6.602   1.604  0.0524  0.1208 -0.3332
23002W        W39186  11.575   8.037   4.996 -0.0246 -0.1792 -0.1422
23003W        W39187  10.060   1.580   5.261  0.3163 -0.0981 -0.1913
23004W        W39188  13.087  12.957  12.825  0.1515  0.3261 -0.0978
23005W        W39189   4.237   6.675  12.966  0.2193 -0.0274 -0.3280
23006W        W39190   9.416  14.056  14.681 -0.2264  0.0849 -0.1482
23007W        W39191   0.694   2.190   5.338 -0.0661 -0.1567  0.0986
23008W        W39192   7.218   5.703  16.338  0.2832  0.0085  0.0860
23009W        W39193   7.130  10.052   5.026  0.2518  0.1663  0.0560
23010W        W39194  13.184   1.938   3.589  0.0148  0.1451 -0.2022
23011W        W39195   7.871  11.064  12.263 -0.0863  0.0196  0.0709
23012W        W39196   3.747  15.158   3.989 -0.2368 -0.2137 -0.1494
23013W        W39197   8.207  11.023   4.051 -0.1804 -0.0429 -0.3027
23014W        W39198   7.883  10.881  16.305  0.2136  0.3548 -0.3934
23015W        W39199   1.065   4.710   3.601  0.0034 -0.1875  0.1777
23016W        W39200   5.453  12.049  13.160 -0.2698  0.1110  0.1388
23017W        W39201   0.602   5.982   0.662  0.2093 -0.0871 -0.0840
23018W        W39202   7.136   8.535   1.740  0.1592 -0.3180 -0.0627
23019W        W39203  11.699   5.551  16.140  0.0327  0.3103  0.1274
23020W        W39204   8.380   9.896  12.935  0.1649  0.1430  0.3212
23021W        W39205   8.209   5.366   1.365  0.1810 -0.4561  0.1033
23022W        W39206  16.754   6.647  11.224 -0.1740 -0.2136  0.1344
23023W        W39207  16.229   5.461   4.703 -0.3111 -0.2112 -0.0793
23024W        W39208  11.661  15.818  16.426 -0.0179 -0.0018  0.2066
23025W        W39209   9.549   1.434   2.236 -0.4396  0.0699 -0.1980
23026W        W39210   6.263   9.936  16.021 -0.0274  0.0241  0.0051
23027W        W39211   0.709   1.882   1.417 -0.0972 -0.0693 -0.1962
23028W        W39212   0.797   2.868  14.146  0.1697  0.1132  0.0624
23029W        W39213  16.713   4.886   0.151  0.2461  0.0660 -0.1370
23030W        W39214   7.606   2.317  12.092  0.1137  0.2420 -0.2237
23031W        W39215   9.425   3.017   4.893 -0.0321  0.1635  0.0819
23032W        W39216  10.326   1.557  12.813  0.1459 -0.1159  0.2109
23033W        W39217   1.813   3.572   1.406  0.1610  0.0322 -0.2685
23034W        W39218  14.749  17.544   3.524  0.0254  0.2449 -0.0012
23035W        W39219   6.145   4.370  15.316  0.0330  0.1886 -0.0948
23036W        W39220   2.866   5.485   3.446  0.4160  0.1545 -0.1550
23037W        W39221   7.578  15.673   0.558 -0.4467  0.1238 -0.4441
23038W        W39222  14.174   5.804   1.558 -0.0135 -0.1142 -0.3827
23039W        W39223   5.743   2.065   5.449  0.0741 -0.3373  0.0390
23040W        W39224   5.824   5.888  14.735 -0.1181  0.0259 -0.0919
23041W        W39225   2.917   5.670   0.195 -0.1423 -0.0284  0.0294
23042W        W39226   9.677   7.969   0.147 -0.2194  0.3508 -0.2431
23043W        W39227  13.216  13.113  12.209  0.1324 -0.5310 -0.1774
23044W        W39228   8.369  10.375  14.282 -0.0219  0.4019  0.1651
23045W        W39229  17.304   3.199  15.335  0.0494  0.0923 -0.1183
23046W        W39230   2.130  13.994  15.136  0.1643  0.0194 -0.0333
23047W        W39231  14.291   0.747   2.109  0.1610 -0.0480 -0.1464
23048W        W39232   4.282   5.543   4.103  0.0852  0.0861 -0.1985
23049W        W39233  12.032   5.369  12.945 -0.1545 -0.0643  0.1280
23050W        W39234  13.845  10.489   3.324  0.0082 -0.0219  0.1606
23051W        W39235   8.575  16.149   2.681  0.3552  0.0361 -0.2647
23052W        W39236   0.758   8.712  11.449  0.0243 -0.0482  0.2120
23053W        W39237  15.947   1.227   5.223  0.0679  0.2570 -0.1625
23054W        W39238   4.305   8.809  15.871 -0.1306 -0.1672  0.1606
23055W        W39239   2.509  14.860   5.621  0.2068  0.2518 -0.0895
23056W        W39240   5.739   2.942  15.980 -0.0263  0.2509 -0.1567
23057W        W39241  16.298  17.998   0.897 -0.0476  0.2243 -0.3062
23058W        W39242  18.170  17.704   4.880  0.0356  0.0241  0.1451
23059W        W39243   0.108  13.384   1.053  0.1166 -0.0987 -0.2546
23060W        W39244   8.595  13.017   0.414 -0.2374  0.3559 -0.4191
23061W        W39245   4.198  11.187  14.550 -0.0776  0.0857 -0.1106
23062W        W39246   7.460  12.797   5.421 -0.0483 -0.1486  0.2959
23063W        W39247   3.403   6.027   5.838 -0.0493  0.0826 -0.2990
23064W        W39248   4.287  15.151   0.774  0.0561  0.1434  0.0436
23065W        W39249  15.490  17.003   3.503 -0.1491  0.2287 -0.4510
23066W        W39250   9.650  12.767   3.106  0.1277  0.1999  0.1556
23067W        W39251   5.894   9.081   1.362  0.0975 -0.2123  0.0305
23068W        W39252   3.274   5.459  15.578 -0.0528 -0.1378  0.2076
23069W        W39253  10.738  12.111  15.986 -0.1111 -0.0337  0.2175
23070W        W39254   6.630   2.552   1.788 -0.1259 -0.3599  0.0351
23071W        W39255  14.234   7.253  16.416  0.1268 -0.1729 -0.1530
23072W        W39256   2.518  13.851   3.688 -0.0328  0.1077 -0.0179
23073W        W39257   7.991   6.528  16.102  0.2499  0.2273  0.0216
23074W        W39258  15.995   3.950   4.606  0.2817 -0.2613 -0.1839
23075W        W39259   5.044  11.675   1.837  0.0016  0.0870 -0.2092
23076W        W39260   1.437   6.639   2.422  0.1848  0.1579 -0.0382
23077W        W39261  15.010  15.609   4.706 -0.3682  0.4664  0.0047
23078W        W39262   2.364   0.548  13.465  0.3484  0.1421  0.2168
23079W        W39263  10.339   6.490   6.007 -0.1216 -0.1280 -0.0896
23080W        W39264  10.600  11.552  13.165 -0.1384  0.0013  0.0497
23081W        W39265   3.267  10.881  16.070 -0.1608 -0.1453 -0.4679
23082W        W39266  14.682   4.564  12.545 -0.2816  0.0078  0.1237
23083W        W39267  13.178   5.914   5.007  0.0350  0.0426 -0.3293
23084W        W39268  12.699   1.572  15.677  0.0546  0.1331 -0.2701
23085W        W39269  17.431  10.214  12.038 -0.2530 -0.1519 -0.0474
23086W        W39270   8.857  15.886   5.217  0.1837 -0.0082  0.1123
23087W        W39271   5.709  16.582   1.843 -0.1478 -0.0280  0.0310
23088W        W39272   2.572   5.192   0.455  0.1268 -0.0310  0.3136
23089W        W39273   1.456  12.727   3.812 -0.1102  0.1351 -0.0392
23090W        W39274  14.518  14.123  12.796 -0.2118  0.2620  0.0860
23091W        W39275   7.993  16.234   5.157 -0.0354 -0.0111  0.3062
23092W        W39276   1.560  16.309  16.105 -0.2654 -0.0657 -0.1323
23093W        W39277  10.460  13.921  13.495 -0.0554 -0.0332  0.0983
23094W        W39278   6.024  16.378  14.941  0.1399 -0.4577  0.3853
23095W        W39279   4.680  12.234   4.514  0.0627 -0.0961  0.0268
23096W        W39280   7.328   0.064  12.891 -0.0345 -0.0550 -0.0172
23097W        W39281   5.705  16.908  12.997 -0.0468 -0.1900 -0.1070
23098W        W39282   2.070   3.849  10.830 -0.0655  0.0297 -0.1408
23099W        W39283   7.256   9.093  15.617  0.1122  0.0453  0.1063
23100W        W39284   4.545  16.654   4.693 -0.1938 -0.2267  0.2517
23101W        W39285   1.381   8.568  15.925  0.0368  0.0838  0.1017
23102W        W39286  13.297  13.248   3.898 -0.0217 -0.1321 -0.0598
23103W        W39287   9.477  12.334   3.057 -0.2587  0.1728 -0.3603
23104W        W39288   1.219   1.168   0.523  0.2020  0.1187  0.0869
23105W        W39289   2.825  12.148  11.492 -0.2024  0.0655 -0.1087
23106W        W39290  17.184  13.476   5.094 -0.0650 -0.1987 -0.2847
23107W        W39291   7.479   0.958   2.448 -0.2399  0.2365  0.2587
23108W        W39292  10.754   5.871   1.102 -0.0738 -0.1321 -0.4109
23109W        W39293  13.207  14.002   2.191  0.4648 -0.2505 -0.2483
23110W        W39294   2.097   2.668  14.289  0.2183  0.0860  0.1817
23111W        W39295  13.612   8.447   4.247 -0.1679  0.3458 -0.1915
23112W        W39296  13.681  16.806   1.773  0.2472  0.0445 -0.0920
23113W        W39297  17.502   0.397  13.233  0.0928 -0.1390  0.3163
23114W        W39298   7.250  11.032  14.508 -0.0359  0.4194  0.3662
23115W        W39299   4.623  12.905   5.603 -0.3095 -0.1748  0.1013
23116W        W39300  13.377   3.623   1.042  0.2407 -0.0426 -0.1081
23117W        W39301  17.546   8.304  15.627  0.2193 -0.1184  0.0940
23118W        W39302  17.388  14.028   2.148  0.1991 -0.3008  0.1437
23119W        W39303   1.402  12.027   4.644 -0.2484 -0.0374 -0.2733
23120W        W39304  13.034   6.409   4.956 -0.0195 -0.1107  0.1778
23121W        W39305   0.860  16.579   2.772  0.2048 -0.0934 -0.2297
23122W        W39306  12.602  12.504   2.810  0.2624  0.1782 -0.0522
23123W        W39307   5.819  11.593   1.483 -0.0152 -0.0052  0.1484
23124W        W39308  15.143   2.559  14.673 -0.2562 -0.1747 -0.1410
23125W        W39309   5.702   8.085   1.666 -0.0915 -0.0688  0.2664
23126W        W39310   4.830   3.117   2.720  0.1670  0.0056  0.0936
23127W        W39311   9.255   2.856  15.238 -0.0395  0.2282  0.1503
23128W        W39312   2.061   1.859  13.505 -0.0810 -0.0583 -0.1634
23129W        W39313  12.410  13.458  13.525 -0.0601 -0.0082  0.1426
23130W        W39314   8.879   7.005   4.834 -0.1281 -0.1035 -0.2168
23131W        W39315   5.636   7.613   1.764  0.0502  0.4342 -0.1029
23132W        W39316  11.136   1.027   3.008  0.0198  0.1511  0.2016
23133W        W39317  12.637   9.640   2.076 -0.1695  0.1340  0.1115
23134W        W39318  16.196   8.351   0.733  0.1587  0.2746  0.0145
23135W        W39319  13.835  16.284  15.618  0.2119 -0.2163 -0.1568
23136W        W39320   0.832   4.897  10.599  0.0599  0.1725 -0.1150
23137W        W39321   1.598   1.939  14.319 -0.1980 -0.0451 -0.0061
23138W        W39322  15.502   8.879   3.787 -0.1417 -0.4703  0.0884
23139W        W39323   1.223   6.832   0.470 -0.0807  0.0392  0.1647
23140W        W39324   0.241   4.101  14.334 -0.0650 -0.0212 -0.0028
23141W        W39325  13.467   4.137  15.686 -0.1833  0.1951  0.1142
23142W        W39326  10.697   9.906  14.683 -0.0651 -0.3032 -0.1907
23143W        W39327  17.623  10.852   1.534  0.0642 -0.0482 -0.2107
23144W        W39328   8.557  12.320   1.004  0.1080  0.1922 -0.0013
23145W        W39329  18.092   1.665  12.775 -0.0281 -0.0532  0.0135
23146W        W39330  13.152   2.084  12.163  0.1112  0.1577  0.0110
23147W        W39331   0.903  11.602  11.376 -0.1174 -0.3552  0.1306
23148W        W39332   6.513   7.582  14.669  0.1902  0.1245 -0.2665
23149W        W39333  12.183  16.058  12.448  0.1716 -0.0295  0.0366
23150W        W39334  13.102  11.122   0.754 -0.0301  0.1158 -0.2479
23151W        W39335  14.947   7.027  10.582  0.0753  0.2486  0.1450
23152W        W39336   6.168  10.831  16.463  0.1317 -0.0016 -0.1610
23153W        W39337  17.612   5.156  11.731 -0.2025 -0.0605  0.4624
23154W        W39338  14.836   5.889  12.604  0.2586 -0.1645 -0.2136
23155W        W39339   8.445  15.632   2.990  0.1348 -0.1354 -0.1515
23156W        W39340  17.720   9.750   1.683 -0.1557  0.1318 -0.0353
23157W        W39341  12.355  16.099  15.448 -0.1781 -0.0175 -0.4329
23158W        W39342  10.217  15.122   4.755 -0.1851 -0.2503  0.1341
23159W        W39343   0.886   4.797   2.540  0.1952 -0.1497 -0.1620
23160W        W39344  12.964  15.916   2.434  0.1331 -0.1302  0.1289
23161W        W39345   8.648  15.194  11.836 -0.1721  0.3347  0.0476
23162W        W39346   9.266  16.119  13.787 -0.2100 -0.2985  0.1285
23163W        W39347   7.784   1.637   4.106  0.0246 -0.0620  0.0322
23164W        W39348  11.677  14.183  15.226 -0.0790 -0.0886 -0.1545
23165W        W39349  14.009   7.912   3.647  0.3002  0.0177 -0.0183
23166W        W39350  10.925   6.249   1.461 -0.1468  0.1947  0.1348
23167W        W39351  10.358  17.380   2.558 -0.0779  0.1676 -0.5887
23168W        W39352  10.605   3.207  11.865  0.0857  0.1791 -0.0456
23169W        W39353  15.092   7.820  11.425 -0.0097 -0.0659 -0.2101
23170W        W39354   5.963   0.114   2.514 -0.0522 -0.0925 -0.0192
23171W        W39355  10.046  12.806   1.888 -0.4173  0.0738  0.0410
23172W        W39356  15.133  10.208   3.833 -0.0186  0.3063  0.2086
23173W        W39357   1.410   6.359   0.137  0.2787 -0.2606 -0.0544
23174W        W39358  10.024  10.794  14.794 -0.0713  0.0186  0.2406
23175W        W39359   5.264  15.527   3.995  0.1715  0.1194 -0.2037
23176W        W39360  16.142  11.446  14.023 -0.1278  0.1349  0.1577
23177W        W39361  14.572   9.252  11.881 -0.1349  0.0916  0.2365
23178W        W39362   6.254   4.434   3.860  0.0392 -0.1648 -0.0599
23179W        W39363   1.514   4.844   2.915  0.1327  0.1014  0.1520
23180W        W39364   9.127  15.507  13.517  0.0103  0.1510 -0.1100
23181W        W39365   4.664  13.477   4.051 -0.1504 -0.0203  0.0266
23182W        W39366  14.449  10.066   4.052 -0.3155  0.2854 -0.1466
23183W        W39367  14.606   6.546   2.728 -0.2461 -0.3662 -0.1855
23184W        W39368   0.276   8.929   2.455  0.0679  0.1743  0.0197
23185W        W39369  10.389  13.468  12.939 -0.1376  0.1787 -0.0298
23186W        W39370   6.384  13.030  13.340 -0.1854 -0.1885 -0.1451
23187W        W39371   6.672  13.105   3.683 -0.3305  0.2400  0.2948
23188W        W39372   7.098  17.802   6.265 -0.0635  0.2225 -0.0547
23189W        W39373  10.774   1.053   0.125  0.1381 -0.1378  0.1763
23190W        W39374   4.347   9.333   5.692  0.1616  0.0115  0.0524
23191W        W39375  16.754  13.360  12.253 -0.0481 -0.0110  0.2410
23192W        W39376   6.302   0.326  12.835 -0.1291  0.3092 -0.0935
23193W        W39377  16.018   9.091   3.661  0.1525  0.0608 -0.0585
23194W        W39378   3.743  16.657   5.767 -0.1511  0.2230 -0.0690
23195W        W39379   3.931  11.968   4.295 -0.0099  0.0984  0.2760
23196W        W39380   1.029  10.611  14.163  0.2108 -0.0927  0.2974
23197W        W39381   2.170   7.137   3.821 -0.0617  0.0254 -0.0489
23198W        W39382  12.621   5.367   1.282 -0.1280  0.4420  0.0679
23199W        W39383  11.658  15.442  16.095  0.0376  0.1346 -0.1864
23200W        W39384   4.514   7.902   3.112 -0.0086 -0.2328  0.0412
23201W        W39385   8.963   9.100  15.495 -0.1768  0.0002 -0.2056
23202W        W39386   6.828  11.351   3.440  0.0544 -0.3134 -0.0719
23203W        W39387  11.942  12.836   5.818 -0.0896  0.0861 -0.1661
23204W        W39388  12.476  16.756  13.308 -0.0339  0.3278 -0.1061
23205W        W39389   8.398   6.439  12.987 -0.3399  0.0980 -0.2150
23206W        W39390   4.568   8.583  12.715 -0.1749  0.2963  0.1731
23207W        W39391  12.321  13.299   5.439  0.1006  0.0138 -0.0386
23208W        W39392   1.951   2.033  14.696  0.3288  0.3010  0.4106
23209W        W39393   7.631   1.448   2.521  0.3050  0.2294 -0.1652
23210W        W39394   7.014   3.020   1.567 -0.3485  0.1433  0.1735
23211W        W39395   8.146   8.567  15.309  0.0146  0.0814 -0.0016
23212W        W39396   9.324   4.611  14.675  0.1870  0.1790 -0.0331
23213W        W39397   3.349   2.870   0.050  0.0333  0.2438 -0.0555
23214W        W39398   1.177  11.810  16.164 -0.0844  0.0447 -0.3280
23215W        W39399   3.984   3.701   4.171  0.1594 -0.0938  0.0765
23216W        W39400  12.666   3.549  15.436  0.2276 -0.3233  0.1769
23217W        W39401  12.709  11.287   3.200 -0.0403  0.0830 -0.0353
23218W        W39402  15.440  18.074   4.288 -0.2584 -0.0864  0.0898
23219W        W39403   3.769   5.409  14.391 -0.0977 -0.3147  0.2614
23220W        W39404   0.953   7.647  16.290  0.1344  0.1613 -0.1873
23221W        W39405   9.851   5.609   5.549  0.0214  0.0796  0.2936
23222W        W39406   5.057  14.158  13.264 -0.0529 -0.0381  0.2250
23223W        W39407  14.720  14.978   1.170 -0.2652  0.2011  0.0400
23224W        W39408  12.001   2.970  13.901 -0.0003  0.0215  0.1046
23225W        W39409   1.101  17.745   3.359 -0.2611  0.0696  0.0021
23226W        W39410   8.215   2.832  14.559  0.0286 -0.4499  0.1173
23227W        W39411   5.652   6.638   4.233  0.1084  0.1097  0.0522
23228W        W39412  10.439  13.347   3.533  0.1087 -0.0386  0.5628
23229W        W39413   9.244  12.917  14.634  0.2682 -0.3736  0.0344
23230W        W39414   5.563   5.121  15.214  0.2548  0.2564 -0.3190
23231W        W39415  10.220  17.942   3.965  0.2435  0.0844 -0.0684
23232W        W39416   7.095  17.306  13.287 -0.1856 -0.1843 -0.0862
23233W        W39417  11.935  17.509  12.932 -0.1069  0.1782  0.1435
23234W        W39418   8.424  17.735   4.052  0.0255 -0.0164  0.0118
23235W        W39419   7.127  13.685   4.316 -0.1151  0.0752 -0.2194
23236W        W39420  14.275   5.764  16.526 -0.0363  0.4087  0.0392
23237W        W39421  16.149   8.737   3.351  0.1269  0.0298  0.2713
23238W        W39422  12.240   8.125  12.062  0.0717 -0.1643  0.2126
23239W        W39423   4.652   1.438   4.283 -0.1509  0.1649  0.1855
23240W        W39424   6.103   3.700  12.799  0.0731  0.0201 -0.2378
23241W        W39425  12.050   6.736   3.248 -0.0526  0.1078 -0.0531
23242W        W39426  11.230  13.511  12.195 -0.2361  0.0048 -0.0006
23243W        W39427  16.715  13.398   4.867  0.0367 -0.1202  0.2321
23244W        W39428  12.682  16.776   0.400 -0.0997 -0.1545  0.1977
23245W        W39429   7.959  11.409   5.977  0.1653 -0.1041  0.0173
23246W        W39430  15.832   9.001   6.071  0.0525  0.0124  0.0420
23247W        W39431   5.262   9.559  15.203 -0.1871  0.0755 -0.2851
23248W        W39432  13.123  16.431   1.620  0.2852  0.2711 -0.1542
23249W        W39433  12.658   7.021  14.988 -0.0232  0.2794  0.1490
23250W        W39434  10.655   0.388  12.116  0.0843  0.1948  0.0309
23251W        W39435  13.324   1.821  11.758 -0.6217  0.0367  0.1286
23252W        W39436  16.969   0.482   5.128 -0.0300 -0.2276  0.0551
23253W        W39437   8.590   9.438  14.208  0.1753 -0.3577  0.2362
23254W        W39438   5.870   6.453   2.281 -0.1476 -0.3348 -0.0860
23255W        W39439   2.190   4.325  13.069  0.1947  0.1957 -0.3125
23256W        W39440  10.897   2.633   0.625  0.2219  0.1644 -0.0830
23257W        W39441  11.517   3.741  12.862  0.0083 -0.1140 -0.0156
23258W        W39442   7.817   7.333  12.653 -0.3426  0.0362  0.1909
23259W        W39443   9.358   5.751   5.478  0.0850 -0.0256  0.1199
23260W        W39444   5.678   7.269   1.154 -0.1173 -0.0865  0.1451
23261W        W39445  13.809   1.588  14.027 -0.3968 -0.0791 -0.3377
23262W        W39446  13.776  17.442   5.008 -0.1399 -0.0507 -0.1456
23263W        W39447  18.040   1.411   4.635  0.1141  0.3594  0.1459
23264W        W39448   4.400  14.838  14.974  0.3026  0.1391 -0.1667
23265W        W39449  12.275  14.796  14.030 -0.1806 -0.1130  0.0391
23266W        W39450   9.375   9.261   4.180 -0.2198  0.0247  0.0188
23267W        W39451   9.557  12.484   3.522 -0.2948 -0.0380  0.0001
23268W        W39452  13.260   6.405  16.451 -0.1065  0.2111 -0.0038
23269W        W39453  18.110  18.059   1.585 -0.1249 -0.0423  0.0311
23270W        W39454  12.732  12.916  15.914 -0.1697  0.1861 -0.1798
23271W        W39455  15.285  11.607  12.413 -0.0631  0.2996 -0.0061
23272W        W39456   2.040   5.665  15.231 -0.0276  0.2308 -0.0412
23273W        W39457  10.320   5.610   5.803  0.1307  0.1778  0.1027
23274W        W39458  14.860  17.734   4.310 -0.2181 -0.0195 -0.0699
23275W        W39459   2.988  11.766   4.660  0.1345 -0.0241 -0.2348
23276W        W39460   7.510  13.259  16.602  0.1569 -0.3976 -0.1689
23277W        W39461  16.210   3.979   2.810 -0.1273 -0.2398  0.1815
23278W        W39462   9.033   6.437   3.299 -0.2548  0.1928  0.1370
23279W        W39463   4.346  15.711  14.532 -0.0023  0.0410 -0.2688
23280W        W39464  10.679   3.632   2.707  0.0029  0.1056  0.1297
23281W        W39465   5.895  13.699  11.763  0.2947  0.0631 -0.0334
23282W        W39466   4.523   3.916  11.028 -0.1581 -0.1005  0.2997
23283W        W39467  12.228   4.762   2.428 -0.0653  0.3596 -0.1603
23284W        W39468   2.509  13.597  13.855  0.0481 -0.1104  0.0761
23285W        W39469  15.763  11.055   1.259 -0.1646  0.2467 -0.2501
23286W        W39470  17.873  16.344   1.678 -0.0862 -0.1610  0.0176
23287W        W39471   7.360   1.052  16.074  0.1190 -0.1396 -0.4037
23288W        W39472  18.042   7.918  11.796  0.0432 -0.2203 -0.0553
23289W        W39473   4.337  10.114  16.659 -0.1788 -0.1242  0.1215
23290W        W39474  16.732   3.854  14.488 -0.1782 -0.1191 -0.1896
23291W        W39475   3.429  10.239  13.621  0.0831 -0.2844 -0.0193
23292W        W39476   5.108   9.614   2.222  0.0836 -0.0316 -0.1666
23293W        W39477   3.498  13.782  12.565 -0.1011 -0.0557  0.3298
23294W        W39478  16.376  14.077  15.929 -0.1073 -0.0437 -0.0093
23295W        W39479   9.814   7.990   5.703 -0.1673  0.0643  0.1616
23296W        W39480  14.307   8.417   1.328 -0.1685  0.2034  0.2222
23297W        W39481  11.914  13.751  12.760  0.2351 -0.1462 -0.1656
23298W        W39482   3.701  15.948   1.784  0.2712  0.1470 -0.3016
23299W        W39483   9.881   6.884   3.807  0.1121 -0.2201  0.2937
23300W        W39484   6.699   3.809  16.333  0.1400  0.0062  0.2177
23301W        W39485  13.754  11.756  12.314 -0.0566 -0.1405  0.2078
23302W        W39486   9.469  11.990  10.872  0.2717  0.1410 -0.0309
23303W        W39487  17.857  16.543   2.168  0.0027  0.1150  0.0388
23304W        W39488   7.012   4.826   6.276 -0.2514 -0.0700  0.0781
23305W        W39489   2.047   0.656   0.270 -0.0921 -0.0171 -0.0695
23306W        W39490  14.127   5.744   4.083 -0.0031 -0.1859  0.1281
23307W        W39491  15.651  13.142   3.432 -0.0757 -0.4079 -0.2818
23308W        W39492   6.696   1.077   3.731 -0.1031 -0.1123  0.0842
23309W        W39493  16.583   0.845  14.848  0.0270  0.0435  0.0987
23310W        W39494   3.044   2.125   0.337 -0.2876  0.1910  0.1189
23311W        W39495   1.290   7.223  13.366  0.0521 -0.1763  0.3435
23312W        W39496  13.889  16.419   3.593 -0.1007 -0.2257  0.0951
23313W        W39497   1.238  10.115   0.332 -0.1192  0.0225  0.1569
23314W        W39498  11.250   0.438  13.870  0.0340  0.0808  0.3824
23315W        W39499   0.249  16.123   0.249 -0.2201  0.0471  0.2726
23316W        W39500  14.533   7.199   3.998 -0.1575  0.1154 -0.2760
23317W        W39501   2.425  10.194   1.688 -0.1548 -0.0576  0.0567
23318W        W39502  15.196  11.873   4.414  0.2733 -0.0437  0.0306
23319W        W39503  17.108   9.679   2.997 -0.0661 -0.1959 -0.0469
23320W        W39504   6.480  10.407  14.538  0.2004  0.1754 -0.3054
23321W        W39505  12.156   5.472  14.081 -0.0360 -0.0227  0.1138
23322W        W39506  11.429   2.269   1.331 -0.2412 -0.0750  0.2849
23323W        W39507  17.026   8.294   1.807  0.1349  0.0123  0.5650
23324W        W39508   6.276   2.185   1.811 -0.0514  0.2017  0.0704
23325W        W39509   2.418  14.317   4.669  0.0911  0.1324  0.0720
23326W        W39510  15.103   6.513   2.023  0.0223  0.1196 -0.2854
23327W        W39511   0.539   7.207   1.255  0.1980 -0.2873 -0.3332
23328W        W39512  13.012   1.283  13.550 -0.2062 -0.0403  0.0065
23329W        W39513  16.119  11.715  12.317 -0.2240 -0.0170 -0.0389
23330W        W39514   5.176   8.170   3.545 -0.2302  0.1830 -0.0039
23331W        W39515   5.727  16.825   2.583  0.2224 -0.0769 -0.0779
23332W        W39516  12.098   5.788   3.269  0.0694  0.1459 -0.0639
23333W        W39517   7.816   4.604   2.431  0.1030 -0.0615 -0.2542
23334W        W39518   5.796   6.140  12.154 -0.1781 -0.0417 -0.1734
23335W        W39519  17.858  12.032   3.572  0.0668 -0.1011  0.1358
23336W        W39520   2.651   7.542  12.946 -0.0749 -0.0871  0.4093
23337W        W39521  17.962  14.428   0.322 -0.1669  0.1858  0.2482
23338W        W39522   8.831   4.794   5.663 -0.2789  0.2314  0.3428
23339W        W39523   4.418  10.180  12.020 -0.1423  0.1295 -0.0627
23340W        W39524   3.543   3.991   3.576  0.2947  0.0727 -0.0307
23341W        W39525  11.769   0.213  16.428 -0.2976  0.0418  0.2374
23342W        W39526   4.081  17.816   0.759  0.3323 -0.2700  0.1881
23343W        W39527  14.440  16.048  14.919  0.0473  0.1051 -0.2224
23344W        W39528   4.960   3.503  16.202 -0.2310  0.4464 -0.0166
23345W        W39529  15.638   2.084   0.932  0.0773 -0.1555 -0.0617
23346W        W39530   7.115   8.676  16.683  0.0274 -0.0125 -0.2690
23347W        W39531  11.857   5.148   2.754 -0.1201  0.0004 -0.1176
23348W        W39532  13.147  14.883   1.529 -0.0775 -0.1585 -0.0419
23349W        W39533  11.495  16.639  13.413  0.1246 -0.0567 -0.0878
23350W        W39534   3.816   8.744   3.146  0.3633  0.1834 -0.1310
23351W        W39535   5.003   1.406  15.644 -0.0491 -0.2833 -0.0373
23352W        W39536   4.844   1.207   1.103  0.1421 -0.0888  0.0336
23353W        W39537   7.592  15.024  13.221 -0.0749  0.1307  0.0027
23354W        W39538   9.654   0.941  12.428 -0.0935  0.2880  0.1161
23355W        W39539   4.192   9.409  14.337 -0.2165  0.0259  0.2033
23356W        W39540  18.107   9.927  13.373  0.0161  0.0951  0.0309
23357W        W39541  11.219   7.059   0.433 -0.2297  0.3317 -0.0343
23358W        W39542   1.404  13.833  13.266 -0.4096 -0.1273  0.1682
23359W        W39543   9.791   9.356  12.918 -0.1802 -0.0106 -0.1148
23360W        W39544   8.306  10.522   5.895  0.0755  0.2268  0.0710
23361W        W39545   1.609   9.400  15.762 -0.3520 -0.0382 -0.2081
23362W        W39546   1.625   7.935   4.335  0.0450  0.0938  0.0946
23363W        W39547   7.210   2.569  13.041  0.2356  0.2165  0.1435
23364W        W39548  13.660   8.605   4.729  0.3146  0.0555 -0.0824
23365W        W39549  18.164  12.816   2.637 -0.1170 -0.1186  0.1486
23366W        W39550  10.951   8.861   4.487  0.0614 -0.0760 -0.1521
23367W        W39551  15.930   3.189   3.394 -0.2336  0.1041 -0.1429
23368W        W39552   7.726   1.299  13.602  0.2330  0.1196  0.1960
23369W        W39553   6.162  16.017   3.849 -0.5413  0.1057 -0.1632
23370W        W39554   2.677  13.293   0.409  0.0086  0.2791  0.0422
23371W        W39555  12.783   7.350  14.527 -0.3048 -0.1343 -0.1511
23372W        W39556   3.409   2.144   3.829  0.1682  0.1984 -0.0857
23373W        W39557   1.623   3.403  14.792 -0.3227 -0.3190  0.1614
23374W        W39558   4.980   1.343   1.543 -0.3476  0.0800 -0.0483
23375W        W39559  17.857   1.533  15.175  0.2686 -0.0012  0.0683
23376W        W39560   1.404  13.431  16.605  0.1841  0.1200  0.3104
23377W        W39561   5.418  17.996  15.161 -0.3673  0.1772 -0.0571
23378W        W39562   4.417   6.045   5.820  0.1359  0.1093  0.0061
23379W        W39563  11.239  15.665   2.608 -0.1725  0.3033  0.3325
23380W        W39564  17.407   1.561   3.026  0.1182  0.0019 -0.1340
23381W        W39565  14.613   2.568  16.560 -0.1740  0.0647  0.2631
23382W        W39566  14.865   2.836  13.204  0.0900  0.0770 -0.0338
23383W        W39567   2.092  12.815   1.012  0.0566 -0.1072  0.0441
23384W        W39568   6.540   9.731   4.533 -0.1755  0.0726  0.2151
23385W        W39569   1.373   5.726  15.948  0.1893 -0.2521 -0.0098
23386W        W39570   1.975   1.366   2.754  0.1877 -0.1239 -0.2479
23387W        W39571   9.455   5.775   5.009 -0.1430  0.1529 -0.1081
23388W        W39572  14.582   3.296   3.458 -0.1740  0.1151 -0.1067
23389W        W39573  10.937   6.403  14.286  0.1543  0.1576 -0.1991
23390W        W39574  10.010  17.951   1.641  0.0325  0.1189  0.0961
23391W        W39575  15.088   1.629   1.464  0.2164 -0.2750  0.4622
23392W        W39576  13.341   3.317   3.003 -0.0738 -0.0312 -0.0591
23393W        W39577   5.042   3.438  12.357 -0.2566 -0.2726 -0.2628
23394W        W39578  17.898  15.751  11.909  0.1189 -0.0597 -0.0271
23395W        W39579   9.531   7.880  14.962  0.0750  0.1107  0.3637
23396W        W39580   7.671   7.922  14.820  0.0039 -0.0663 -0.1154
23397W        W39581   3.704  15.357   6.229  0.1621  0.0269 -0.0094
23398W        W39582  12.242   7.654   1.506  0.1467 -0.0658 -0.0516
23399W        W39583  17.237  16.484  14.763  0.2936  0.3464 -0.3817
23400W        W39584   8.316  11.901   0.707 -0.1122  0.2427 -0.2665
23401W        W39585  17.252  17.783   5.649  0.1019  0.0992 -0.1715
23402W        W39586  10.782   6.355   1.952  0.1191 -0.0047 -0.0095
23403W        W39587   4.196   6.758   4.427  0.1415 -0.0281  0.2317
23404W        W39588   8.209  18.089  14.962 -0.1882 -0.2855 -0.1743
23405W        W39589   5.313   0.996  14.456  0.2629 -0.0934 -0.0552
23406W        W39590   3.561  13.453  13.016  0.0747 -0.0282 -0.1934
23407W        W39591   1.324   0.484   3.049 -0.2432  0.1928 -0.0973
23408W        W39592   7.952  15.739   2.742 -0.2292 -0.2660  0.4562
23409W        W39593   2.550   9.656  14.182  0.0199 -0.0478  0.2516
23410W        W39594  12.339  12.339  11.985  0.1242  0.1129  0.2011
23411W        W39595   1.549   8.543  13.819 -0.0627  0.1479 -0.2499
23412W        W39596  12.817  18.043   5.527  0.0975 -0.1958  0.0836
23413W        W39597  11.881   4.111   1.394  0.0746  0.1558  0.0549
23414W        W39598   0.759  15.290   2.855  0.2741  0.0989  0.2764
23415W        W39599  16.967   7.432   4.233 -0.0407 -0.1145  0.1856
23416W        W39600  16.046   5.355  13.804 -0.1413 -0.0564  0.0291
23417W        W39601  10.649   2.964  15.405  0.1788 -0.1798 -0.1898
23418W        W39602   1.948   1.697  13.984  0.1108  0.1685 -0.0217
23419W        W39603  16.530   0.866   2.548 -0.0031 -0.1776 -0.0122
23420W        W39604  13.024   7.082  15.770 -0.0696  0.3248  0.2924
23421W        W39605  16.617   1.225   3.686  0.1005 -0.3992 -0.2162
23422W        W39606  12.360   1.013  11.214  0.1026 -0.2226  0.1533
23423W        W39607   4.391   9.072   4.692 -0.2475  0.1664 -0.0722
23424W        W39608   8.626  12.277   3.020 -0.1639  0.0267 -0.5893
23425W        W39609   4.326   3.453   5.045 -0.0819  0.1879  0.0493
23426W        W39610  17.434   0.468   5.346 -0.1317  0.2616  0.0404
23427W        W39611   5.286  14.903  13.610 -0.1223 -0.0395 -0.1304
23428W        W39612   9.956   4.182  13.251  0.2771 -0.0402 -0.1259
23429W        W39613   1.247   5.041  12.413  0.1133  0.1373  0.3718
23430W        W39614   8.283   9.867  16.392  0.1602 -0.1621  0.1939
23431W        W39615  15.781   1.188  14.609 -0.1033  0.1781  0.0996
23432W        W39616  11.797  14.699  12.782 -0.0585 -0.1235 -0.2498
23433W        W39617   5.789   2.258  15.179 -0.3880 -0.0574 -0.2606
23434W        W39618  16.216  14.972  11.745  0.1606  0.1028 -0.1073
23435W        W39619  12.545  14.874   4.876 -0.0595  0.2340 -0.0426
23436W        W39620   6.942  13.519  11.776  0.1690 -0.0257 -0.0833
23437W        W39621  14.417   4.505   1.422 -0.1203 -0.0212 -0.0821
23438W        W39622  15.519   7.763   0.487 -0.1783  0.0619  0.1074
23439W        W39623   2.956  16.797   2.345 -0.0577 -0.1456 -0.0441
23440W        W39624  15.709   8.506   1.584 -0.0387  0.3579  0.1976
23441W        W39625   1.669   5.310  13.544 -0.2178 -0.2801 -0.0450
23442W        W39626   5.355   3.034  16.234  0.0916 -0.1172  0.0336
23443W        W39627   2.351   9.266  16.009 -0.0254 -0.0090  0.4114
23444W        W39628   2.726  12.129   3.427 -0.0254  0.1633 -0.0764
23445W        W39629   5.718  15.823  16.635  0.2872  0.0230  0.0954
23446W        W39630   5.938   7.667   5.104  0.1594 -0.0202 -0.1799
23447W        W39631  15.750  10.929   5.073 -0.0969  0.2073  0.1451
23448W        W39632  16.672   7.441   2.752  0.0378  0.4811  0.0301
23449W        W39633   1.441   4.868   2.426 -0.0716 -0.2984 -0.0709
23450W        W39634   8.684   7.658  14.168  0.0081 -0.1344 -0.0569
23451W        W39635   0.458  12.011  15.194 -0.2617 -0.1096 -0.0608
23452W        W39636  16.396   9.971  15.248  0.2018  0.1598 -0.0137
23453W        W39637   2.265   2.653   4.529  0.1209  0.0364  0.0628
23454W        W39638  13.863  10.707   0.052  0.2225  0.0286  0.0580
23455W        W39639  17.516   3.241  11.710  0.1001 -0.1820  0.4155
23456W        W39640   2.383   9.088   0.674 -0.0577 -0.0826  0.3714
23457W        W39641   6.822   8.311  15.221  0.0249 -0.1911 -0.2264
23458W        W39642  14.725  12.609  15.227  0.1603 -0.2879  0.2375
23459W        W39643   3.509   3.359   0.139  0.3386  0.2298 -0.0688
23460W        W39644   6.067  14.259  13.651  0.0959 -0.1937  0.0988
23461W        W39645   2.832  16.079  12.625  0.4290 -0.2579  0.1192
23462W        W39646  11.092   0.813   6.091 -0.0606 -0.0208 -0.0317
23463W        W39647   8.129  10.261   3.334 -0.1179  0.3770  0.1255
23464W        W39648  12.559   2.805   1.100  0.2081 -0.1093  0.2905
23465W        W39649  11.885   6.113   2.570  0.1334 -0.1547 -0.1107
23466W        W39650   1.655  16.387   5.469  0.1327 -0.0996 -0.2385
23467W        W39651   1.449  13.227  15.227 -0.2314 -0.1810 -0.1413
23468W        W39652   3.444   0.427  14.923  0.1992 -0.2390 -0.2094
23469W        W39653   7.737  18.158   3.605  0.1354  0.1651 -0.0932
23470W        W39654   4.831   4.817   1.349  0.0522 -0.2885  0.0417
23471W        W39655   1.582   2.959   4.814 -0.2944  0.1120  0.0359
23472W        W39656  16.253  15.040   0.235  0.0652  0.1670  0.1096
23473W        W39657  12.369   0.902  13.213  0.2248  0.0793  0.3804
23474W        W39658  11.341  17.010  16.061 -0.1336 -0.0843 -0.0901
23475W        W39659  16.363   0.676   3.063 -0.0126  0.1312  0.0163
23476W        W39660  17.270  17.406  15.744 -0.2639 -0.0834  0.0927
23477W        W39661   1.855  12.482  12.334  0.1323  0.1803 -0.3546
23478W        W39662  17.368   1.954  12.104 -0.1725  0.2671 -0.3701
23479W        W39663  13.273   0.810   0.290 -0.2394 -0.1616 -0.0880
23480W        W39664   9.757  18.044  13.655  0.0774 -0.1210 -0.0623
23481W        W39665   0.443   9.202  16.405  0.1815 -0.0777 -0.0109
23482W        W39666   4.803   5.451   6.270 -0.1840 -0.2048 -0.1628
23483W        W39667   7.810  10.211  11.693 -0.3596  0.0650 -0.0550
23484W        W39668   9.359  10.684  16.286  0.1696  0.3032  0.0738
23485W        W39669   4.877  16.867  14.048  0.1475 -0.0052  0.1405
23486W        W39670  11.475   8.609  14.722 -0.0622 -0.0005  0.5009
23487W        W39671  16.351   9.800  14.353  0.0655 -0.3315 -0.1585
23488W        W39672  17.638   7.910   2.964  0.0954 -0.0418 -0.0912
23489W        W39673   9.103   7.909  15.509 -0.2413  0.0518 -0.0846
23490W        W39674   9.635  12.026   1.968 -0.1696 -0.1337  0.5147
23491W        W39675   2.903   4.281   0.373 -0.0289  0.1211 -0.1750
23492W        W39676  16.926   9.467   1.360  0.1981  0.1679 -0.3767
23493W        W39677  15.838   6.440   5.751 -0.0036  0.0661 -0.2254
23494W        W39678  11.561  13.366   3.995 -0.1809 -0.1415 -0.0765
23495W        W39679   2.657   1.367  11.240 -0.1356  0.0126  0.0744
23496W        W39680   2.768  15.759   1.022 -0.1221  0.1439  0.0490
23497W        W39681  12.886  10.618   4.673  0.1684 -0.1211  0.1663
23498W        W39682  15.262  16.369   3.894  0.0409 -0.1922 -0.1373
23499W        W39683  10.050   8.980  13.304 -0.0873  0.1722 -0.2574
23500W        W39684   1.578   7.673  15.092 -0.2304  0.1897 -0.0921
23501W        W39685  10.416   8.210   3.019 -0.1785  0.2304 -0.3000
23502W        W39686   5.854  17.108   0.511 -0.0899  0.1560  0.1802
23503W        W39687  11.547   7.307   3.848  0.2231  0.0075  0.2126
23504W        W39688  11.765   2.982  13.387 -0.1308  0.1303  0.0787
23505W        W39689  13.986   9.939  16.298  0.1500  0.2532 -0.0752
23506W        W39690   8.747  16.374  11.761  0.3429  0.2868 -0.1649
23507W        W39691   8.791   6.203  12.315  0.3471  0.0286 -0.1007
23508W        W39692  18.006  14.768   2.959  0.2041  0.1417  0.3384
23509W        W39693  13.991  10.040   2.190 -0.2824  0.2385 -0.2032
23510W        W39694  13.880  11.952  13.275 -0.0381 -0.1194 -0.0791
23511W        W39695  14.181  12.313  10.678  0.0747 -0.3028 -0.1641
23512W        W39696   3.331  16.460   1.931 -0.0469  0.1077  0.0143
23513W        W39697  17.427  10.578   1.984  0.0374  0.2562 -0.1199
23514W        W39698   1.971  14.848   3.678 -0.1198  0.0342 -0.2579
23515W        W39699  15.406  16.360  14.192  0.0170  0.4353 -0.1003
23516W        W39700   6.560  17.634  11.565  0.0215  0.0334  0.0468
23517W        W39701  13.394  16.399  15.908 -0.0785  0.0219  0.0242
23518W        W39702   1.711   2.295   2.669  0.1594 -0.0504  0.0299
23519W        W39703   4.745  15.671   0.949  0.0781 -0.0731 -0.2358
23520W        W39704  12.485   7.054  13.425 -0.2594  0.0026  0.1028
23521W        W39705  18.110   3.508   2.219 -0.0467  0.1802 -0.1421
23522W        W39706  12.086   1.416  12.467 -0.1735  0.0254  0.0126
23523W        W39707   1.579   1.501   1.071 -0.0023 -0.3270  0.4721
23524W        W39708   7.555  10.847   5.551 -0.0292 -0.1000  0.0624
23525W        W39709  16.802   5.909   2.248  0.2996  0.0138  0.1717
23526W        W39710   4.800  17.425   5.752  0.0352 -0.0287 -0.1167
23527W        W39711   4.977   6.143   5.086 -0.0660  0.2465  0.4032
23528W        W39712   3.707   2.351   5.718  0.2231  0.2604  0.2626
23529W        W39713  14.425  12.854   3.003  0.0666 -0.0590 -0.0199
23530W        W39714   6.651   3.160  14.890 -0.2781 -0.2351  0.0072
23531W        W39715   4.920   7.134   2.146 -0.2022  0.3186  0.0620
23532W        W39716   1.250   6.783  12.524  0.2458 -0.0922 -0.1781
23533W        W39717  16.199   3.704  14.495  0.1708 -0.1139 -0.1777
23534W        W39718   2.544   9.024  11.691 -0.0437 -0.1607 -0.3281
23535W        W39719  16.260  10.332   1.297  0.3919 -0.3420 -0.1011
23536W        W39720  12.595   7.809  10.729  0.1514 -0.2757 -0.4793
23537W        W39721   1.961  13.253  15.301  0.1852  0.3511 -0.2317
23538W        W39722  12.392  10.318  14.887  0.1914 -0.1630  0.2464
23539W        W39723   0.397  12.048  15.674 -0.1419  0.0658 -0.3888
23540W        W39724   1.643  10.332  16.005 -0.0525 -0.0450  0.2591
23541W        W39725   0.165   4.795   5.538  0.1850  0.1121  0.4223
23542W        W39726   5.191   9.267   4.374  0.0021  0.0667 -0.1601
23543W        W39727   4.118  17.945  13.889  0.0250  0.1756  0.2813
23544W        W39728  11.165   4.378  13.978  0.0139  0.1375  0.1466
23545W        W39729   4.010   1.999   0.723 -0.2043  0.1918  0.0325
23546W        W39730   2.059  14.688   0.309  0.1962 -0.1676 -0.0276
23547W        W39731  12.102  11.019  12.302  0.1325  0.0657 -0.0786
23548W        W39732  12.850  16.435  13.588 -0.0554 -0.0989 -0.1807
23549W        W39733   2.206   4.247  16.377 -0.1952  0.0288  0.0358
23550W        W39734   3.527   2.171   2.212 -0.1428 -0.2054  0.0870
23551W        W39735   2.725  15.497  16.133 -0.0921 -0.3416  0.0707
23552W        W39736  16.492   1.070  11.254  0.1474  0.1748 -0.0963
23553W        W39737  12.747   9.159  15.687  0.1410 -0.3253 -0.2023
23554W        W39738  13.924  12.433  12.816  0.1958 -0.2355  0.1907
23555W        W39739  15.073   8.009  10.966  0.1604  0.0267  0.2617
23556W        W39740  17.766  14.802  11.268 -0.1140 -0.2207  0.0321
23557W        W39741   7.631   9.362  15.304  0.0376  0.1062 -0.2580
23558W        W39742   4.799  12.613  16.596 -0.0196  0.3525  0.2227
23559W        W39743   7.850  17.840   1.484 -0.3549  0.1411  0.0931
23560W        W39744  14.503   2.825  14.279 -0.1348  0.0846 -0.0870
23561W        W39745   6.990   8.594  12.746 -0.2162 -0.2979 -0.2946
23562W        W39746  15.669   1.201  11.107 -0.0580 -0.1322 -0.1682
23563W        W39747   1.624  17.909  13.347  0.0122  0.4413 -0.1129
23564W        W39748   8.526  15.930  11.879  0.0953 -0.2001 -0.1880
23565W        W39749   6.668   8.451   5.109 -0.0434  0.2211  0.1117
23566W        W39750  11.037  13.011   5.988  0.0789  0.2152 -0.0937
23567W        W39751  11.870   1.034  15.941  0.2332  0.2014  0.2576
23568W        W39752   2.587   5.073  15.125  0.1743  0.0607 -0.2194
23569W        W39753  10.167  17.560  15.316 -0.1686 -0.0577  0.3835
23570W        W39754   1.596  12.601  14.936 -0.3635  0.1232  0.1129
23571W        W39755  12.866   7.244   5.362 -0.0236 -0.0377  0.0854
23572W        W39756   9.113  16.361   1.402 -0.0553  0.0642  0.2839
23573W        W39757  15.490   8.652   1.982  0.0113  0.1748 -0.0881
23574W        W39758   6.085  11.043   3.632 -0.3629 -0.1682 -0.1801
23575W        W39759  14.682  11.914  12.910  0.1608  0.1342 -0.2929
23576W        W39760  17.610   5.600  14.458 -0.0718 -0.1606 -0.1220
23577W        W39761   6.571   7.693   3.991  0.1371 -0.0070 -0.0930
23578W        W39762   4.833   0.488  14.251 -0.0038  0.0680 -0.1527
23579W        W39763   6.908   5.456   3.079  0.0339  0.3107  0.0041
23580W        W39764   0.716   1.168   3.561 -0.0060 -0.3636 -0.1372
23581W        W39765   7.300   5.616   4.596  0.0876  0.0479  0.2777
23582W        W39766   4.173   8.785  11.698  0.0005  0.2140  0.0214
23583W        W39767   8.230   8.974  11.803 -0.1912 -0.2657 -0.1455
23584W        W39768   5.348   8.056   2.909 -0.0486 -0.1459  0.0119
23585W        W39769   4.708   8.283   1.629 -0.0674 -0.2092 -0.2788
23586W        W39770  10.832  17.037   5.182  0.0718 -0.1653 -0.5568
23587W        W39771  15.943   6.923   2.003  0.1277 -0.4529  0.1381
23588W        W39772   3.465  10.211  12.616 -0.0137  0.1139 -0.2091
23589W        W39773  14.748  17.942   5.658 -0.0984 -0.0904 -0.0758
23590W        W39774   6.145   3.685  11.220 -0.0968  0.2792  0.1733
23591W        W39775   8.360  11.855  12.223  0.1245 -0.0896 -0.0893
23592W        W39776   9.952   9.224   4.342  0.2447  0.6407 -0.1519
23593W        W39777   2.905  10.158  16.531  0.0651 -0.2318  0.1232
23594W        W39778  15.059   7.056  11.071  0.3259  0.0681 -0.3677
23595W        W39779   6.202   4.797   2.125 -0.2633 -0.0018 -0.0721
23596W        W39780  11.073   9.808   4.323 -0.0178  0.0736 -0.0377
23597W        W39781   0.157   1.787   2.905  0.2397  0.2127  0.0649
23598W        W39782  14.663   7.904   3.261  0.1293  0.1503  0.2245
23599W        W39783  13.653  17.773   1.682  0.2631  0.3892  0.0116
23600W        W39784   5.899  13.971  12.905  0.0229 -0.0461  0.0259
23601W        W39785  15.979   1.596  13.269  0.0370 -0.0341 -0.1556
23602W        W39786  11.329  14.176  13.919  0.4040 -0.0886  0.1822
23603W        W39787  16.294   9.643   4.611 -0.0500 -0.0797 -0.2365
23604W        W39788  11.914   5.352   4.175 -0.1691  0.0573  0.0005
23605W        W39789  12.473  13.228   3.580  0.1365 -0.1303  0.1885
23606W        W39790   1.859   4.908  15.694  0.2057  0.0450 -0.3217
23607W        W39791  17.692   9.254  11.876  0.2160 -0.2041  0.2370
23608W        W39792   0.403  10.441  12.357 -0.3002 -0.2080  0.0139
23609W        W39793   0.914   5.651   0.918 -0.2943 -0.2394  0.1213
23610W        W39794  15.167  13.544  15.469 -0.0045 -0.2486  0.1664
23611W        W39795   3.972   2.424   3.580 -0.0603 -0.0755  0.0296
23612W        W39796   6.078   7.734   4.051  0.0370  0.1745  0.1936
23613W        W39797  17.235   8.495  13.902  0.1364 -0.1135 -0.3367
23614W        W39798   8.586  17.655  13.104  0.0129 -0.1477  0.0913
23615W        W39799  12.615  14.749   5.839 -0.1653  0.0780  0.3124
23616W        W39800  14.154  14.452   5.307  0.0895  0.2061 -0.1330
23617W        W39801   6.779   7.788   6.225  0.2022 -0.1482 -0.2282
23618W        W39802  13.909   9.785   2.626 -0.0461  0.2674  0.0885
23619W        W39803  11.536   3.525  14.255 -0.2243 -0.1288  0.3111
23620W        W39804   1.164  14.565   2.368  0.2567  0.0365 -0.0643
23621W        W39805  16.295   9.446  15.035 -0.1410  0.0440 -0.2508
23622W        W39806  16.723   4.399   2.923 -0.0700  0.0508  0.1836
23623W        W39807  10.456   6.116   4.853 -0.1557  0.3234  0.0863
23624W        W39808  14.475  14.082   2.393  0.1243  0.0381  0.4168
23625W        W39809   2.808   5.679  15.786 -0.1898  0.1690 -0.1884
23626W        W39810  16.603   3.992   0.008  0.0803 -0.0686  0.1553
23627W        W39811   4.046   5.815   5.016 -0.0481 -0.2366 -0.0512
23628W        W39812   5.428   2.196   0.671  0.1179 -0.0808 -0.0566
23629W        W39813   9.561   1.824  10.972 -0.1359  0.3331 -0.1941
23630W        W39814  16.630  14.013   5.833 -0.3577  0.0437 -0.0230
23631W        W39815  10.026   7.368   2.867  0.2228  0.0250  0.1846
23632W        W39816   8.106   4.258   4.298 -0.0974 -0.1237  0.0831
23633W        W39817   0.815  16.068   2.980 -0.2336  0.1032  0.0049
23634W        W39818   5.408  13.184  12.406  0.1401  0.0104 -0.1846
23635W        W39819  17.285  16.630  16.644  0.1323  0.0372  0.3435
23636W        W39820   7.846   3.394  15.927 -0.0417  0.0274 -0.1648
23637W        W39821   7.360   5.741   1.975  0.0914 -0.1097  0.2032
23638W        W39822  17.546  10.210  12.985  0.1030  0.1530  0.1101
23639W        W39823   5.503   9.422  15.656  0.1838 -0.0357  0.1314
23640W        W39824  12.822  13.678  13.266 -0.2293  0.0018 -0.0971
23641W        W39825   9.147  13.664  14.528  0.1327  0.2698  0.2724
23642W        W39826  14.960   5.533  15.954 -0.0744  0.0109  0.0047
23643W        W39827  10.303   1.109  13.751  0.1922  0.2875  0.0246
23644W        W39828  13.087  17.485   1.155 -0.0417 -0.1363  0.0870
23645W        W39829  17.755   9.032  12.807  0.0901 -0.1949 -0.5032
23646W        W39830   4.424   8.264   1.151 -0.0931 -0.2736  0.1082
23647W        W39831   3.370   1.516  14.055 -0.0001  0.2660 -0.2803
23648W        W39832  18.119  15.217  12.535  0.4209  0.0124 -0.4117
23649W        W39833   5.391  11.570   2.727 -0.0486  0.2099  0.1742
23650W        W39834  11.449  12.526   0.560  0.0480 -0.1175  0.1009
23651W        W39835  13.005   0.199  15.734 -0.1490  0.1208 -0.1806
23652W        W39836  11.221  10.401   4.280  0.1254  0.1581  0.1887
23653W        W39837  14.080   5.833  11.760  0.0950 -0.3341 -0.5154
23654W        W39838  14.388   0.590  10.718  0.0577 -0.2272 -0.0674
23655W        W39839   5.391   8.359   4.108  0.0579 -0.2183 -0.0745
23656W        W39840   7.387   3.023   1.233 -0.4481 -0.0297  0.6218
23657W        W39841   2.964   4.441   1.385 -0.2196  0.2640  0.2336
23658W        W39842   9.709  13.695  16.092 -0.0916  0.0164 -0.0516
23659W        W39843  13.583  10.580  16.014 -0.0534  0.2246 -0.2032
23660W        W39844  12.713  16.545   6.122 -0.0042  0.2920  0.0637
23661W        W39845  16.017  15.536  14.025 -0.3121 -0.0457  0.0811
23662W        W39846   7.198  18.107   2.255 -0.2676 -0.3363 -0.1530
23663W        W39847   8.835   0.796  16.540 -0.1625  0.0900 -0.1119
23664W        W39848   9.523  15.045   0.852 -0.0392  0.0283  0.0913
23665W        W39849  14.403  13.779  16.013 -0.1129 -0.2392  0.0865
23666W        W39850  13.554  10.597   3.727  0.1858  0.2957  0.3803
23667W        W39851  15.378  11.818   5.198 -0.1201  0.1084  0.0149
23668W        W39852  13.350  11.570  12.647  0.0303  0.2610  0.0029
23669W        W39853   6.105  16.826   4.887 -0.0309  0.2806  0.2736
23670W        W39854  12.845   6.022   0.016 -0.0502  0.2069  0.0042
23671W        W39855   9.848   5.074  11.363  0.0974  0.1493 -0.0241
23672W        W39856   8.742  16.969   6.284  0.3346  0.0130 -0.1260
23673W        W39857  17.883  17.975   0.682 -0.1901 -0.1297 -0.0172
23674W        W39858  15.102  12.639  14.527 -0.1947 -0.2036 -0.1497
23675W        W39859   4.330   2.393   2.667 -0.0434  0.2180  0.0510
23676W        W39860   9.073   6.101   2.350  0.2212  0.0448 -0.0712
23677W        W39861  13.173   2.542  14.209 -0.1545 -0.1486 -0.1130
23678W        W39862  12.394   7.470  14.232 -0.0069 -0.0978  0.0253
23679W        W39863   7.162   7.858   1.279  0.2610 -0.2321 -0.0079
23680W        W39864   2.453   0.391   1.775 -0.0382  0.1452 -0.1718
23681W        W39865   4.008  12.789   6.348 -0.0253  0.0462 -0.1223
23682W        W39866   3.560   1.734  11.410  0.0841  0.3082  0.0544
23683W        W39867   6.632  13.958  12.227  0.3352 -0.0467  0.1188
23684W        W39868   1.926  16.031   0.124 -0.0272 -0.0809  0.2485
23685W        W39869  11.967  13.590   1.553 -0.0977 -0.2438  0.0255
23686W        W39870   9.550   8.748  14.375  0.2274  0.0154 -0.1494
23687W        W39871   6.197  16.998  12.893 -0.0295  0.4884  0.0520
23688W        W39872   3.959   7.073  14.603 -0.0449  0.2268  0.2002
23689W        W39873   2.967  10.478   0.430 -0.0507  0.0589 -0.1164
23690W        W39874   0.802   2.910  16.460  0.0818  0.0387  0.3241
23691W        W39875   1.436  10.090   3.781 -0.1161  0.0640  0.1213
23692W        W39876   3.213   3.262   3.771  0.0458  0.4337 -0.2586
23693W        W39877   2.339  16.028   0.421 -0.2551  0.0289  0.0172
23694W        W39878  14.618   5.484   1.901  0.0033  0.1715  0.0227
23695W        W39879   6.211  15.798  14.097 -0.1186  0.1228 -0.0263
23696W        W39880   4.592   9.847  16.316  0.1812 -0.0122  0.0649
23697W        W39881  15.493   6.575  11.792 -0.0716 -0.1625 -0.2574
23698W        W39882  16.286   8.189  12.085  0.0597  0.1822  0.3037
23699W        W39883  10.382  14.468   3.744  0.1143 -0.0171  0.2174
23700W        W39884   0.565   9.841  13.984  0.1976 -0.3953 -0.0763
23701W        W39885   6.042  14.793   2.193 -0.2626 -0.1683  0.0367
23702W        W39886  15.921  14.667  16.658  0.0795 -0.1965  0.0719
23703W        W39887   3.263  12.016   2.080 -0.1426  0.0372 -0.1812
23704W        W39888  14.036   3.094   0.242 -0.2849 -0.0097  0.0666
23705W        W39889   6.394  10.435   5.762 -0.2081 -0.0970  0.0825
23706W        W39890   0.059  17.823  16.551  0.2234 -0.2455 -0.1708
23707W        W39891  15.540  13.004   4.437  0.0105  0.0457 -0.2398
23708W        W39892  16.050   6.932  14.240  0.2029 -0.0780  0.1949
23709W        W39893   3.493   5.145   1.580 -0.2943  0.4295 -0.1151
23710W        W39894   0.383   4.437   4.486 -0.2564 -0.0437 -0.1067
23711W        W39895   5.719  12.743   0.195  0.1694 -0.0374 -0.0403
23712W        W39896   1.011   9.937   3.638 -0.2011  0.0102  0.1344
23713W        W39897   2.673  16.535   3.420 -0.1796  0.0531  0.0229
23714W        W39898   3.300  13.088   5.861 -0.0794 -0.2042 -0.1478
23715W        W39899   1.407  16.121  11.469  0.0343 -0.2409 -0.2969
23716W        W39900   0.983   4.495   3.116  0.3065  0.0715  0.1385
23717W        W39901   0.382  12.585  13.499  0.2503 -0.1231  0.2318
23718W        W39902  10.887   5.092   1.670  0.2330  0.2439 -0.3346
23719W        W39903   4.850  18.082   4.619  0.0800  0.1295 -0.0857
23720W        W39904   7.742   1.765  13.711  0.1673 -0.2137 -0.0392
23721W        W39905  13.283  14.759   3.861 -0.3409  0.0042 -0.0350
23722W        W39906  13.203  13.636  15.366  0.1655 -0.1095 -0.1148
23723W        W39907  13.504  11.501  11.994 -0.2486  0.2365  0.0208
23724W        W39908   5.909   1.816  11.641 -0.3856 -0.0744 -0.0004
23725W        W39909  15.991  16.952   0.358 -0.0685  0.1190  0.1450
23726W        W39910   8.705   3.073  11.900 -0.0605  0.0903  0.1077
23727W        W39911  18.136  14.016  16.302 -0.2788  0.0797 -0.1324
23728W        W39912   7.012  14.814   5.997 -0.0771  0.2112 -0.0949
23729W        W39913   7.978  11.759   1.860 -0.2609  0.0273 -0.2752
23730W        W39914   0.717   4.100   0.667  0.2512  0.0914 -0.1686
23731W        W39915  11.108  16.393  12.159 -0.1005  0.0359 -0.2187
23732W        W39916  11.089  12.308   2.412 -0.1708 -0.4213 -0.3269
23733W        W39917   4.920   8.626  15.712  0.0571  0.2230  0.3697
23734W        W39918   3.198   3.237  14.815 -0.4838 -0.0760  0.1585
23735W        W39919  16.647   6.680  12.352  0.1137  0.1455 -0.1290
23736W        W39920   2.015  17.089  12.363  0.1947 -0.2585  0.1805
23737W        W39921   4.205  10.516   0.248 -0.0193 -0.1011  0.1664
23738W        W39922  11.618  11.078  12.518  0.1145  0.0520  0.0661
23739W        W39923   0.047   2.904  15.503  0.0919  0.0789 -0.3036
23740W        W39924   3.287  10.454   2.572  0.5761  0.0136  0.2009
23741W        W39925   5.598  16.758  11.343 -0.5740 -0.5431  0.1227
23742W        W39926   9.157   3.053   2.774 -0.2624  0.1450  0.0904
23743W        W39927   0.582   6.308   3.089 -0.1225 -0.1395  0.1704
23744W        W39928   4.794  12.018   2.139  0.1299 -0.3098  0.0766
23745W        W39929   3.301  16.558  15.743 -0.0022 -0.2485 -0.1223
23746W        W39930   7.892   3.341   2.607  0.1700  0.2286 -0.2834
23747W        W39931   1.659  17.389  13.682  0.2069 -0.1391 -0.0142
23748W        W39932  12.275   6.240  11.750 -0.5370  0.0682  0.1806
23749W        W39933   7.724  13.692   5.556  0.0763 -0.5809 -0.0282
23750W        W39934   2.540   1.310  12.514 -0.2976 -0.1521  0.1465
23751W        W39935   7.601   2.218  13.543  0.1532  0.1541 -0.2641
23752W        W39936   3.190  17.870   0.359 -0.1117  0.2353 -0.0212
23753W        W39937   5.640  17.077  14.464 -0.0851 -0.1585 -0.0425
23754W        W39938   6.998  13.731  15.099  0.1490  0.2443 -0.3347
23755W        W39939  12.152   8.640  13.600  0.1484 -0.1048 -0.0253
23756W        W39940  12.265  12.603  15.979 -0.1401  0.0816  0.1987
23757W        W39941   5.418   5.751  12.979 -0.0704 -0.1884 -0.1137
23758W        W39942   9.540   3.861   2.663 -0.0636  0.0947 -0.2034
23759W        W39943   9.327  11.073   3.066  0.2975 -0.0815  0.2569
23760W        W39944  14.704  16.671   0.569 -0.1437  0.2241  0.2268
23761W        W39945   4.006   0.436  13.698  0.1981  0.1012  0.1111
23762W        W39946   4.646   1.858  16.019  0.0453  0.3588  0.1210
23763W        W39947   7.948  10.212  14.534  0.2575 -0.0648 -0.1175
23764W        W39948   6.516  12.143   0.376  0.6729  0.2273 -0.0194
23765W        W39949  12.213   9.641   5.125  0.1438  0.0506  0.0412
23766W        W39950   2.124   9.916   0.867 -0.0491  0.2930  0.0555
23767W        W39951  13.254   6.256   5.438 -0.0596  0.0964  0.0840
23768W        W39952   6.144  12.181  15.250  0.0220 -0.0699  0.1625
23769W        W39953   4.514  11.388   4.419 -0.0060  0.0779  0.0232
23770W        W39954   1.073  17.132   5.332 -0.0521 -0.1416  0.0548
23771W        W39955   5.698   7.229   3.002 -0.2809 -0.0078 -0.1206
23772W        W39956  15.656  12.430   1.028 -0.1165 -0.2011 -0.1559
23773W        W39957   7.564   7.192   1.207 -0.3193  0.2876 -0.0003
23774W        W39958  11.308  13.215   2.718 -0.1685 -0.2176 -0.1476
23775W        W39959  16.143   6.905   3.029 -0.2758  0.3695 -0.1372
23776W        W39960  11.887  10.418   0.590 -0.0956 -0.2004 -0.2503
23777W        W39961  16.275   4.281   3.365 -0.0315 -0.0610 -0.0352
23778W        W39962   8.425   6.346  16.058 -0.1559 -0.2217  0.1449
23779W        W39963   0.518   7.281   4.202 -0.0221 -0.2364  0.1241
23780W        W39964   0.329   9.224  13.948 -0.4235  0.0902  0.3139
23781W        W39965  12.115   6.269   3.358  0.0726 -0.0553 -0.1793
23782W        W39966  11.711  13.117  12.003 -0.2996  0.2661  0.0413
23783W        W39967  13.511  16.255  12.514  0.1567 -0.4461 -0.0673
23784W        W39968   6.160   3.579  12.246 -0.1163 -0.0869  0.3815
23785W        W39969   7.427  11.537   2.770  0.3828  0.1296 -0.0710
23786W        W39970  15.887   2.901  11.954  0.2712 -0.0819 -0.0396
23787W        W39971   8.206   2.187   6.046  0.1329 -0.2008 -0.1585
23788W        W39972   5.223  12.206  12.415  0.2226 -0.2447 -0.3506
23789W        W39973  12.117  10.486   6.470 -0.0283  0.0306 -0.0845
23790W        W39974  13.502   0.487  13.055  0.1709  0.1486 -0.0182
23791W        W39975   1.369  15.333  15.931 -0.0468  0.0663 -0.1806
23792W        W39976   5.778  15.539   1.935 -0.0967  0.0940 -0.0050
23793W        W39977   9.858   1.030  14.129  0.4147 -0.1161 -0.0812
23794W        W39978   8.144  10.624   2.905  0.0171 -0.2384  0.2510
23795W        W39979  16.671  12.725   0.225 -0.0539  0.0730  0.0238
23796W        W39980  16.440   8.797   2.415  0.2735 -0.1137 -0.0886
23797W        W39981  10.881   2.179  13.110 -0.2537  0.3072  0.0138
23798W        W39982   0.595  17.732  16.037 -0.2007  0.2809 -0.3398
23799W        W39983   0.294   5.424   0.159  0.0460  0.2193 -0.2935
23800W        W39984   6.920  17.655  11.970  0.3461 -0.2490 -0.0892
23801W        W39985   2.995  15.076  11.531  0.0301  0.2545  0.0842
23802W        W39986   9.269  17.049   1.966 -0.0848  0.2695 -0.1917
23803W        W39987   1.092   6.981   5.335 -0.4225 -0.3246 -0.1154
23804W        W39988   3.095  11.843   3.252  0.2269 -0.2290 -0.1102
23805W        W39989   8.839   6.574  15.962 -0.2468 -0.0670 -0.2475
23806W        W39990   5.868   8.650  15.173 -0.0506 -0.0605 -0.2202
23807W        W39991  11.622  16.038   5.599 -0.3919  0.0167 -0.1463
23808W        W39992   2.460  17.746  13.452  0.4144  0.3612  0.0083
23809W        W39993   3.294   5.532  14.524 -0.3178  0.1123 -0.1046
23810W        W39994  13.125   4.114   4.408 -0.2977  0.1097 -0.0722
23811W        W39995  12.083  10.008  10.737 -0.3771 -0.0946  0.0722
23812W        W39996   7.810   8.088  16.291 -0.2254 -0.4810  0.0421
23813W        W39997  11.826   3.206   1.792  0.0826  0.3803  0.2054
23814W        W39998  17.561  10.946  15.954  0.0460  0.1381 -0.1778
23815W        W39999  15.472  17.394   1.062 -0.1336  0.0612 -0.0964
23816W        W40000  15.488   8.213   0.756  0.2589  0.0498 -0.0107
23817W        W40001   4.653  11.026  14.261  0.2953  0.0946 -0.0116
23818W        W40002  16.799   1.528   0.445  0.2355 -0.1987 -0.0830
23819W        W40003  16.162  16.475  13.577  0.0206 -0.0505  0.1404
23820W        W40004  13.219  11.647  15.862  0.2282  0.0573  0.1183
23821W        W40005  10.146   1.978  14.396  0.0281 -0.2942  0.1960
23822W        W40006  10.855   9.050  13.023  0.0161  0.7681  0.1184
23823W        W40007  17.647  14.896   4.674 -0.1448  0.0154  0.0373
23824W        W40008  10.031   3.086   5.600  0.1139  0.0268  0.0346
23825W        W40009  14.327   9.849  16.651  0.2085  0.1711 -0.2453
23826W        W40010  10.567   3.917  13.939 -0.0478 -0.1768 -0.4022
23827W        W40011  14.409   1.942   2.080 -0.0826 -0.0095 -0.2233
23828W        W40012  13.428  15.903   4.754  0.1861  0.0547 -0.1270
23829W        W40013  11.400   5.424   1.331 -0.0780 -0.0006 -0.0190
23830W        W40014  13.658   4.547   4.950  0.4347  0.0796  0.2952
23831W        W40015  11.453   3.703   2.474  0.2288  0.1661  0.1454
23832W        W40016   3.258   0.623  13.827 -0.1086 -0.0131 -0.1220
23833W        W40017  15.268   8.657  11.526 -0.0934 -0.1925  0.0218
23834W        W40018   3.025   6.087  11.100  0.2739  0.1097 -0.3714
23835W        W40019   6.532   6.803  11.792 -0.1804 -0.2901  0.0929
23836W        W40020   1.983  11.875  14.143 -0.0132  0.0060 -0.2073
23837W        W40021   4.624   0.401  12.069  0.2853  0.6394  0.3137
23838W        W40022  12.620  10.121  12.906  0.0479  0.1463 -0.1047
23839W        W40023   1.050   4.729   5.053  0.0212 -0.1655 -0.2180
23840W        W40024   8.200   7.526   1.315  0.0074 -0.1366  0.1971
23841W        W40025   3.844   4.589   1.739  0.1774 -0.0356 -0.0956
23842W        W40026  16.064  16.996  15.179  0.0193  0.0710 -0.0897
23843W        W40027  14.243  13.324   0.605 -0.1279  0.0535  0.1672
23844W        W40028   8.574   8.161   3.303 -0.0132 -0.2167  0.4973
23845W        W40029  14.784   2.810  15.013  0.0972  0.0468 -0.2006
23846W        W40030   2.254  12.072  12.982 -0.1683 -0.1037  0.1814
23847W        W40031  15.957  13.630  13.521  0.2690  0.2116  0.0529
23848W        W40032   1.855  11.997  12.488  0.0971 -0.1160 -0.3172
23849W        W40033   8.254  11.955   2.875 -0.1506  0.0732  0.3288
23850W        W40034   5.920  11.195  15.444  0.2389  0.1522  0.0764
23851W        W40035  16.240   7.854  12.458  0.0879 -0.2500  0.0415
23852W        W40036   9.424   8.357   6.068  0.0678  0.2112 -0.2607
23853W        W40037  15.116  13.479  14.668  0.0535 -0.2381  0.2201
23854W        W40038   5.845  16.395   2.287 -0.5767 -0.0037 -0.2973
23855W        W40039   6.419  16.887  12.433 -0.1689  0.1315  0.0430
23856W        W40040  17.585  18.132   5.350  0.2842  0.1648  0.1206
23857W        W40041   0.701   7.389  15.201  0.1209  0.0886 -0.0968
23858W        W40042  10.861   1.907  15.473  0.0854 -0.1452 -0.0320
23859W        W40043   3.873  17.999  15.140 -0.2405  0.1199 -0.0913
23860W        W40044   0.734  10.467   1.964  0.1099 -0.1580 -0.2647
23861W        W40045   7.273  14.574  15.962  0.1493 -0.2854 -0.3011
23862W        W40046  17.547   4.199  10.074  0.2734 -0.0002 -0.0730
23863W        W40047   8.749  16.476   2.265 -0.2571 -0.0813 -0.2846
23864W        W40048   1.040   9.788  13.848  0.0087 -0.1221  0.2677
23865W        W40049   7.967  14.759   0.478 -0.3157  0.3777  0.4339
23866W        W40050  11.969  14.824  12.235 -0.0682  0.3462  0.1217
23867W        W40051  13.312  14.426  12.078 -0.0919  0.0331  0.2731
23868W        W40052   2.102   9.399  14.108 -0.0079  0.1854  0.1346
23869W        W40053   8.352   0.787   3.378 -0.2483  0.2468  0.1409
23870W        W40054   8.522  15.230   1.767  0.0634 -0.0764 -0.0279
23871W        W40055   5.458   0.206  11.830  0.2134  0.3818  0.2781
23872W        W40056  17.913   3.246   4.772 -0.0796 -0.1516  0.1468
23873W        W40057   9.648   4.806  13.088  0.0831 -0.0003  0.0745
23874W        W40058   1.047  15.579   4.696  0.3448  0.2852  0.1590
23875W        W40059   6.359  12.210   5.688  0.1465  0.0689 -0.0730
23876W        W40060   2.788   0.318  13.075  0.0683  0.0237 -0.0732
23877W        W40061   2.903  10.125   2.522 -0.2285 -0.3023  0.2370
23878W        W40062  17.943   7.084  16.428  0.0423 -0.1784 -0.1791
23879W        W40063   6.845   6.916  15.179  0.1628  0.2410  0.0695
23880W        W40064  14.013  10.234   2.945  0.1931 -0.1451  0.0557
23881W        W40065   9.770  12.948  16.634 -0.1011  0.0715  0.0857
23882W        W40066   3.324  16.653   4.048 -0.0496  0.1279  0.1115
23883W        W40067   5.305   1.349   0.955  0.0712  0.1005  0.2630
23884W        W40068  16.818  15.082  11.684 -0.2103 -0.0413  0.0035
23885W        W40069  13.501  14.098  13.946  0.0438  0.0098 -0.0805
23886W        W40070  11.632   0.113  14.010  0.0964 -0.2114  0.0615
23887W        W40071   2.098  16.221   5.210 -0.0651 -0.1217 -0.0128
23888W        W40072  14.179  17.241  12.500  0.0263  0.4678  0.0229
23889W        W40073   1.716   8.494   4.518  0.3167  0.0720 -0.2849
23890W        W40074   0.207   8.345  15.931 -0.0529  0.0681 -0.1385
23891W        W40075   5.968  10.655   4.636  0.1647 -0.2827 -0.0652
23892W        W40076  13.188   8.111   0.036 -0.2529 -0.2520  0.2860
23893W        W40077  10.464  13.029  12.677 -0.1883 -0.0523  0.0537
23894W        W40078   3.586   1.620   3.186  0.1511 -0.1058 -0.2012
23895W        W40079   3.254   2.171  12.273 -0.0199  0.2538 -0.0755
23896W        W40080  12.486   0.293   0.990 -0.2458 -0.0823 -0.3083
23897W        W40081  11.075   2.497   1.608 -0.3091  0.3784 -0.3479
23898W        W40082  16.063   7.318   4.401  0.2273 -0.1832  0.1037
23899W        W40083   8.711   5.639  15.651 -0.2412 -0.1396  0.5129
23900W        W40084  13.193  13.223   1.360 -0.2838  0.3320 -0.2138
23901W        W40085   5.781   9.069  12.676  0.0227 -0.2450 -0.0166
23902W        W40086  17.182   3.683   0.736 -0.1780 -0.0788 -0.1848
23903W        W40087   7.136  15.957   0.306 -0.0240  0.1792 -0.4921
23904W        W40088  12.624  13.908   3.540 -0.2282  0.1151  0.2444
23905W        W40089  17.151   9.982   2.522  0.0711 -0.1066  0.0771
23906W        W40090   5.362   9.484  13.324 -0.2953 -0.3781  0.0964
23907W        W40091   8.654  11.621   4.050 -0.0154  0.1116  0.1465
23908W        W40092  14.125   0.108  11.165  0.2416 -0.1242  0.0232
23909W        W40093  11.619  17.009   1.179 -0.1825 -0.2461 -0.2348
23910W        W40094   3.904  16.138  13.816  0.0784  0.0237 -0.1058
23911W        W40095   4.791  13.569  11.886 -0.3747  0.0037 -0.0988
23912W        W40096  11.131  10.038   1.958 -0.1612 -0.1550 -0.2300
23913W        W40097   9.090   9.321   4.582 -0.1630  0.1147 -0.1572
23914W        W40098   5.569   6.822  11.713  0.0234 -0.0517 -0.1345
23915W        W40099  13.428  15.650  11.426 -0.0324  0.2348  0.0139
23916W        W40100  11.222  11.267  16.557  0.4496  0.3910  0.2721
23917W        W40101   8.317   2.221   3.408 -0.0734 -0.3073  0.1015
23918W        W40102  15.406   7.388   1.115 -0.0585  0.3038  0.0383
23919W        W40103   2.634  17.499  16.508 -0.1074  0.0985 -0.1131
23920W        W40104   3.732   6.489   0.826  0.1428  0.0114  0.1433
23921W        W40105   7.212   1.593  13.494  0.1456 -0.0188 -0.0408
23922W        W40106   7.621  11.125  13.668 -0.2818  0.0174 -0.0426
23923W        W40107  10.114  16.952  16.171  0.1101  0.0339  0.0347
23924W        W40108  12.882   0.068   1.195  0.1301  0.0124 -0.0940
23925W        W40109   0.366   8.147  15.233  0.2086 -0.2464 -0.1653
23926W        W40110  12.110   3.778   6.213 -0.1991 -0.0443 -0.0828
23927W        W40111   2.409  14.290   1.632 -0.4150  0.1940 -0.1511
23928W        W40112   6.418  13.865  14.394  0.2678  0.1809  0.1179
23929W        W40113  17.604  13.492  12.741  0.5619 -0.0072 -0.0268
23930W        W40114   3.027   5.010  13.315  0.3249  0.1441 -0.0600
23931W        W40115  10.270  10.150   3.547 -0.2625 -0.3641 -0.0440
23932W        W40116   8.507  13.217   2.918  0.0685 -0.0901 -0.3640
23933W        W40117  12.572   2.139   4.720 -0.0143  0.1540  0.0350
23934W        W40118   9.127   9.159  15.949  0.0810  0.0581  0.0201
23935W        W40119   8.994  10.019  15.069 -0.3319 -0.0344 -0.0309
23936W        W40120   7.352  12.825   6.003  0.3103 -0.0735 -0.1339
23937W        W40121   3.372   0.145   1.903  0.3547 -0.6504  0.3327
23938W        W40122  14.054  13.220   2.798 -0.1046  0.0205 -0.0002
23939W        W40123  12.755  12.079  14.230 -0.1675 -0.0954 -0.1800
23940W        W40124   9.350   9.392  10.793 -0.2157 -0.2158  0.2243
23941W        W40125   0.477   4.148  10.967 -0.1496 -0.0353  0.2139
23942W        W40126  16.083  11.062  13.245  0.1598 -0.1551 -0.1069
23943W        W40127  13.464  13.531   1.024  0.1011 -0.0723  0.1677
23944W        W40128  14.818  10.135  15.766  0.1180 -0.1611  0.1473
23945W        W40129  12.043   4.669   1.587  0.0245 -0.1723  0.2090
23946W        W40130  11.712   6.323  12.692  0.2320  0.0098 -0.0655
23947W        W40131  15.297   4.522  16.611  0.3117  0.1327  0.1623
23948W        W40132  17.184  12.853  14.146 -0.0340  0.0171  0.1442
23949W        W40133   3.749  15.639   6.649 -0.2914  0.1306 -0.2055
23950W        W40134  14.374   0.433   6.148 -0.1052 -0.1481 -0.1965
23951W        W40135   0.839  14.902  14.888  0.1093 -0.2070 -0.1434
23952W        W40136   3.159  14.868   3.010  0.3430 -0.1062  0.0436
23953W        W40137  11.433  13.708  12.646  0.1080 -0.0475  0.0424
23954W        W40138   3.079   4.531  11.975  0.1003 -0.3229 -0.1242
23955W        W40139   2.935  14.091   0.690  0.0609  0.0179 -0.0501
23956W        W40140   0.713   0.176   3.712  0.1916 -0.0245 -0.1400
23957W        W40141   9.975  12.817  13.479  0.0040 -0.2067 -0.0598
23958W        W40142  13.327   9.692  15.013  0.0488 -0.2968 -0.0461
23959W        W40143  11.865  16.639   0.293  0.1694  0.0569  0.1093
23960W        W40144   2.401   1.515   0.639 -0.1800 -0.1226  0.2554
23961W        W40145   4.499   7.825  15.851  0.2182  0.1504  0.0884
23962W        W40146  17.701   7.608   2.516 -0.1475  0.0437  0.0686
23963W        W40147   4.775  15.410  12.886 -0.1095  0.1939  0.2683
23964W        W40148  15.395  12.823   3.180 -0.0497 -0.0001  0.0233
23965W        W40149  13.348  14.088   3.573  0.0598 -0.3245  0.2785
23966W        W40150  11.329   3.299   3.968  0.1001 -0.0861 -0.2834
23967W        W40151   1.725  13.079  15.701  0.0884 -0.0714 -0.1150
23968W        W40152   3.098  17.665  13.533 -0.2725 -0.2270  0.1451
23969W        W40153  15.546  14.307   2.939 -0.0197  0.1427  0.0099
23970W        W40154   4.627   9.850   2.215  0.0034  0.3803 -0.0568
23971W        W40155   6.313   4.663  11.878  0.2460  0.1136  0.0064
23972W        W40156   1.579   3.329  11.616 -0.1012  0.0861 -0.2202
23973W        W40157  13.597   7.712   2.653  0.0751  0.1126  0.2480
23974W        W40158   9.994   1.507  11.848 -0.0659  0.5440  0.0315
23975W        W40159   1.184  11.163  14.121  0.0024 -0.1842  0.2139
23976W        W40160   2.472   7.921   4.252 -0.1663  0.0369  0.0279
23977W        W40161   1.572  12.862   3.340  0.0118 -0.0522 -0.0273
23978W        W40162  16.937   1.557  16.110  0.0484 -0.3344  0.0307
23979W        W40163  14.009   5.197  15.902 -0.1244  0.4291 -0.1806
23980W        W40164   4.835  11.866   0.348 -0.2519  0.0043 -0.0748
23981W        W40165   2.392   4.441   5.613  0.0678 -0.3510  0.1108
23982W        W40166  10.019  16.626   3.000  0.0846  0.0289  0.3347
23983W        W40167   8.083   0.328  16.056  0.2371 -0.2159 -0.0332
23984W        W40168  17.343  11.548  15.932  0.0285 -0.1170  0.1892
23985W        W40169   0.751   2.283   0.815 -0.1848  0.0337  0.1172
23986W        W40170  10.907   5.083  14.654  0.1199  0.3100 -0.0396
23987W        W40171   3.791   0.109   0.555  0.0570  0.2005  0.1452
23988W        W40172   7.553  10.640   1.256  0.2154 -0.3347  0.2333
23989W        W40173   5.751  10.010   5.324  0.3042  0.1682 -0.2217
23990W        W40174   3.206  13.955   2.972  0.1740 -0.0228  0.0075
23991W        W40175   2.755  12.178   0.601 -0.0580  0.0753 -0.0684
23992W        W40176  16.936   1.027   1.815 -0.0406  0.0842  0.1345
23993W        W40177   9.561   4.109   1.330  0.2098 -0.2712  0.0046
23994W        W40178   6.206   4.799  10.914 -0.0642  0.2076  0.1784
23995W        W40179   1.893   9.295   0.697 -0.3045 -0.2849  0.0762
23996W        W40180  14.830   9.855   4.664  0.0163 -0.0353 -0.1434
23997W        W40181  16.891   8.239   1.208  0.0896 -0.0692  0.2035
23998W        W40182   9.203   5.756  15.430  0.3456  0.2130  0.3340
23999W        W40183  16.433   2.574   3.529  0.2412  0.0656  0.2384
24000W        W40184   8.768   0.697   1.795  0.0076  0.3575  0.0125
24001W        W40185   1.150  17.166   2.717 -0.3107 -0.1794  0.1613
24002W        W40186  17.229   5.144   4.328  0.3359 -0.1613 -0.0755
24003W        W40187   2.707   1.930  14.691  0.1818  0.0633  0.0743
24004W        W40188  11.425  10.934   2.308  0.2501  0.2728 -0.1347
24005W        W40189   3.952  12.447   1.930 -0.1459 -0.1379 -0.0469
24006W        W40190   3.529   9.916  11.828 -0.0656  0.0976 -0.1535
24007W        W40191   1.725  11.126  11.933 -0.1183  0.0118  0.0936
24008W        W40192   9.824  12.068  12.010 -0.0043  0.0206  0.1914
24009W        W40193  13.444  15.465   5.014 -0.0522  0.0997 -0.0526
24010W        W40194   5.391  15.129  15.073 -0.0246  0.0358  0.0012
24011W        W40195  13.051  11.049   3.474 -0.2924 -0.0713 -0.3007
24012W        W40196   4.200  16.143  15.855  0.0451 -0.1129  0.1395
24013W        W40197   2.963   2.048   4.107  0.0713  0.0150 -0.0479
24014W        W40198  14.462   3.496   0.291 -0.0159  0.0048  0.1386
24015W        W40199   6.220  14.831   3.175 -0.0770 -0.2523 -0.1165
24016W        W40200   8.178   4.325   3.570 -0.2665  0.0037  0.1168
24017W        W40201   5.640  12.788   5.656  0.3093 -0.1345 -0.1536
24018W        W40202  14.872   3.902   3.917  0.1230 -0.0598  0.0388
24019W        W40203  13.901   9.880  12.167  0.0430  0.1693 -0.2706
24020W        W40204   8.126   0.095   1.429 -0.0345 -0.0374  0.1261
24021W        W40205   0.276   4.573  14.069 -0.3533 -0.1656 -0.0977
24022W        W40206   6.572  12.368   0.844  0.0734  0.2555 -0.1169
24023W        W40207  17.121  10.987  14.781 -0.2464  0.2580  0.0397
24024W        W40208   6.797   8.584  14.724  0.0619  0.2115 -0.2423
24025W        W40209  16.954   9.324  11.204  0.0700 -0.2053  0.1555
24026W        W40210  17.434   9.333   1.322 -0.1665 -0.0148 -0.1929
24027W        W40211   6.415  13.004  12.294  0.0771 -0.2142  0.1304
24028W        W40212  17.242   2.071   2.849  0.2708 -0.1028  0.3685
24029W        W40213   0.495  15.563  14.330 -0.2722 -0.2269 -0.0609
24030W        W40214   8.232   6.662  13.865 -0.0992 -0.1566  0.1492
24031W        W40215  15.756  16.618  15.223  0.2980  0.0607 -0.0980
24032W        W40216  15.794  17.980  14.488 -0.0338  0.2635 -0.0949
24033W        W40217  14.010   2.682  11.447 -0.1237  0.0330 -0.0047
24034W        W40218   3.569   7.631   1.532  0.1277 -0.1242  0.2147
24035W        W40219  15.111  14.224  14.781  0.3625  0.1235 -0.1383
24036W        W40220  11.268   3.842  14.587 -0.1024 -0.3182  0.1083
24037W        W40221  15.989  12.679   2.674  0.1392 -0.0107 -0.1491
24038W        W40222   8.453   5.619  13.350  0.2918  0.4306  0.1907
24039W        W40223   1.270  13.006   4.261 -0.3893  0.1819  0.1214
24040W        W40224   7.911   2.999  15.527  0.1636  0.0426 -0.2580
24041W        W40225   6.739   4.767  11.587  0.0027 -0.1610 -0.2769
24042W        W40226   4.172   1.235  11.779  0.3654 -0.0493 -0.2118
24043W        W40227   1.103   6.906   2.726  0.0511  0.1204 -0.1346
24044W        W40228  15.193   2.819   3.304  0.0443  0.0541  0.1525
24045W        W40229   9.452  14.764   1.276 -0.2548 -0.0361 -0.2943
24046W        W40230  14.921   8.725  13.617 -0.2428 -0.0572 -0.2352
24047W        W40231   6.330   7.567  12.366 -0.3634  0.1063 -0.1565
24048W        W40232   6.970   6.585   3.743 -0.3206 -0.1564 -0.2738
24049W        W40233  12.480   8.999   1.129  0.0498 -0.2124 -0.0574
24050W        W40234   5.085  17.105  12.129  0.2215  0.3250 -0.3093
24051W        W40235  11.809   1.792  14.928  0.0880 -0.2402 -0.0124
24052W        W40236  13.070   1.418   4.673  0.1714  0.1691  0.4232
24053W        W40237   7.217  16.755   4.807 -0.0585  0.2764 -0.0933
24054W        W40238   1.147   8.247  12.520 -0.0371 -0.0717 -0.1448
24055W        W40239   7.985   2.549  11.862  0.0504  0.2359 -0.2656
24056W        W40240  11.223  10.329  13.996  0.0542  0.2971 -0.0898
24057W        W40241   5.638   8.808   0.030 -0.0325 -0.0453  0.0141
24058W        W40242  15.225   3.914   1.847 -0.0623 -0.0677  0.1140
24059W        W40243   9.821  16.866  13.845  0.1539 -0.2174  0.0900
24060W        W40244  13.038   5.542   1.109  0.1971  0.1731  0.4332
24061W        W40245  14.218  15.411  12.366  0.1199 -0.1391  0.1969
24062W        W40246   4.477   4.502  14.401  0.5549 -0.1389  0.1516
24063W        W40247  13.992   9.282  14.141 -0.1390  0.1836 -0.0029
24064W        W40248   2.956  12.681  14.566 -0.1853 -0.1708 -0.1066
24065W        W40249   8.248   1.838  12.934  0.1179  0.1528 -0.0025
24066W        W40250  15.907  15.029  12.428  0.2068  0.0259  0.1013
24067W        W40251  10.594  16.809  14.647 -0.0170  0.0068  0.0974
24068W        W40252  14.023  16.596   2.051 -0.0911  0.2970 -0.1444
24069W        W40253   9.293  13.327   1.729  0.0781  0.0679 -0.1429
24070W        W40254   2.532  15.779  14.283  0.2088 -0.1206  0.3588
24071W        W40255   5.231  13.377   4.835 -0.0877  0.1416 -0.0095
24072W        W40256  13.502   3.385   0.101  0.0630 -0.0760  0.2648
24073W        W40257   3.189   6.024   2.544  0.4637  0.0381  0.3594
24074W        W40258  17.167   3.894  15.913 -0.0928 -0.1131 -0.0314
24075W        W40259   8.584   0.743  13.580 -0.0356 -0.1802  0.0736
24076W        W40260   6.698   9.299   0.422 -0.2104 -0.0797 -0.2799
24077W        W40261  14.655  12.404   3.436  0.0426 -0.0105 -0.1704
24078W        W40262  11.255  14.421   0.261 -0.2686  0.2508  0.0628
24079W        W40263  14.102   6.317  13.634  0.2270  0.1757 -0.0115
24080W        W40264  14.985   7.516   2.454  0.2584  0.2974  0.0325
24081W        W40265  13.740   2.569  15.343 -0.2382 -0.1282  0.1969
24082W        W40266  14.796  15.755  14.787  0.0353 -0.0813  0.0152
24083W        W40267   9.223  13.334   0.110 -0.2855  0.2970 -0.3038
24084W        W40268   5.704  10.594   2.954  0.1288 -0.0286  0.3363
24085W        W40269  13.023   3.890  14.316  0.0147  0.2851 -0.0179
24086W        W40270   7.221  10.312   1.609 -0.1512 -0.0319  0.0109
24087W        W40271  15.354   1.766   5.032  0.1053  0.3284  0.0069
24088W        W40272  17.545   0.337   3.495  0.1626  0.0808 -0.0538
24089W        W40273   3.784   5.965  16.613  0.0317  0.3037 -0.0641
24090W        W40274   5.891  14.768  15.499  0.0784  0.1412  0.1458
24091W        W40275  18.169  10.616   4.877  0.3402  0.0683  0.1540
24092W        W40276   8.779   1.257   1.168  0.1741 -0.0585  0.1781
24093W        W40277  14.619  11.071  13.022  0.2682  0.0311 -0.0859
24094W        W40278  10.666   7.170   0.685  0.3601 -0.3007  0.2024
24095W        W40279   3.147   5.381   4.765 -0.1559 -0.0563  0.0592
24096W        W40280   7.203   4.472   1.863 -0.0497 -0.1541 -0.1730
24097W        W40281  13.955  16.553   2.565 -0.2340 -0.0957 -0.1475
24098W        W40282  17.684   8.516  13.059 -0.2169 -0.2847 -0.0492
24099W        W40283   5.921   0.315   0.202 -0.1226 -0.2384  0.0253
24100W        W40284  15.828   5.189   1.220  0.0189  0.1772 -0.0741
24101W        W40285  17.145  12.870  16.635  0.0839 -0.0781 -0.0717
24102W        W40286  14.700  17.448   5.557  0.1600 -0.0406  0.0942
24103W        W40287  15.797   0.563  14.015 -0.1276  0.0670  0.0962
24104W        W40288   9.623   9.490   4.656  0.0496 -0.1874 -0.1896
24105W        W40289   1.156   7.597  13.827 -0.0350 -0.1099  0.2250
24106W        W40290  16.387  10.048   4.902 -0.0068  0.2622  0.0691
24107W        W40291   4.145   7.818   1.368 -0.1223  0.1061  0.4667
24108W        W40292  16.373  13.046  14.753 -0.1754  0.1134 -0.1838
24109W        W40293   0.892  12.486   4.522  0.1865 -0.4216 -0.1454
24110W        W40294   0.166   2.281   1.780  0.1968 -0.0102  0.0982
24111W        W40295   0.727   7.136   4.996 -0.0219 -0.0103 -0.2059
24112W        W40296   8.903   6.949  13.573 -0.0461 -0.0685 -0.0224
24113W        W40297  10.620   3.226   3.709 -0.6219  0.0585  0.0151
24114W        W40298   3.810   1.421  12.954 -0.0260  0.0947  0.5208
24115W        W40299  16.814  14.545   1.328 -0.2208  0.1649  0.0450
24116W        W40300   7.367   4.355  16.314 -0.1586  0.0341 -0.0369
24117W        W40301  14.293   3.350  13.997  0.1668 -0.0787 -0.0421
24118W        W40302   6.572  17.323   5.621  0.0146  0.1159 -0.1216
24119W        W40303   8.884   0.975  12.787 -0.0753 -0.2875  0.0390
24120W        W40304   0.006  13.558   2.380 -0.1708  0.0234  0.2933
24121W        W40305   5.806  17.370   2.299  0.1215  0.0217  0.0723
24122W        W40306  13.598   1.101  12.839 -0.0705  0.1515  0.0560
24123W        W40307   1.863   2.581   2.208  0.1985  0.2348  0.4490
24124W        W40308   8.784  14.166   3.923 -0.0263 -0.2798 -0.0474
24125W        W40309   7.866   7.169  11.758 -0.1841  0.2506 -0.0180
24126W        W40310   7.397   5.685   3.142  0.2666  0.1812 -0.0095
24127W        W40311   3.312   8.440  15.843 -0.1495  0.0595 -0.1529
24128W        W40312  16.240   5.153  15.872 -0.0615  0.3345  0.1118
24129W        W40313  10.386  17.764  12.328 -0.0669 -0.2487  0.0202
24130W        W40314  14.246   2.425  14.364 -0.0464  0.3541  0.3080
24131W        W40315   5.158  13.348  16.237 -0.0492  0.2322  0.0759
24132W        W40316  10.288  13.318   0.155 -0.0055  0.1975  0.0478
24133W        W40317   7.619  14.495   4.105  0.0752 -0.0084 -0.2588
24134W        W40318   0.166   1.961  11.256  0.0301 -0.2701  0.1171
24135W        W40319   0.923   3.995  14.613  0.5574 -0.4900  0.0330
24136W        W40320   7.670   1.069  15.597  0.1896  0.0005  0.1347
24137W        W40321   8.889   7.097   6.004 -0.1515 -0.1613  0.0984
24138W        W40322  10.091  16.484  12.187 -0.1033 -0.1995  0.0723
24139W        W40323   4.028  10.526  11.855  0.0546 -0.0530 -0.0258
24140W        W40324   8.623  17.746  16.413  0.0231  0.1603 -0.0176
24141W        W40325   8.911   7.074  15.121  0.2718 -0.0274  0.1120
24142W        W40326  15.055   0.374  15.120 -0.0972  0.0282 -0.0987
24143W        W40327  17.241  13.849   0.476  0.0751  0.1208  0.1247
24144W        W40328   1.270   4.125  16.145 -0.2560 -0.2114 -0.2500
24145W        W40329   1.054  15.357  11.648  0.0475 -0.0122  0.1215
24146W        W40330   6.445  17.122  11.696 -0.0419  0.3527  0.0777
24147W        W40331  15.524   0.053  15.277 -0.0098 -0.1285 -0.2835
24148W        W40332  10.489  12.151  15.515  0.2600  0.0143 -0.1732
24149W        W40333  15.928   0.024  11.908  0.2361 -0.1788 -0.0630
24150W        W40334  14.510  14.429   1.346 -0.2666 -0.1894  0.0854
24151W        W40335  14.862  13.656   4.355  0.0888  0.3258 -0.1634
24152W        W40336   4.091  16.946   4.540 -0.3123  0.1753 -0.1042
24153W        W40337   6.044  16.970   4.345 -0.0296  0.0334  0.2295
24154W        W40338   7.879   4.069  13.982  0.0088 -0.0989 -0.3173
24155W        W40339  12.009  10.325   1.940 -0.2751  0.2105 -0.0250
24156W        W40340  10.280  16.255   4.041  0.1586  0.1143  0.1143
24157W        W40341  10.569   4.232  15.502  0.1670  0.3546 -0.0254
24158W        W40342  12.795  15.502   3.337  0.0694  0.0939  0.0435
24159W        W40343   4.230   1.592   2.346 -0.1093 -0.0709  0.0014
24160W        W40344  14.905  10.369   6.068  0.2857 -0.0259 -0.1376
24161W        W40345  17.705  13.195  13.498 -0.2950 -0.4483 -0.0211
24162W        W40346   2.227  17.479  15.018  0.0928  0.0585 -0.2006
24163W        W40347  18.071   7.629  11.400 -0.1347 -0.3832  0.1824
24164W        W40348  16.510  15.017  12.135  0.1616 -0.0819 -0.1680
24165W        W40349  16.329  17.545  15.749  0.0212  0.0318 -0.0433
24166W        W40350   5.168   3.611  15.217  0.4383 -0.0014 -0.3902
24167W        W40351   2.269  16.302  15.032  0.0093 -0.3134  0.3046
24168W        W40352   1.832  14.400  13.791  0.4801 -0.0330  0.0604
24169W        W40353   9.955  12.892  12.586 -0.1084 -0.4259 -0.1307
24170W        W40354   5.066   3.145   4.862 -0.0475 -0.0687 -0.2835
24171W        W40355   5.913   0.929   4.647 -0.1596  0.0196 -0.0415
24172W        W40356   1.447   4.871  13.400 -0.0195 -0.2905  0.2721
24173W        W40357  12.823   9.332   3.628 -0.1867  0.0274  0.3831
24174W        W40358   1.635  13.328  12.171  0.0795  0.1403  0.1553
24175W        W40359  18.024  17.997  14.477 -0.1402  0.5653 -0.2642
24176W        W40360   5.432   6.427   3.172 -0.0500  0.1249  0.1698
24177W        W40361  13.048  12.174   5.342 -0.2684  0.2735 -0.0474
24178W        W40362  11.105  12.707   0.258  0.0916  0.1584  0.4098
24179W        W40363  15.905  10.255   4.474  0.2247 -0.1016 -0.1687
24180W        W40364   7.121   1.574   1.182 -0.1047  0.0418 -0.4643
24181W        W40365   7.469   7.583   1.622 -0.1067 -0.1472 -0.0331
24182W        W40366  15.991  11.344  11.717  0.3318 -0.0604 -0.0212
24183W        W40367   2.057  10.657  11.692 -0.3117  0.0769  0.1367
24184W        W40368   4.997  11.643   4.240  0.3795  0.2657  0.1620
24185W        W40369   7.717  16.955  12.074  0.0872 -0.1516  0.2508
24186W        W40370   0.459  17.111  14.532 -0.0195  0.2245 -0.0126
24187W        W40371  16.061  16.699   2.880 -0.2459  0.2314 -0.0183
24188W        W40372  12.452   9.492  15.510 -0.1560 -0.2670 -0.1415
24189W        W40373  17.827  10.081   2.582 -0.0490 -0.0125  0.0855
24190W        W40374   0.957  13.204   6.041 -0.1211 -0.1183  0.0253
24191W        W40375   2.641   5.571   4.955 -0.1427  0.0024  0.1427
24192W        W40376  11.333  16.598  12.548 -0.0350  0.1159  0.4712
24193W        W40377  16.317   3.166  14.024  0.0833  0.1958  0.2911
24194W        W40378   0.376   0.508  11.301 -0.0236 -0.0509 -0.3302
24195W        W40379   7.804   6.971   5.168 -0.0529  0.1470  0.0991
24196W        W40380  11.731   5.689   4.477 -0.0902 -0.2979  0.1681
24197W        W40381   5.792  17.042   3.393 -0.0505  0.1568 -0.2388
24198W        W40382   2.571   5.208   3.738 -0.0088 -0.0657 -0.2731
24199W        W40383   3.356   8.700  15.037  0.2330  0.0898  0.0122
24200W        W40384  12.780   8.056  13.209  0.1174  0.0742  0.2770
24201W        W40385  16.649  15.665   5.194 -0.2516 -0.3687  0.2926
24202W        W40386   9.953   2.046  11.725 -0.1958 -0.0778  0.1557
24203W        W40387   1.043   7.102   1.324 -0.0103 -0.1980  0.0369
24204W        W40388   4.614   7.126  12.260  0.0312 -0.1327 -0.4486
24205W        W40389   9.322   7.266  13.660  0.0244 -0.1608  0.1942
24206W        W40390  17.891  10.812  11.824  0.2118 -0.0324 -0.0771
24207W        W40391  15.374   4.309   1.519  0.0383  0.0894 -0.0991
24208W        W40392  17.228  11.641   3.965 -0.0292  0.2430  0.0227
24209W        W40393  12.201  12.650   5.152  0.2931 -0.0373 -0.0537
24210W        W40394   6.089   3.576   0.719  0.1300 -0.0803 -0.0339
24211W        W40395  16.532  16.656   1.989 -0.2480  0.0620  0.3553
24212W        W40396  16.860   6.938  14.465  0.0300 -0.3142  0.3957
24213W        W40397   8.537  15.579  11.541 -0.1619 -0.1878 -0.0083
24214W        W40398   1.100   6.672  13.246 -0.0338 -0.1389  0.0521
24215W        W40399  15.652   3.511   4.801 -0.2055 -0.1145 -0.0907
24216W        W40400   1.649   5.978   0.977 -0.0678  0.0655 -0.0910
24217W        W40401   4.425  13.700   4.525  0.0429 -0.1668 -0.0863
24218W        W40402   9.160   4.928  12.925 -0.0472 -0.1465 -0.0359
24219W        W40403   2.150   5.787   5.731 -0.0980 -0.1380  0.0935
24220W        W40404   2.567  14.027  14.153 -0.2648 -0.0770 -0.1015
24221W        W40405   4.663  17.454  15.571 -0.0035 -0.1353  0.1065
24222W        W40406   7.912  13.579   1.447  0.0655 -0.0874  0.1078
24223W        W40407   2.066  15.864   3.716 -0.2349 -0.2371 -0.1386
24224W        W40408  17.955   5.973   4.573  0.0766 -0.0607 -0.3317
24225W        W40409   6.862  17.803   5.494 -0.0617 -0.0959 -0.0091
24226W        W40410   2.702   5.922  14.489  0.0826  0.3604  0.0623
24227W        W40411  15.733   7.107   3.651 -0.0369 -0.2250  0.1293
24228W        W40412   2.376   4.791   2.895  0.0456 -0.0516  0.0823
24229W        W40413  11.354  17.426   2.218  0.0369 -0.4873 -0.0164
24230W        W40414   7.134  10.882   4.252 -0.0154  0.1186 -0.0163
24231W        W40415  13.152  17.934   3.065  0.1166  0.2109 -0.4771
24232W        W40416  17.391  10.466   0.213  0.0030 -0.0064  0.1898
24233W        W40417   6.892  15.862   1.506 -0.0284  0.2092 -0.0570
24234W        W40418  16.707   2.860   0.770 -0.1884 -0.1408  0.1141
24235W        W40419  11.642   4.004   4.329 -0.0533  0.0234  0.0284
24236W        W40420   8.530   2.277  13.737 -0.0297 -0.0071  0.1004
24237W        W40421   3.099  13.506   4.297  0.1207 -0.2180 -0.1966
24238W        W40422  16.316  10.223   3.598  0.0187 -0.1121 -0.2035
24239W        W40423   5.680  11.180   2.488  0.2518  0.4408  0.1488
24240W        W40424  12.948  11.362  14.996 -0.1920  0.1997 -0.1308
24241W        W40425  12.837   0.723  13.136 -0.1597  0.3847 -0.2842
24242W        W40426  10.647  10.402   3.708  0.1193 -0.1709 -0.1409
24243W        W40427   0.830  14.088  14.421 -0.1991  0.1807 -0.0702
24244W        W40428   4.494  17.377   3.378  0.2443  0.0844 -0.1124
24245W        W40429  12.051  11.361   1.506  0.2290 -0.2227 -0.0661
24246W        W40430  11.829  10.586  12.398 -0.1055 -0.1421  0.1878
24247W        W40431   2.607  14.200  13.082 -0.0367  0.4921 -0.1204
24248W        W40432   0.437  11.215  14.865 -0.0792 -0.3108  0.1733
24249W        W40433   4.517  16.828  11.816 -0.0270 -0.3599 -0.0150
24250W        W40434   3.892  17.394  12.325  0.0210  0.3345 -0.1374
24251W        W40435   2.299   8.419  16.348  0.1466 -0.0744 -0.1349
24252W        W40436   6.277   8.516  13.434  0.1753  0.1623  0.0357
24253W        W40437  11.299  14.294  14.984  0.0295 -0.0572 -0.1758
24254W        W40438  13.805   9.837   4.599  0.5273  0.0544 -0.2785
24255W        W40439   1.681  10.810   1.040  0.0019 -0.4001 -0.0967
24256W        W40440  17.517   3.356   0.889 -0.1151 -0.0142  0.0228
24257W        W40441  10.173   7.147   0.445 -0.0215  0.0930 -0.6886
24258W        W40442   1.886  17.410   1.682 -0.0293  0.1888 -0.0413
24259W        W40443   9.677  11.994   2.743 -0.0001 -0.0755  0.1229
24260W        W40444  14.981  12.862  16.245  0.0693 -0.2695 -0.1190
24261W        W40445  11.149   2.682   2.957  0.3934  0.1528  0.0545
24262W        W40446   5.049   6.226   2.149  0.0083  0.0922 -0.2203
24263W        W40447   5.829   1.078   5.513 -0.0747  0.2820  0.3010
24264W        W40448   2.378   3.820  15.300  0.2176  0.1476 -0.0952
24265W        W40449   8.533  18.168  15.398 -0.0428 -0.0255 -0.3466
24266W        W40450  17.771   4.093  13.593 -0.0841  0.2100 -0.2797
24267W        W40451  17.746   1.361   1.262 -0.1321 -0.2362  0.1094
24268W        W40452   2.118  10.842  16.654 -0.1026  0.1930 -0.0275
24269W        W40453  14.475   9.496  14.080 -0.4055  0.0528  0.4704
24270W        W40454   0.863   2.690  15.584  0.1036 -0.3987  0.1306
24271W        W40455   9.753   2.035  16.651  0.1483 -0.2290  0.1148
24272W        W40456  11.169  14.880   4.314  0.0663 -0.1883  0.0473
24273W        W40457   8.619  13.561   0.341 -0.0385  0.1322  0.0192
24274W        W40458   4.425   2.064  14.752  0.1666  0.0120  0.1688
24275W        W40459  11.530  12.862  14.238  0.1580  0.0753  0.0361
24276W        W40460   2.378   1.941  16.466  0.1529  0.0645  0.3409
24277W        W40461  13.425   4.844   1.561 -0.0087  0.1437  0.5642
24278W        W40462   6.795   3.295  16.160 -0.1145 -0.3069 -0.1551
24279W        W40463  13.281   4.666  16.479 -0.3156  0.0788 -0.4549
24280W        W40464  14.837   5.437   2.565  0.0946  0.0353  0.0883
24281W        W40465  11.722   2.293  15.636 -0.0496 -0.1682  0.0465
24282W        W40466   1.232   8.861  14.079  0.1341 -0.3259  0.1224
24283W        W40467  11.893  13.612   5.338 -0.1131 -0.1749 -0.0639
24284W        W40468   7.541   9.160   0.132  0.0213 -0.1920 -0.0301
24285W        W40469  12.199   9.221  12.792  0.1216 -0.0700 -0.0266
24286W        W40470  13.150   2.734   0.367 -0.1264  0.1367  0.0612
24287W        W40471   2.370  18.035   1.736  0.2407 -0.0070 -0.0337
24288W        W40472   8.121   9.238   5.610  0.2150  0.1797 -0.3046
24289W        W40473   6.875  15.406   3.355  0.0496 -0.2241  0.0106
24290W        W40474  15.559   3.295   2.443  0.0008  0.1081 -0.1202
24291W        W40475   4.531   7.958   0.534 -0.0070 -0.1637 -0.0618
24292W        W40476  10.685  16.010   1.744  0.2259 -0.2229  0.0673
24293W        W40477   2.504   5.875  15.341 -0.0436 -0.1547 -0.1764
24294W        W40478   4.258   9.219   4.222  0.1852 -0.0559 -0.2925
24295W        W40479  14.644  17.214   3.126  0.0784  0.2825  0.1285
24296W        W40480  10.987   9.900  11.730 -0.0008 -0.5461  0.2872
24297W        W40481  12.474  17.343   4.846  0.0223  0.0911 -0.1423
24298W        W40482   6.199   5.800   3.979  0.4280 -0.1733 -0.1026
24299W        W40483   2.136  15.134  16.653 -0.0246  0.1748  0.0460
24300W        W40484   8.801  16.176   6.097  0.1573  0.1247  0.1203
24301W        W40485   0.236   7.257  11.889  0.0063 -0.2064 -0.0216
24302W        W40486  14.047  15.844  12.086  0.0671 -0.1227 -0.0100
24303W        W40487  11.455   9.730  15.673  0.3556 -0.2321  0.1329
24304W        W40488  15.789   5.748  13.899  0.0403 -0.2409 -0.0621
24305W        W40489   3.247   3.597  15.434  0.1361 -0.1714  0.3072
24306W        W40490  16.610  12.206  14.152  0.2093 -0.2867 -0.1827
24307W        W40491   2.976  13.992   3.943  0.0328 -0.2163  0.2209
24308W        W40492  14.552   5.687   3.084 -0.1540 -0.0110  0.1491
24309W        W40493  14.739   5.183   4.233 -0.0322  0.3201 -0.0950
24310W        W40494  13.703  11.413  13.986 -0.1769 -0.2071  0.0523
24311W        W40495   0.356  17.354  14.056 -0.0545  0.3839 -0.1388
24312W        W40496   6.307  17.109  16.328  0.0172 -0.1466 -0.1253
24313W        W40497  13.500  16.645  16.369  0.0401  0.0516  0.1035
24314W        W40498   0.439   0.665  13.656  0.2649  0.2130  0.0507
24315W        W40499   4.357   8.350  14.583 -0.0902 -0.1508 -0.0527
24316W        W40500   1.000  16.323  15.787 -0.1227 -0.0455 -0.0105
24317W        W40501  10.797  10.698  16.257  0.2736  0.0367 -0.2937
24318W        W40502  16.315  10.386  13.694  0.3288  0.1191 -0.1624
24319W        W40503  14.084   0.438   1.788 -0.1212  0.2228 -0.0343
24320W        W40504  16.774   1.210   2.246 -0.0156 -0.0309  0.2931
24321W        W40505   9.890  15.494   2.574  0.0890  0.0217 -0.1291
24322W        W40506   2.827  10.025  15.895  0.0630  0.5910 -0.0255
24323W        W40507  10.044  16.229   1.727 -0.2436  0.1166  0.0065
24324W        W40508  14.626  13.261   1.083 -0.1321 -0.2388 -0.1859
24325W        W40509  13.644  10.214   2.514 -0.0510 -0.1646  0.2180
24326W        W40510  16.388  17.847   5.766 -0.1062  0.1436  0.0044
24327W        W40511   8.212   8.201   4.641  0.1056 -0.0260 -0.0966
24328W        W40512  10.021  13.764   5.353  0.4011  0.3129 -0.2756
24329W        W40513   2.669  13.749   1.847  0.3948  0.0698 -0.1799
24330W        W40514  14.010   8.264   4.470 -0.3101  0.3454  0.0701
24331W        W40515  16.943   7.307  13.089 -0.2138 -0.1142  0.0649
24332W        W40516   9.343   6.246   4.352  0.0609 -0.0013  0.1742
24333W        W40517  12.380  18.149   1.336  0.0504 -0.0794 -0.3761
24334W        W40518  14.292  17.138  11.918  0.1052  0.2546 -0.0583
24335W        W40519  14.021   7.568  12.427 -0.2747  0.1206 -0.0520
24336W        W40520  16.590   4.295  14.247  0.3398  0.2285  0.1116
24337W        W40521   1.415   4.714  15.520 -0.5108 -0.1537  0.1745
24338W        W40522   5.862   8.374   0.149 -0.3528 -0.2558  0.0053
24339W        W40523  16.080   9.315   3.184  0.0756  0.2851 -0.2037
24340W        W40524   7.931  17.805   4.625  0.1900 -0.0126 -0.0376
24341W        W40525  15.230   1.959  11.108  0.0496 -0.3021 -0.1285
24342W        W40526  16.184  11.076  10.926 -0.2540 -0.1430 -0.2948
24343W        W40527   8.059   4.715   1.070 -0.0735  0.0788  0.3290
24344W        W40528   0.636  14.120   6.238 -0.1180  0.1547 -0.2428
24345W        W40529   5.629  15.295   0.510  0.0099  0.3963 -0.0476
24346W        W40530  15.645  11.055  13.405  0.1113 -0.3574  0.2465
24347W        W40531   4.745   8.782  14.326  0.1907  0.0077  0.0231
24348W        W40532   7.312  11.165   3.651 -0.2427  0.0096 -0.1581
24349W        W40533   5.046  10.827  13.951  0.0658 -0.1863 -0.1149
24350W        W40534  12.183  13.128   4.976 -0.2494  0.1807 -0.0666
24351W        W40535   5.867   5.602  12.036  0.0264 -0.0510 -0.1256
24352W        W40536  16.350  16.883   2.388 -0.0144 -0.2920  0.0891
24353W        W40537  16.267  15.538  15.919  0.4156 -0.1692 -0.0290
24354W        W40538   2.301   8.572   1.460 -0.2330 -0.1320  0.1221
24355W        W40539   1.725  16.252   1.119  0.0369  0.0660  0.1326
24356W        W40540  11.954   7.135  12.831  0.1742 -0.0019 -0.0607
24357W        W40541   7.323  13.835   2.888 -0.1156  0.0771  0.1970
24358W        W40542  12.658  16.590  16.171  0.0523  0.0165  0.2334
24359W        W40543   4.798  12.210  12.132 -0.5049 -0.1333 -0.0786
24360W        W40544  16.681   8.410  14.067 -0.4669 -0.0349 -0.2565
24361W        W40545  11.473   8.850   6.349 -0.0731 -0.1441 -0.1463
24362W        W40546  13.978   4.963   3.718 -0.0021  0.2308 -0.4203
24363W        W40547  17.457   2.789   3.563  0.1164  0.0465 -0.2274
24364W        W40548  13.151  13.991   0.338 -0.1141 -0.0063  0.0518
24365W        W40549   6.262   7.161  14.827 -0.0810 -0.0286  0.1713
24366W        W40550   5.644   8.284   2.225 -0.0150  0.1593 -0.1340
24367W        W40551  11.083  12.443  15.932  0.1300  0.0242  0.1117
24368W        W40552   1.157   0.518  15.542  0.1775  0.4825  0.1649
24369W        W40553   1.648  10.495  13.423 -0.0355  0.1982  0.1766
24370W        W40554  17.253   1.387   1.476 -0.2223 -0.1313 -0.3183
24371W        W40555  15.368  16.237  11.628 -0.0619  0.1952 -0.0210
24372W        W40556   0.473   0.490   2.598  0.1978 -0.1642  0.0486
24373W        W40557   1.957  14.456   2.916 -0.0311 -0.0240 -0.3643
24374W        W40558   1.316  12.195  14.957 -0.1247  0.1912  0.1657
24375W        W40559  10.078   6.767  12.240 -0.0424 -0.0984 -0.1053
24376W        W40560  14.170   6.758   4.508  0.2200  0.0144  0.0241
24377W        W40561   4.787  16.742   5.145 -0.0249 -0.1009 -0.0158
24378W        W40562   3.315   2.200  14.908 -0.1401 -0.1198 -0.5942
24379W        W40563   4.674  14.164   2.524  0.1658  0.0157 -0.1668
24380W        W40564  10.629  12.075  16.504 -0.2123  0.1674 -0.2676
24381W        W40565  17.473  15.691  12.095  0.1998 -0.2724 -0.0155
24382W        W40566   9.958  11.785  14.476  0.1067 -0.1887 -0.0930
24383W        W40567  12.737   4.386   3.441  0.2834  0.2092  0.1135
24384W        W40568   8.957   8.882  12.847  0.1819  0.1973  0.0020
24385W        W40569  12.516   5.452   1.830 -0.1754 -0.0450  0.0126
24386W        W40570  10.603   0.029   5.203  0.2402 -0.3352 -0.0047
24387W        W40571  17.278   3.322   0.449 -0.0886  0.2141 -0.1258
24388W        W40572  10.191  10.326  11.855 -0.2078 -0.2366  0.0579
24389W        W40573  12.075   2.817   1.940  0.2027  0.0081 -0.1583
24390W        W40574  13.665  17.880   4.867 -0.3521  0.1038 -0.1733
24391W        W40575  13.787  14.805  16.413 -0.2314 -0.1323 -0.0085
24392W        W40576   9.945   3.845  14.782 -0.1950 -0.1590  0.3638
24393W        W40577  11.229  17.418   1.072 -0.1537 -0.1554  0.1447
24394W        W40578  13.937  13.604   4.205  0.2575  0.1013  0.3744
24395W        W40579   5.599  14.419   3.032 -0.0809 -0.2401 -0.2206
24396W        W40580  13.378  12.966   2.823 -0.2898  0.1390  0.0078
24397W        W40581  14.214   2.534  11.884 -0.2152 -0.1367  0.2480
24398W        W40582  12.315  10.610  12.513 -0.1935 -0.1061 -0.1476
24399W        W40583   8.178   1.020  13.428  0.0946  0.0943 -0.1161
24400W        W40584  15.418  15.383  11.338 -0.0424  0.2848  0.4185
24401W        W40585  18.059  16.575  11.528  0.2107 -0.0939  0.2328
24402W        W40586   3.257   2.532  15.687  0.0046  0.0448 -0.0871
24403W        W40587   4.309  16.172   5.399  0.1805  0.2120 -0.2116
24404W        W40588  12.077  13.304  16.534  0.1825  0.3774  0.1438
24405W        W40589  16.721   9.850  15.735 -0.1440  0.2591 -0.1673
24406W        W40590   5.173   4.407   3.009  0.0722 -0.1518 -0.0417
24407W        W40591   8.410  17.239   0.217 -0.1752  0.1710 -0.1120
24408W        W40592  13.645  16.267   3.214 -0.1027  0.3244  0.2359
24409W        W40593  12.636  15.274   1.702  0.3351  0.4066  0.1142
24410W        W40594  16.253   1.057   1.212  0.0256  0.3940  0.0731
24411W        W40595   5.843  10.428  10.868 -0.0058 -0.0352  0.1140
24412W        W40596  13.774   6.892   5.465 -0.0234  0.0499 -0.0015
24413W        W40597  15.452   6.415  12.510 -0.1747  0.0879 -0.1103
24414W        W40598   4.787  14.751  12.429 -0.1024 -0.1904 -0.2742
24415W        W40599  12.829   5.255   3.715  0.2580  0.2576  0.2898
24416W        W40600   2.760  15.266   0.992  0.1202 -0.1477 -0.0795
24417W        W40601  16.289   0.029   0.350  0.0994  0.1961  0.0125
24418W        W40602  12.788  10.553  13.213 -0.1837  0.0565 -0.0339
24419W        W40603  17.395   7.130   2.411 -0.3896  0.2780  0.1697
24420W        W40604  16.397   8.256  13.669 -0.1218 -0.0619 -0.1161
24421W        W40605  14.263  10.873  15.275 -0.2545  0.4025 -0.1760
24422W        W40606   3.158   7.886   2.446 -0.2000  0.0465 -0.1268
24423W        W40607  10.739  14.716   3.463  0.1682  0.0846  0.2272
24424W        W40608  14.907  10.660   3.617 -0.0978 -0.0708 -0.0313
24425W        W40609  10.122  12.042  15.221 -0.0708  0.0280 -0.0581
24426W        W40610   5.474  17.607  11.560  0.5448 -0.0799 -0.0462
24427W        W40611   2.650   1.148  13.959 -0.4320  0.2425 -0.0492
24428W        W40612  12.581  14.681  13.684 -0.3916  0.0170  0.3866
24429W        W40613   3.264  11.192  15.116 -0.3664  0.1841  0.1132
24430W        W40614   0.577   2.703   3.169  0.0210  0.1522  0.1081
24431W        W40615  11.761  15.978   3.130 -0.4472 -0.2767  0.2573
24432W        W40616  13.541   4.368  11.361 -0.2053 -0.1433 -0.0399
24433W        W40617   6.137   5.817  12.463 -0.0640  0.1124 -0.1330
24434W        W40618  17.185   3.396   4.841 -0.0441  0.1389  0.1530
24435W        W40619  17.702   9.704  16.036  0.0545  0.1138 -0.1913
24436W        W40620  11.385  16.283   1.076 -0.2320 -0.4013 -0.1976
24437W        W40621   4.602  16.121  14.722 -0.2629  0.2178 -0.0870
24438W        W40622  16.768   5.069  11.007 -0.3022  0.3573  0.0601
24439W        W40623   4.565  11.810   2.814 -0.4072 -0.1373 -0.0955
24440W        W40624   6.302  11.328  12.247  0.1406  0.0344  0.2592
24441W        W40625   2.003   5.474   0.357 -0.1790 -0.1339 -0.2386
24442W        W40626  15.805  10.953   0.280  0.0085 -0.0033 -0.1868
24443W        W40627   9.255   4.708   0.215 -0.3415  0.2771 -0.0707
24444W        W40628  10.734  13.567  11.894 -0.2183  0.3360 -0.0113
24445W        W40629   8.589   2.590   5.879 -0.0434  0.1727  0.0814
24446W        W40630   4.858  14.150  11.745  0.2676 -0.1921  0.1639
24447W        W40631   7.472   9.392  15.939 -0.0089  0.2041 -0.0722
24448W        W40632   1.868   6.224  14.873  0.1233  0.1658 -0.1659
24449W        W40633  10.512  16.789   4.431  0.0312  0.0631  0.2088
24450W        W40634  12.365   3.258   1.963  0.0095  0.2565 -0.1117
24451W        W40635   0.002   8.003   2.143 -0.0278 -0.0133 -0.0189
24452W        W40636   9.059   9.466  12.130 -0.1833 -0.1297  0.0742
24453W        W40637  10.145  14.347  15.385 -0.0411 -0.1984 -0.1873
24454W        W40638  16.730   6.318   4.013 -0.1684 -0.1752 -0.0623
24455W        W40639   6.538  14.333  13.311  0.2778  0.1618 -0.1498
24456W        W40640  10.991   2.373  11.721  0.1668  0.0411  0.1297
24457W        W40641  13.127  14.877  12.185 -0.2893 -0.0317 -0.0889
24458W        W40642  10.775  13.043  13.890 -0.1267  0.0383 -0.0784
24459W        W40643   6.436   0.533  15.210  0.2111 -0.1548  0.1124
24460W        W40644  11.116  13.301   1.094 -0.1187 -0.0719 -0.1378
24461W        W40645   9.021  16.392   5.023 -0.1836  0.2792  0.1541
24462W        W40646   2.860  13.200   6.063 -0.1040  0.1361  0.0451
24463W        W40647  14.613   2.874   2.395 -0.3139 -0.2849  0.1727
24464W        W40648   7.424  17.263   0.239 -0.2336  0.1662  0.1651
24465W        W40649  11.930  13.170  14.010  0.2880 -0.2348 -0.0249
24466W        W40650  17.959  17.250   3.983  0.0314 -0.4603  0.1709
24467W        W40651  12.772   2.958   0.122 -0.1228  0.0996 -0.1561
24468W        W40652   5.195  15.836   6.815 -0.0970 -0.0258 -0.0255
24469W        W40653  15.709  11.762  12.671 -0.2342  0.0264  0.3171
24470W        W40654   3.403   9.961   2.746 -0.0693  0.0774  0.0649
24471W        W40655   8.076   1.412   2.796 -0.0068 -0.2352  0.1764
24472W        W40656  13.354   6.636  11.672  0.1587 -0.1295  0.0162
24473W        W40657   6.386   0.753   4.832  0.0602  0.0330 -0.5086
24474W        W40658  17.771  16.235   0.773 -0.2393 -0.0635 -0.0719
24475W        W40659   1.182  14.299  13.226  0.0156 -0.2539 -0.3543
24476W        W40660   3.042  11.073   0.131  0.1312  0.3064 -0.1616
24477W        W40661  10.785   4.752   2.033  0.2090  0.1458  0.1684
24478W        W40662   8.870   4.713  15.784 -0.1625  0.1782  0.1480
24479W        W40663   6.269  11.148  11.770  0.1180  0.0751  0.1224
24480W        W40664  10.799  16.280  14.547 -0.0722 -0.1780 -0.0812
24481W        W40665   0.790  12.417   6.360  0.0009 -0.2295 -0.0883
24482W        W40666  15.625   5.398   4.263 -0.0715  0.0029  0.0301
24483W        W40667   6.879   0.855   5.114  0.0686  0.4565  0.0614
24484W        W40668   6.845  18.111   1.929 -0.5253  0.0069 -0.0748
24485W        W40669   6.672   9.170   1.287 -0.1445  0.2718 -0.1160
24486W        W40670   3.796  10.729  13.305  0.1055 -0.3485  0.0096
24487W        W40671   0.415  14.867  13.284  0.3564  0.1522 -0.1694
24488W        W40672   3.475   2.017   0.639 -0.1224  0.0448 -0.2997
24489W        W40673  16.677  10.933  15.488 -0.0713  0.0976 -0.4305
24490W        W40674  17.713  16.149  12.229 -0.0045  0.1596  0.2902
24491W        W40675   7.832   5.823   5.536 -0.2433 -0.1362  0.0691
24492W        W40676   2.895   4.741   2.796 -0.6734  0.0575 -0.1571
24493W        W40677  14.476   9.479   5.292  0.0475 -0.1014 -0.2141
24494W        W40678   6.667  10.346   2.804  0.1545  0.3668 -0.1595
24495W        W40679  17.884   0.103  13.498 -0.1166  0.1719  0.1521
24496W        W40680   7.186   1.446   2.910 -0.0866  0.1852 -0.2115
24497W        W40681   9.775  10.445  13.122  0.1465  0.0903  0.1065
24498W        W40682   4.379  15.402  16.599  0.2611  0.0858 -0.0099
24499W        W40683  14.302   5.619   3.571 -0.4868  0.0524 -0.0092
24500W        W40684   2.755  13.705   6.425 -0.0879 -0.1747  0.1784
24501W        W40685  12.312   2.357   5.375 -0.0331 -0.1882 -0.2980
24502W        W40686   9.247  12.407   1.966 -0.1943  0.0969 -0.2539
24503W        W40687  16.328  12.558   1.670  0.1371 -0.3689  0.2629
24504W        W40688   1.921   1.625  16.610  0.1101 -0.0298 -0.2776
24505W        W40689   6.864  14.271   5.302 -0.0002 -0.6042  0.2318
24506W        W40690   3.821  17.993  12.082  0.3739  0.1011  0.1020
24507W        W40691   4.294   9.532  13.788 -0.1367 -0.4863  0.0607
24508W        W40692  14.793  16.164   3.737 -0.2208  0.1193  0.0736
24509W        W40693   9.554  11.368   0.847  0.2158 -0.1333  0.0708
24510W        W40694   7.812  12.542   2.104  0.0342  0.0325 -0.2037
24511W        W40695   9.826   2.307   3.636 -0.4183  0.0304  0.0650
24512W        W40696   7.656  14.087   3.670 -0.1430 -0.1163 -0.2109
24513W        W40697  11.084  14.444   5.858  0.0799 -0.2087  0.0575
24514W        W40698  14.919   2.476  16.058 -0.2351  0.1453  0.0963
24515W        W40699   3.010  15.681   2.032 -0.2443  0.1885 -0.3629
24516W        W40700   0.223  12.614  12.345  0.2411 -0.0623 -0.3306
24517W        W40701  16.039   8.016  11.602 -0.3216 -0.1736  0.1805
24518W        W40702  12.162   0.300  14.637  0.0350  0.1738 -0.4316
24519W        W40703   4.548  11.140   2.969  0.0576  0.2115  0.1818
24520W        W40704  18.066  12.299   1.286 -0.1878 -0.0571  0.4314
24521W        W40705  13.918  12.660  11.737 -0.1259 -0.1682  0.2468
24522W        W40706   2.074   2.681   5.563  0.0931  0.1318  0.1527
24523W        W40707   6.916  14.492   3.265  0.3417  0.1048 -0.2539
24524W        W40708   1.277  11.066  16.394 -0.3192  0.0609 -0.1510
24525W        W40709  18.025  12.698  14.472 -0.1416 -0.2654 -0.0826
24526W        W40710  13.325  16.979   1.096 -0.1224  0.2984 -0.2668
24527W        W40711  12.788  15.873  16.248  0.0581 -0.0869 -0.1594
24528W        W40712  12.461  16.980  14.420  0.1757 -0.1470  0.1874
24529W        W40713   4.861  10.371   4.021  0.0660 -0.0499  0.0666
24530W        W40714   7.192   0.879  11.865 -0.1366  0.0618 -0.0483
24531W        W40715   4.597  17.560  12.455 -0.4120 -0.1113  0.0749
24532W        W40716   3.885   6.611  15.500  0.1511 -0.0818  0.0163
24533W        W40717   5.761   1.147   3.483  0.0905  0.2924 -0.1152
24534W        W40718   3.248   5.969   4.052 -0.0983 -0.0997  0.2100
24535W        W40719  15.505   6.326  10.578  0.1483  0.0861  0.0046
24536W        W40720   8.243   3.057   2.982  0.0952 -0.1493  0.0845
24537W        W40721   8.021  16.444   4.692  0.0416 -0.1800 -0.0608
24538W        W40722   1.471   0.240  12.402  0.2147  0.1784  0.0757
24539W        W40723  14.000  16.327  12.312  0.0884 -0.0802  0.1506
24540W        W40724   6.981   5.986   4.313  0.0034  0.0968 -0.1014
24541W        W40725   6.486   3.041   1.555 -0.0891  0.0776  0.3344
24542W        W40726  16.395   8.103   4.650  0.0769 -0.0082 -0.3156
24543W        W40727  10.628  16.805   1.354 -0.0038 -0.0362  0.1412
24544W        W40728  10.928  16.978   0.981 -0.2098  0.0323  0.1179
24545W        W40729  17.163  13.762  14.593  0.1253  0.1612  0.1199
24546W        W40730   0.728   3.562   1.541 -0.1975 -0.1620  0.0209
24547W        W40731   3.158   8.373   3.729 -0.3093 -0.2880 -0.1354
24548W        W40732   6.715   3.100   1.997  0.0267  0.0251 -0.0102
24549W        W40733  18.042  12.962  12.583 -0.0979  0.0823 -0.2272
24550W        W40734  10.540   7.224  14.458  0.1668  0.0805  0.1339
24551W        W40735   4.727   9.965   3.655  0.1599 -0.0035 -0.3678
24552W        W40736  17.339  17.940  16.625  0.0600  0.0591  0.3757
24553W        W40737   4.671  12.955   5.112  0.0228 -0.1030  0.0100
24554W        W40738  14.432  15.604  15.278 -0.2060  0.0763 -0.0090
24555W        W40739   8.255  12.608  15.505  0.1753  0.0712 -0.1221
24556W        W40740   2.836  12.855  15.091 -0.0585  0.0244 -0.1707
24557W        W40741   9.966  13.814   1.264 -0.0850  0.0718  0.0977
24558W        W40742  13.888   8.488  12.199  0.0490 -0.3343  0.0833
24559W        W40743   8.035  15.168   5.215 -0.0655  0.2335  0.0802
24560W        W40744  14.459   1.203   5.246  0.0698 -0.1240  0.0684
24561W        W40745  10.828  12.172   1.883  0.2800  0.5672  0.0894
24562W        W40746   1.891  16.019  16.301 -0.1567 -0.1148 -0.2296
24563W        W40747   8.379   4.243   1.772  0.0359  0.1450  0.0683
24564W        W40748   4.558   9.933   4.171 -0.0307  0.2010  0.0400
24565W        W40749   7.189   7.607   5.458 -0.0935  0.0879  0.1415
24566W        W40750  11.581  12.077   1.507  0.0988  0.2293 -0.1518
24567W        W40751  11.604   7.600   4.710  0.1082  0.0703 -0.0433
24568W        W40752   6.381  18.077  12.559  0.1295  0.1815  0.2098
24569W        W40753   2.992  16.174   2.233 -0.3198 -0.0126  0.0419
24570W        W40754   8.483   1.656   2.775  0.0011  0.2609  0.1108
24571W        W40755  14.836  13.048  15.803 -0.1476  0.0444  0.0117
24572W        W40756  13.988   9.932  15.205 -0.2076  0.1336  0.0554
24573W        W40757   2.541  12.680   5.359  0.1494  0.3061 -0.2485
24574W        W40758   7.726   1.773   4.641  0.4290 -0.1296  0.1624
24575W        W40759   9.030   5.404   1.965  0.4133  0.0183 -0.1136
24576W        W40760   5.548  15.115  14.569  0.0013 -0.0696  0.1186
24577W        W40761   3.596  17.817   0.622  0.4286 -0.0781 -0.0566
24578W        W40762  12.315  16.376  14.219  0.2342  0.3229  0.1665
24579W        W40763   7.129   9.427   4.073 -0.0378 -0.1380 -0.1328
24580W        W40764  14.054   0.397  12.988  0.2312  0.1372 -0.0662
24581W        W40765   9.035   5.236   0.087  0.0029 -0.1901  0.2365
24582W        W40766   2.631  14.576  15.078 -0.0621 -0.0874 -0.1609
24583W        W40767  10.163   8.288   0.034 -0.2074 -0.0365 -0.1786
24584W        W40768   7.899   3.235  14.318  0.1210 -0.0272  0.0410
24585W        W40769  11.733   7.549  11.386 -0.2410 -0.3163  0.0001
24586W        W40770   4.644   4.563   2.687 -0.1210  0.0044 -0.3713
24587W        W40771  11.449  10.381   0.901 -0.2900 -0.0426  0.3316
24588W        W40772   9.754   0.213  16.260 -0.0964  0.1423  0.1766
24589W        W40773   5.336  14.496   0.914 -0.2033 -0.1964  0.1196
24590W        W40774   8.570   3.611   5.964 -0.3725  0.3114 -0.0105
24591W        W40775  17.800   8.360   0.242 -0.2814  0.1842 -0.2003
24592W        W40776   0.861   3.165  12.784 -0.3221  0.0402  0.1898
24593W        W40777  12.042  10.001   1.396  0.3007  0.0136 -0.0450
24594W        W40778   2.636  16.793  11.878 -0.0861  0.1116 -0.1299
24595W        W40779  12.578   8.121  16.129 -0.0480 -0.3643 -0.0420
24596W        W40780   0.407  16.433  13.809 -0.0158 -0.0617  0.0133
24597W        W40781  17.669  11.576   3.692  0.2687  0.1969 -0.0632
24598W        W40782  16.099  14.457  11.824 -0.0707  0.1814 -0.2193
24599W        W40783   4.951  12.678   1.175 -0.0104  0.1503  0.1811
24600W        W40784   1.322   5.466  16.452 -0.1909  0.0915 -0.4517
24601W        W40785  18.093  13.997  12.235  0.0741  0.0349  0.3093
24602W        W40786   4.366   9.334   2.477  0.1131 -0.0809 -0.1756
24603W        W40787   5.300  11.358   3.328  0.3791 -0.2115  0.1756
24604W        W40788  12.690  13.676  11.599  0.2969  0.3014 -0.0610
24605W        W40789  12.103   9.535  13.236  0.0346 -0.0518  0.2009
24606W        W40790   9.950   8.250   2.653  0.0807  0.0734 -0.0259
24607W        W40791   9.019   9.816   0.906 -0.1349 -0.0464 -0.0896
24608W        W40792   7.681  11.407   0.456  0.0801  0.1670 -0.0802
24609W        W40793   6.137  17.933   4.858  0.2924 -0.0931  0.0906
24610W        W40794   7.351  11.514   0.932 -0.0585 -0.2311  0.0547
24611W        W40795   3.885   8.550   6.044  0.0851  0.1989 -0.1595
24612W        W40796   6.395  11.760   5.500  0.1176 -0.0046 -0.3287
24613W        W40797  12.031   4.408   0.599  0.0061 -0.0353  0.4717
24614W        W40798   8.902   3.560  11.836 -0.0157  0.0917  0.0125
24615W        W40799   1.182  16.332   1.237 -0.1284 -0.0960  0.1676
24616W        W40800   3.311   0.871   2.732 -0.5006  0.2270  0.1679
24617W        W40801  15.646  16.169  12.939  0.3071  0.1654 -0.1438
24618W        W40802   8.791  13.880   5.239 -0.2325 -0.3268 -0.2117
24619W        W40803   6.512  10.571   4.512 -0.1969  0.1707  0.3384
24620W        W40804   3.061   1.369   3.711  0.1115  0.1784 -0.0560
24621W        W40805   9.835  16.237  11.750 -0.0234  0.3267 -0.1959
24622W        W40806   3.548   4.911   0.814 -0.2095 -0.0947  0.2388
24623W        W40807   9.531   0.626   4.876 -0.1558 -0.3844 -0.0030
24624W        W40808  14.413   9.254   3.165  0.0360  0.3516  0.0103
24625W        W40809  11.908   8.468   5.195  0.0692  0.1443  0.1932
24626W        W40810  15.250   0.776   4.885  0.2868  0.0570  0.0913
24627W        W40811   4.432   9.552   4.865  0.0346  0.0672  0.2793
24628W        W40812   4.399   3.921  13.372  0.2004 -0.1276 -0.0346
24629W        W40813  16.359   5.768   1.442 -0.2387  0.2594 -0.1584
24630W        W40814   2.037   3.278   1.002 -0.1473 -0.3278 -0.1883
24631W        W40815  16.564   3.834  14.982 -0.2340  0.1466  0.0646
24632W        W40816   1.609   4.660  14.295 -0.2015  0.1703 -0.0435
24633W        W40817   2.680   2.973   4.466  0.1085 -0.0085  0.3095
24634W        W40818  16.644   4.758   1.466 -0.0693  0.1284 -0.0144
24635W        W40819   3.671  17.861   1.073  0.1130  0.1141 -0.4119
24636W        W40820   0.392  12.056   5.272 -0.1165 -0.1290 -0.1566
24637W        W40821  16.770   2.795   5.024  0.2180  0.1656 -0.1799
24638W        W40822   9.020   2.078   4.781 -0.2692 -0.1034  0.0879
24639W        W40823  17.888  12.223  15.446  0.0270  0.1964  0.4000
24640W        W40824  13.540   3.021  14.923  0.1388 -0.0264  0.1158
24641W        W40825  16.924   0.778  14.498 -0.0495  0.1011  0.1779
24642W        W40826  17.057  10.747   2.302 -0.4158 -0.3877 -0.2020
24643W        W40827   3.987   2.836   1.814  0.0818  0.3755 -0.2442
24644W        W40828  15.504   5.978  14.317  0.0398 -0.0877  0.2710
24645W        W40829   9.749  16.344   1.260 -0.3373 -0.1396 -0.3455
24646W        W40830   2.535   9.109   0.188  0.4425 -0.1798  0.1819
24647W        W40831  17.557   3.158  13.885  0.0635  0.0200  0.0016
24648W        W40832   7.665   9.805   0.372  0.2767  0.1363 -0.1288
24649W        W40833   8.606   8.597  14.915 -0.2358  0.0971 -0.0839
24650W        W40834   2.391   8.918  16.367 -0.2452  0.1080 -0.0339
24651W        W40835  15.384   0.456   6.035 -0.2653 -0.0252 -0.1805
24652W        W40836   9.510  12.002   3.844  0.0756 -0.0024  0.1318
24653W        W40837   7.324   6.247   5.729  0.2106 -0.3579  0.0850
24654W        W40838   9.441  10.159  12.813  0.0182 -0.4115 -0.1557
24655W        W40839   1.655   0.905  13.267 -0.0330  0.3234  0.1241
24656W        W40840   9.282   1.178  13.468  0.2738  0.2286 -0.0125
24657W        W40841  11.689   9.904   1.945 -0.3498 -0.1434 -0.2663
24658W        W40842   0.279   0.110  12.898 -0.5085 -0.1039 -0.0867
24659W        W40843   2.727  17.959   2.145 -0.0004  0.0810 -0.2076
24660W        W40844   2.010  10.573   1.379  0.0859  0.3455  0.1142
24661W        W40845   5.917   6.873  15.769  0.0979 -0.1929 -0.0159
24662W        W40846   9.242   9.794   3.352 -0.1655  0.0513 -0.1096
24663W        W40847   4.059   8.077   0.805 -0.2548 -0.0488  0.1318
24664W        W40848   7.093   9.735   0.500 -0.1360 -0.1061 -0.2577
24665W        W40849  13.407  13.302   2.422  0.1270 -0.3956 -0.0626
24666W        W40850   8.330  13.902   1.478 -0.2172  0.2645 -0.2373
24667W        W40851  14.580   3.788  15.316 -0.0829 -0.0619  0.0770
24668W        W40852   5.160  13.676  15.321 -0.1389 -0.1657 -0.0394
24669W        W40853  12.276   5.732   1.415  0.0531  0.2241 -0.3995
24670W        W40854  17.162   7.022  15.649  0.1812 -0.0865 -0.2485
24671W        W40855  13.520   9.878  13.464  0.0643  0.1324 -0.0815
24672W        W40856   9.759  15.614   3.995 -0.2259  0.1706  0.3593
24673W        W40857   9.674   0.164   3.956 -0.0012 -0.5728  0.2471
24674W        W40858   8.988  10.382  11.835 -0.2289  0.1455  0.1557
24675W        W40859  14.196  16.792   1.030  0.1592  0.2093  0.1342
24676W        W40860   6.476   8.621  15.958  0.0210  0.2930 -0.0745
24677W        W40861   8.184  18.064   1.854  0.0780  0.0342 -0.3278
24678W        W40862   5.107  17.997   5.132 -0.0380 -0.2644  0.1618
24679W        W40863   9.064   0.867   1.484 -0.2136 -0.2252  0.0359
24680W        W40864  17.510  18.117   1.172 -0.0150 -0.1713 -0.1098
24681W        W40865   9.662  17.732   0.387 -0.1773 -0.1051  0.0233
24682W        W40866  11.676   8.212   1.731 -0.1588 -0.1279  0.1133
24683W        W40867  16.366   1.713  13.515 -0.1823  0.0162 -0.0574
24684W        W40868   9.602  12.971  13.810  0.2727  0.0311  0.3846
24685W        W40869   6.017  13.955   0.562 -0.1499 -0.3615  0.0626
24686W        W40870   3.665   2.242   5.115  0.3874 -0.2824  0.1885
24687W        W40871  16.734  10.715   1.899  0.0204 -0.0448  0.0230
24688W        W40872  10.927   6.943  13.006  0.0741  0.2470  0.0997
24689W        W40873   6.737  14.944   1.327  0.1802  0.1716  0.0204
24690W        W40874   8.362   1.932   0.501 -0.3663 -0.1889 -0.0429
24691W        W40875   4.217   7.351  13.991  0.2162  0.1222  0.0083
24692W        W40876   4.150  11.813   4.777  0.1139 -0.1945  0.0047
24693W        W40877   7.647  10.298  15.705  0.3431  0.0440  0.0804
24694W        W40878   6.593   0.575  14.167 -0.0177  0.0898 -0.0762
24695W        W40879  12.364  10.520   4.807 -0.1041 -0.0457 -0.4110
24696W        W40880  13.774   9.740  15.885  0.0475  0.0655 -0.0908
24697W        W40881  13.116   0.663   3.089 -0.2958 -0.3295  0.1774
24698W        W40882   8.780   9.376  16.209  0.3086 -0.0558  0.0839
24699W        W40883  16.317  12.235   2.539  0.2090  0.3752  0.1132
24700W        W40884   7.455   7.167   0.630  0.1645 -0.3658 -0.2904
24701W        W40885   5.022   3.498   0.789 -0.2072  0.3493  0.0896
24702W        W40886   6.995  11.373  10.895  0.1603 -0.0054 -0.0169
24703W        W40887   3.879   8.402  14.639 -0.0566 -0.1652  0.0510
24704W        W40888  17.502  16.503  14.314 -0.0089  0.0187 -0.2053
24705W        W40889  15.701  14.756  13.613 -0.0193  0.4204  0.0315
24706W        W40890   0.345   4.814  11.524 -0.0860 -0.1534 -0.1390
24707W        W40891  16.373   2.532   1.001 -0.2056 -0.1911 -0.1887
24708W        W40892   4.256   3.948   2.710 -0.0382  0.1110 -0.0354
24709W        W40893  12.379  14.928  15.440 -0.1960  0.2154  0.0572
24710W        W40894   5.098   5.565   3.028  0.0672  0.3015  0.1120
24711W        W40895  10.662  11.869  14.601 -0.0871 -0.0342  0.0094
24712W        W40896   6.805  11.695  13.514  0.1254  0.0491  0.3387
24713W        W40897  13.341  14.465   0.497 -0.0088  0.1077  0.0870
24714W        W40898   9.909  14.824   0.662  0.0102  0.1848  0.0268
24715W        W40899  17.549   4.566  12.546  0.2891  0.0572  0.0408
24716W        W40900  12.982   3.026   2.757  0.0283 -0.1701  0.2306
24717W        W40901   1.539   1.920   0.310  0.3337  0.0141 -0.1188
24718W        W40902  11.564  14.542  11.868  0.0803  0.0265 -0.1140
24719W        W40903  10.444  15.631  12.445  0.1756 -0.2340  0.0870
24720W        W40904   8.595   6.202  13.679  0.1965 -0.1530 -0.0425
24721W        W40905  10.623  17.712  14.969 -0.0440 -0.0267  0.1062
24722W        W40906   2.571   2.804  13.626  0.1214  0.0081 -0.1478
24723W        W40907  10.274  15.816   4.704  0.0816 -0.1679 -0.0481
24724W        W40908  17.016  11.101   0.714 -0.0281  0.2367 -0.3334
24725W        W40909   3.671   3.890   2.382  0.3684  0.1961 -0.1233
24726W        W40910   1.659   9.030   5.013  0.0292 -0.1867  0.0649
24727W        W40911   7.443  11.815   4.448 -0.1928  0.1060  0.1487
24728W        W40912   0.235  10.457  14.473 -0.1901  0.0943  0.2273
24729W        W40913   2.424   1.486   0.037  0.0424 -0.3568 -0.2301
24730W        W40914   6.545  15.050  15.098  0.0504 -0.1777 -0.1470
24731W        W40915   4.258  10.390  11.389  0.1749 -0.1842  0.0349
24732W        W40916   6.233  18.086   1.089  0.0101 -0.0874  0.0960
24733W        W40917  17.269  17.438  11.754  0.0477 -0.0549 -0.4151
24734W        W40918  11.841  12.426  13.305 -0.4013  0.1724 -0.0085
24735W        W40919  11.784  16.256   0.611 -0.2468 -0.3007 -0.4274
24736W        W40920  16.316  11.547   0.891 -0.0969 -0.2261 -0.0581
24737W        W40921   2.498   3.018  14.154  0.2097  0.0124  0.1150
24738W        W40922  16.320   0.502  15.201 -0.0688  0.1097 -0.1738
24739W        W40923   9.558  16.983  16.358  0.1779  0.0142 -0.0305
24740W        W40924   1.726   2.733   4.317 -0.0096  0.2558  0.0276
24741W        W40925  12.292  10.117  12.459 -0.0878 -0.2109 -0.0884
24742W        W40926  14.027   6.619  11.266  0.0428 -0.2276 -0.0103
24743W        W40927   2.914  15.240   2.819  0.0364 -0.0946 -0.0694
24744W        W40928  11.320  16.498   4.708  0.1113 -0.2111 -0.0567
24745W        W40929   9.128   9.306   1.796  0.0222  0.0969  0.1100
24746W        W40930   5.659   2.727  11.938  0.0809  0.2046 -0.0918
24747W        W40931   4.733   8.313   5.501  0.0975  0.1483  0.1192
24748W        W40932   4.631   9.349  14.511 -0.0606  0.0362 -0.0159
24749W        W40933   7.812   5.656  12.608 -0.1642 -0.1493  0.3386
24750W        W40934  13.917   2.744   5.652 -0.4172 -0.2635 -0.3158
24751W        W40935   2.958  10.570   1.297  0.0256  0.2626 -0.3156
24752W        W40936  17.583   8.870  16.073 -0.1596  0.0975  0.0393
24753W        W40937   8.290  15.980  12.365 -0.0754  0.1097  0.1951
24754W        W40938  18.030   3.280  11.320 -0.0485 -0.2420 -0.1087
24755W        W40939  16.420   4.435  16.565 -0.2181  0.0166  0.1016
24756W        W40940  12.284  10.775  15.092  0.1273 -0.1315 -0.0847
24757W        W40941   2.572   9.167  14.332 -0.3556  0.1937 -0.0477
24758W        W40942   2.927   1.436   4.253  0.1765 -0.0347 -0.5235
24759W        W40943  12.976   4.252  15.109  0.0887  0.0983  0.0390
24760W        W40944   3.488   5.543   5.127  0.0903 -0.1992  0.2632
24761W        W40945   8.356   0.180   6.013  0.1579  0.1698  0.0748
24762W        W40946   2.711  14.401   5.471  0.0006 -0.4172  0.3349
24763W        W40947   0.595  12.129   2.547  0.0043  0.0638 -0.1087
24764W        W40948   9.796  11.017  16.514 -0.2346  0.0393 -0.0146
24765W        W40949   2.685   4.949   0.975 -0.0661 -0.0852  0.0437
24766W        W40950  16.199  11.558   4.726  0.2727  0.0916  0.2148
24767W        W40951  16.001   7.914  13.331 -0.3382 -0.0557  0.1357
24768W        W40952   3.803  15.930  14.308  0.0738 -0.3681 -0.0791
24769W        W40953   1.002   1.635  11.742 -0.3399 -0.0156  0.0747
24770W        W40954  13.389   3.136   1.603  0.2182 -0.3389  0.1686
24771W        W40955   3.777  12.680   1.590 -0.0074 -0.2387 -0.0219
24772W        W40956  12.842  12.516  16.148 -0.0443  0.1488  0.0591
24773W        W40957   3.739  13.303   5.553  0.1387  0.1029  0.0515
24774W        W40958  15.950  17.548  16.058  0.0026 -0.2357  0.0715
24775W        W40959   3.366   0.628  12.232 -0.0750 -0.0352 -0.1098
24776W        W40960  11.335   7.036  12.205 -0.0975 -0.3418  0.1307
24777W        W40961   2.676   6.346   0.969  0.0378 -0.0225  0.3006
24778W        W40962   7.638  15.219   0.469 -0.3086 -0.0511 -0.1871
24779W        W40963   8.772  17.906  12.013 -0.0614  0.1325  0.1227
24780W        W40964   5.817   2.826   1.166  0.0314  0.3816  0.0556
24781W        W40965   1.020  14.324   3.965 -0.2203 -0.0511  0.3182
24782W        W40966  10.535  17.597  11.578  0.0646  0.0095  0.0297
24783W        W40967   4.914   5.066   3.406 -0.0009 -0.2582 -0.0104
24784W        W40968   4.928  13.504   4.461  0.1359 -0.1272 -0.2282
24785W        W40969  13.308   4.360   4.061  0.1606  0.0529  0.0665
24786W        W40970  14.915   8.514   4.378 -0.3420  0.0251  0.1618
24787W        W40971  16.568   8.161   1.587  0.1490  0.0924 -0.0634
24788W        W40972   0.955  15.670  14.293 -0.3844 -0.2310  0.0172
24789W        W40973   4.392   9.041  16.343  0.2958 -0.2091 -0.0568
24790W        W40974   1.288  11.062   2.886  0.1600 -0.2215  0.0435
24791W        W40975  14.019   7.972   2.718  0.1371 -0.1364 -0.1705
24792W        W40976  10.707   2.821  12.113  0.1529  0.3025  0.0082
24793W        W40977  17.564  10.277  14.641 -0.0433 -0.0601  0.1127
24794W        W40978   2.783   1.120  11.665 -0.2123 -0.1733  0.1534
24795W        W40979   4.774   8.551   2.439  0.0798  0.2819  0.0773
24796W        W40980  12.004   6.679   1.768  0.0455  0.1230 -0.0738
24797W        W40981   0.329  16.595  15.603 -0.3894  0.1505  0.2347
24798W        W40982   4.703   2.186   1.863  0.1273  0.0658  0.1412
24799W        W40983  15.283  16.818   4.082 -0.1242 -0.0334  0.2139
24800W        W40984  17.220  11.703  13.290 -0.0864 -0.0114 -0.0524
24801W        W40985  17.135   6.168  14.259 -0.4231  0.1211 -0.0036
24802W        W40986   3.447   0.708   4.317  0.0067 -0.0133 -0.4983
24803W        W40987  15.844  15.234   1.610  0.0532  0.0899  0.1083
24804W        W40988   6.906   2.642   2.224  0.2913  0.2387  0.3185
24805W        W40989  14.635   5.884  16.199 -0.0647  0.0738 -0.1395
24806W        W40990  12.179  14.658  15.779 -0.1879 -0.0897 -0.3009
24807W        W40991   2.054   4.275  13.559 -0.0256 -0.0041  0.0709
24808W        W40992   0.928  11.396   0.568  0.1715 -0.0553  0.1997
24809W        W40993   3.398  14.480  16.194 -0.0950  0.0153 -0.1360
24810W        W40994   4.592  11.632   3.746  0.2519 -0.0063 -0.1558
24811W        W40995   3.969   1.645   2.890  0.2381 -0.0861  0.1046
24812W        W40996  14.868  13.013   3.950 -0.0716 -0.2147  0.2331
24813W        W40997   7.614   4.308  12.644  0.1553 -0.3639 -0.0393
24814W        W40998   9.849  16.086   4.285  0.2259 -0.0133  0.0443
24815W        W40999  17.881  15.696   3.329 -0.0767  0.2167  0.2118
24816W        W41000  17.637   5.764  11.051  0.0394 -0.0449 -0.2508
24817W        W41001  11.213  11.419   4.101  0.0788  0.0809 -0.3551
24818W        W41002   7.561   4.696   4.913  0.0830  0.0651 -0.0288
24819W        W41003  17.085  11.194  13.718 -0.1479 -0.1155 -0.2418
24820W        W41004   3.362  12.689  14.941  0.3028 -0.0748  0.1672
24821W        W41005   8.040  17.831   3.226 -0.0800 -0.0745 -0.2912
24822W        W41006  16.371   1.517  12.978  0.1183  0.1329  0.1320
24823W        W41007  16.060  10.794   2.537  0.1368 -0.0052 -0.2651
24824W        W41008  11.932  11.371  12.763 -0.1481 -0.1948 -0.2416
24825W        W41009   5.111  13.797   5.097 -0.1659 -0.1303  0.4024
24826W        W41010   2.525  12.772   2.746  0.1236 -0.4319 -0.3076
24827W        W41011   4.048  14.555   3.042 -0.1479  0.1299 -0.0058
24828W        W41012   2.294   2.465  16.649  0.1266 -0.0932 -0.1497
24829W        W41013   6.187  17.405   4.610  0.0359 -0.2156 -0.1035
24830W        W41014   1.443   3.403   1.085  0.3169  0.2793 -0.1026
24831W        W41015  14.180  12.592   2.361 -0.1828 -0.0394  0.1464
24832W        W41016  14.413   7.730  16.467 -0.0015  0.0472  0.0506
24833W        W41017  12.263  15.055   0.892  0.1696  0.0237  0.0384
24834W        W41018   1.860   7.066  12.633 -0.0052  0.0414  0.4086
24835W        W41019  14.745  12.192   0.254  0.1198  0.0980  0.0857
24836W        W41020   3.399   3.048  13.630 -0.0545 -0.1257 -0.1909
24837W        W41021   0.106   4.540   3.410 -0.3663 -0.1438 -0.3171
24838W        W41022  15.905   5.109   4.531 -0.2417  0.1529  0.0917
24839W        W41023  13.420   7.088   2.840  0.0356  0.2523  0.1488
24840W        W41024  10.624  17.620   4.484 -0.1785  0.1421  0.0024
24841W        W41025  17.564  17.087   1.598  0.1347 -0.0448 -0.4629
24842W        W41026  11.602  16.994   2.988  0.3970 -0.1245 -0.0084
24843W        W41027   8.896   8.796   1.357 -0.0899 -0.2013 -0.3958
24844W        W41028  17.190  13.217  16.179 -0.0660  0.2705  0.2660
24845W        W41029  10.642   8.283  12.474  0.5191  0.1205  0.1387
24846W        W41030   5.493  11.156  12.556 -0.0863  0.2490 -0.1014
24847W        W41031  11.268   5.679  16.022  0.2818 -0.0485  0.1114
24848W        W41032   7.885  11.364   3.335  0.1299  0.0675 -0.0651
24849W        W41033  12.493   1.060   1.402  0.2971  0.0583 -0.0424
24850W        W41034  13.143  17.647   1.644 -0.0794  0.1187 -0.1663
24851W        W41035  15.204   6.293  11.524 -0.0222 -0.0415 -0.0712
24852W        W41036   6.274  11.886  15.652  0.0495 -0.0399 -0.0718
24853W        W41037  16.717  13.847   0.050  0.0483  0.0804  0.2217
24854W        W41038  14.108   3.402   3.537 -0.0524  0.1594  0.0987
24855W        W41039  12.688   6.282   5.336  0.0706 -0.2555 -0.1644
24856W        W41040  15.954  14.110  13.638  0.1742  0.1161  0.3176
24857W        W41041   0.766  10.920   0.592  0.2229 -0.0523 -0.1095
24858W        W41042  13.446  17.504   0.123 -0.2754 -0.0421  0.0199
24859W        W41043   6.705   4.738  16.447 -0.0611 -0.0972 -0.1430
24860W        W41044  13.549   9.470  14.208  0.1514  0.1356 -0.0216
24861W        W41045   1.608   6.855   1.025 -0.2626  0.3047 -0.0413
24862W        W41046  15.178  12.071   3.463 -0.0187 -0.5207 -0.1370
24863W        W41047  10.193  15.980  14.069 -0.0679  0.2358 -0.0092
24864W        W41048  18.099   2.975   3.388 -0.0729 -0.0661  0.1537
24865W        W41049  12.331   4.757  13.465 -0.4842 -0.2367 -0.1867
24866W        W41050  13.954  13.800  16.348  0.1412 -0.0913 -0.1000
24867W        W41051   2.831  11.993   2.838 -0.1874  0.3083 -0.0006
24868W        W41052   0.069  11.602   3.724 -0.1156  0.2655  0.0620
24869W        W41053   4.282   4.650  11.070 -0.0756  0.0441  0.3538
24870W        W41054   2.830  11.656   0.658  0.1533 -0.1260  0.2917
24871W        W41055  16.670  17.019  16.245 -0.1149 -0.1076  0.1536
24872W        W41056  12.392   1.171  12.750  0.1230 -0.0055 -0.1303
24873W        W41057  15.303  14.736  14.867  0.0284 -0.0961 -0.0869
24874W        W41058   2.048  12.777   2.538 -0.0761  0.0631  0.1245
24875W        W41059  13.863  11.300  15.396 -0.1095 -0.0932 -0.3645
24876W        W41060   4.482  13.081   0.727  0.0768 -0.1418 -0.4951
24877W        W41061   1.256   8.270   4.383  0.2422  0.1655 -0.0404
24878W        W41062  17.129  14.541   2.138 -0.1347  0.0592 -0.1171
24879W        W41063   6.391   0.469   0.258 -0.3594  0.0388 -0.1095
24880W        W41064   8.800   9.996   1.648  0.2530  0.1205 -0.1799
24881W        W41065   6.919  16.761  11.463 -0.3465 -0.1999  0.1327
24882W        W41066   3.469   9.868  15.245  0.3228 -0.0889 -0.2187
24883W        W41067  16.425   5.034   4.526  0.1248  0.0851  0.0404
24884W        W41068   8.836   0.559  13.147 -0.0728 -0.2528 -0.1720
24885W        W41069  12.187   6.232   0.583 -0.1772 -0.1653  0.2932
24886W        W41070  17.646  16.884   3.772 -0.1048 -0.1704  0.1974
24887W        W41071  11.192  12.521   5.928 -0.2520 -0.0080  0.2487
24888W        W41072   8.285  14.726  14.232 -0.1517 -0.1004  0.0699
24889W        W41073   0.858  16.580  13.994  0.3530 -0.1970  0.0182
24890W        W41074  15.099   7.522  13.665  0.1345  0.0378  0.0290
24891W        W41075   6.436   1.874  14.457  0.2249 -0.0960  0.1615
24892W        W41076  14.060   7.012   2.063  0.0173 -0.0259  0.4299
24893W        W41077  15.393  11.064   6.341 -0.0931 -0.0316  0.1210
24894W        W41078  10.427   6.642   4.840  0.1344 -0.0276  0.1572
24895W        W41079   6.807  11.565  12.286  0.1949 -0.1445 -0.0053
24896W        W41080   8.027   9.354   1.007 -0.1979 -0.0922  0.2363
24897W        W41081   2.162   3.376  16.543 -0.2275  0.1839 -0.0169
24898W        W41082   8.386  10.532  14.884  0.1087  0.0153  0.0663
24899W        W41083   0.383  17.403   2.070 -0.4087 -0.1632  0.3934
24900W        W41084  13.563  15.202   2.400  0.1642  0.2228 -0.5737
24901W        W41085  11.243  10.044  13.378 -0.2095 -0.0184 -0.4591
24902W        W41086  15.344   4.050   2.487 -0.0335  0.1864 -0.4074
24903W        W41087   2.982   8.466  12.558 -0.1381  0.1209 -0.1487
24904W        W41088  17.123  12.088   2.443 -0.2058  0.0590 -0.0921
24905W        W41089  14.543  14.254   1.850 -0.3603 -0.0225  0.0796
24906W        W41090   1.814  11.543   0.180 -0.1144  0.1071  0.1767
24907W        W41091  16.874   7.232   2.376  0.0406  0.1924  0.0890
24908W        W41092   2.621   5.338  12.844 -0.3358  0.3497  0.0558
24909W        W41093   2.403  15.119  13.481 -0.1163 -0.2073  0.0774
24910W        W41094  15.716  16.219   1.958  0.0729 -0.0412 -0.0074
24911W        W41095  10.822   8.734  16.043 -0.1945 -0.0451  0.1168
24912W        W41096  12.913   1.827  12.607  0.2464 -0.0946 -0.1556
24913W        W41097  14.676  16.386   4.262  0.2571  0.3035  0.0045
24914W        W41098  10.647   4.937   3.285  0.3089  0.1841 -0.2760
24915W        W41099   4.745  16.055   5.600 -0.2061  0.1123 -0.1450
24916W        W41100   0.783   5.152   1.002 -0.0353 -0.0555  0.2775
24917W        W41101   4.556  15.869  11.989 -0.0765 -0.3605  0.2679
24918W        W41102   0.306   5.249   1.789  0.1973  0.3913 -0.2508
24919W        W41103  17.615  17.792   1.603  0.0110 -0.1939  0.0117
24920W        W41104  17.375   9.067  11.493 -0.1616  0.0907 -0.0346
24921W        W41105   1.369   4.602  15.992 -0.1456 -0.1643 -0.0540
24922W        W41106   7.506  16.929  14.727 -0.3596  0.3965 -0.0747
24923W        W41107   1.180   1.462  16.273  0.1366 -0.0503  0.1092
24924W        W41108   5.821   9.359   5.957  0.1910 -0.1993 -0.0684
24925W        W41109   8.087   3.183  12.949  0.0411  0.0532 -0.1764
24926W        W41110   6.724  14.842   4.398 -0.1735 -0.3471  0.1953
24927W        W41111  15.287   3.379  14.582 -0.0835  0.3661 -0.2564
24928W        W41112  13.723   1.001  14.962  0.0684 -0.2025 -0.0951
24929W        W41113  15.712   1.420   2.167  0.2131 -0.0746  0.3539
24930W        W41114   8.293  14.494   5.386 -0.2496 -0.0845 -0.0338
24931W        W41115  14.156  15.377   2.358 -0.1068 -0.0316 -0.0150
24932W        W41116  14.056   6.612   0.197  0.2251 -0.4426  0.0193
24933W        W41117   1.172  16.504   5.288  0.2404  0.2229 -0.0238
24934W        W41118  13.248  18.137   1.883  0.1553  0.1545  0.0626
24935W        W41119   8.466   6.399  16.612  0.1637  0.1236 -0.1053
24936W        W41120  17.211   6.349   3.940 -0.0350  0.0136 -0.1524
24937W        W41121   9.814  13.222  12.191  0.1632  0.0368  0.1667
24938W        W41122   8.518  10.661   1.190 -0.0043  0.0862 -0.0267
24939W        W41123   5.745  11.714   2.365  0.3702 -0.0209  0.2111
24940W        W41124   1.334   7.631   2.257 -0.3066 -0.0736 -0.0004
24941W        W41125   5.264   2.510  12.477 -0.0915 -0.2047  0.0110
24942W        W41126  15.414  13.845  14.620 -0.1076  0.2541 -0.0876
24943W        W41127   1.331   6.136  14.925  0.0147  0.3633  0.2421
24944W        W41128  10.894   1.197   1.162 -0.2087  0.1134  0.2824
24945W        W41129  10.771  17.420   5.514  0.1459  0.0215  0.1071
24946W        W41130   7.205   9.087  16.258  0.1707 -0.1704 -0.0012
24947W        W41131   0.905  13.766  15.399 -0.0120  0.3174 -0.1990
24948W        W41132  15.523   9.302   4.810 -0.3006 -0.0861  0.4190
24949W        W41133   3.289  16.879   0.367 -0.0047  0.3782 -0.0489
24950W        W41134  15.382  15.628  12.835 -0.1994 -0.1811  0.1422
24951W        W41135   8.613   2.795   2.808  0.2003 -0.1192  0.2250
24952W        W41136   1.401   0.676   3.960 -0.0389 -0.2861 -0.0527
24953W        W41137  12.621   3.608   1.043 -0.3049  0.3704 -0.1284
24954W        W41138  16.191   9.736   0.653  0.0122 -0.3343 -0.1391
24955W        W41139   7.388  15.698   1.556 -0.0171 -0.0038  0.0717
24956W        W41140   1.237   5.626   5.140  0.1395  0.4521  0.2248
24957W        W41141  11.235   2.800  16.198 -0.3588 -0.2039  0.0802
24958W        W41142  15.712   4.504  11.324  0.1268  0.0778  0.0064
24959W        W41143   3.927   3.338   0.512  0.2484  0.2196 -0.2521
24960W        W41144   8.211  14.821   4.904  0.1028  0.1564 -0.0260
24961W        W41145   3.994  13.191  14.158  0.3579  0.0236  0.0817
24962W        W41146   6.904   4.080   0.564  0.4414 -0.0984 -0.3597
24963W        W41147   3.849  15.605  14.650  0.1853  0.1033  0.1363
24964W        W41148   3.799   8.068  12.635  0.0881  0.1308 -0.1052
24965W        W41149  14.167   1.525   2.172  0.2074  0.0236  0.3401
24966W        W41150  16.716  12.358  15.951 -0.0510 -0.0621  0.1766
24967W        W41151   7.890   3.245   1.286  0.2344  0.1559  0.1348
24968W        W41152   4.816  15.214   0.122 -0.0947 -0.0285  0.2508
24969W        W41153  13.150  13.187   0.832 -0.0531 -0.1802 -0.1191
24970W        W41154  17.413  13.471   3.319 -0.0728  0.0400 -0.2485
24971W        W41155  16.854  14.004  12.799 -0.2050 -0.2968 -0.1642
24972W        W41156   1.456  15.053   0.818 -0.2774 -0.0472  0.1427
24973W        W41157  18.006  10.544   1.826 -0.2165 -0.2288 -0.1650
24974W        W41158   1.976  15.297  15.023  0.0061  0.1196  0.2847
24975W        W41159  10.555   3.355  13.967 -0.0351  0.3178 -0.0331
24976W        W41160   9.941  14.120  16.150  0.3788 -0.2493 -0.0638
24977W        W41161  10.589  13.471  12.352  0.0073 -0.0291 -0.2306
24978W        W41162  12.159   4.011   0.287 -0.0526  0.2397  0.0709
24979W        W41163  10.617   5.974  16.342  0.3753 -0.0222  0.2212
24980W        W41164   7.340  17.016  15.596 -0.2889 -0.1705 -0.1121
24981W        W41165  17.069  15.094   4.249 -0.0587  0.1016  0.0288
24982W        W41166   1.134  17.592   6.113  0.1262  0.0319  0.0862
24983W        W41167   7.516   8.414  14.095 -0.1833  0.1219  0.0847
24984W        W41168   5.109  14.931  14.248 -0.0209 -0.4102  0.2052
24985W        W41169  12.672   9.493   1.006  0.1327  0.1697 -0.0547
24986W        W41170  13.458   6.025  16.118  0.2024  0.0290 -0.3134
24987W        W41171   3.110   9.688   0.797  0.1355 -0.1935  0.0254
24988W        W41172  11.706  16.238  11.520 -0.4638  0.2159  0.2073
24989W        W41173   2.285  11.598   0.594 -0.0404  0.0688  0.2472
24990W        W41174   5.708  17.129  16.675  0.0342 -0.1137 -0.1001
24991W        W41175   0.638   2.701  13.035  0.0112 -0.1268 -0.3194
24992W        W41176   7.923  11.485   2.799 -0.0704 -0.0911  0.1078
24993W        W41177   6.077   7.027   6.042 -0.0838 -0.0986  0.2498
24994W        W41178  15.517   7.740  12.593 -0.1316 -0.0572 -0.2742
24995W        W41179  10.098  15.451  14.173  0.0702  0.1130 -0.1793
24996W        W41180  17.390   6.171   9.830  0.0945  0.0907  0.2937
24997W        W41181  11.341  15.002   0.608 -0.0677  0.0852 -0.1182
24998W        W41182  11.151  13.926   2.760  0.4358  0.0131  0.1089
24999W        W41183  10.963   6.720   0.712  0.2401  0.1024  0.1684
25000W        W41184   3.553  14.645  13.522 -0.2528  0.2545  0.2676
25001W        W41185   4.555  12.931  13.699 -0.1933 -0.0964 -0.1756
25002W        W41186   9.718   1.519  14.884 -0.2579  0.0049  0.0108
25003W        W41187   7.761   8.454  13.403  0.2802  0.2223  0.3824
25004W        W41188   5.073   3.375  15.694 -0.1121 -0.0156 -0.0627
25005W        W41189   3.981   3.799  12.551 -0.1014  0.2808  0.2206
25006W        W41190  13.799  15.317   5.992  0.2346 -0.0804  0.1348
25007W        W41191  11.678  11.775  14.004 -0.2984  0.2127  0.1358
25008W        W41192   0.052   7.187  14.070  0.2092  0.0779 -0.1548
25009W        W41193   1.995   9.756  12.401  0.0571 -0.0693  0.0333
25010W        W41194   9.756   8.776  13.893 -0.2883  0.3425 -0.1427
25011W        W41195  16.482   1.597   2.768 -0.0320  0.2075  0.1015
25012W        W41196   3.160   9.487  15.397  0.0878 -0.1322  0.0222
25013W        W41197   9.808   6.253   1.239  0.2382 -0.0532 -0.1266
25014W        W41198   1.446  13.080  11.741 -0.3983 -0.2957 -0.2081
25015W        W41199   0.911   1.688  12.268  0.0923 -0.0068 -0.2815
25016W        W41200   8.401  14.936   4.272  0.0130  0.1565 -0.2309
25017W        W41201   2.458   4.731   1.590 -0.0348  0.3091 -0.1751
25018W        W41202   0.497  10.402  13.259  0.2376  0.0266  0.0559
25019W        W41203   9.201   5.388   0.605  0.2806 -0.0476  0.1390
25020W        W41204   7.762   4.154   3.877 -0.2048  0.0532  0.1053
25021W        W41205  15.341  10.024   0.941  0.1060 -0.0426 -0.1944
25022W        W41206  10.090  13.265   5.000 -0.3148 -0.1806  0.1492
25023W        W41207   4.366  15.739   2.229  0.2379 -0.0193 -0.1746
25024W        W41208   2.762  17.670   1.247 -0.0544 -0.1007  0.0649
25025W        W41209   1.769  12.351  14.077  0.0704 -0.1133  0.1524
25026W        W41210  14.813  10.656  14.211 -0.0097  0.1472  0.4126
25027W        W41211  15.778   5.100  12.736  0.0159  0.3574 -0.3699
25028W        W41212   3.894   3.080   3.018  0.1844  0.2703 -0.2640
25029W        W41213  11.165   1.556  12.461 -0.0228  0.1490  0.2381
25030W        W41214  10.547   5.505   1.666  0.2381 -0.0642  0.0356
25031W        W41215  16.956  11.656  13.694  0.0289  0.1279  0.1853
25032W        W41216   4.959  17.723  12.889  0.4675 -0.0259  0.0107
25033W        W41217  14.148   9.297  11.605 -0.0210  0.0253 -0.1003
25034W        W41218   3.544   0.006   3.080  0.0705 -0.0025 -0.1536
25035W        W41219   2.261   6.976  12.224  0.3412 -0.1683 -0.2335
25036W        W41220  12.928   7.669   5.116 -0.1636  0.1702  0.0920
25037W        W41221   7.537  15.205   2.087  0.0780 -0.1686  0.1477
25038W        W41222  10.602  10.916   5.086  0.0589  0.6922 -0.1556
25039W        W41223   0.937   6.075  11.748 -0.0694  0.3609 -0.0397
25040W        W41224   0.916   3.804  11.358  0.1956  0.1013  0.2838
25041W        W41225   7.257   8.886   2.119  0.0768 -0.3257  0.1566
25042W        W41226  12.274  17.436  12.489  0.0478 -0.0318 -0.1270
25043W        W41227   1.822   5.620  16.164  0.1450  0.2361  0.0019
25044W        W41228   4.160   7.191   4.091 -0.1049 -0.0896 -0.1356
25045W        W41229  15.651   9.743  12.890 -0.0580 -0.0093  0.0273
25046W        W41230  13.279  11.945  12.113 -0.0856 -0.0778  0.0387
25047W        W41231  13.064  11.305  12.172  0.2374  0.0667 -0.0157
25048W        W41232   0.710   5.752  12.937 -0.2705 -0.4597 -0.0355
25049W        W41233  15.520   0.472  16.390  0.0658 -0.3052 -0.0013
25050W        W41234  15.302   3.206  12.997  0.1326  0.4635  0.2104
25051W        W41235   4.202  12.559   5.745  0.0749  0.0378 -0.1333
25052W        W41236   4.974   9.058  14.781  0.2815  0.1039 -0.0242
25053W        W41237  16.449  10.594   0.610  0.3063 -0.0718 -0.0626
25054W        W41238  18.127   4.124   4.863 -0.0804 -0.1901 -0.0987
25055W        W41239   7.845  15.049  10.893  0.1409 -0.0245  0.0840
25056W        W41240   9.720  15.029   4.776  0.0069  0.3653 -0.0333
25057W        W41241  18.128  12.115  14.519  0.3259  0.1143 -0.0704
25058W        W41242   5.390   7.578   2.786 -0.3470 -0.2354 -0.1150
25059W        W41243   0.453  14.703  11.746  0.1380 -0.1122 -0.1868
25060W        W41244   8.537   7.037  14.829  0.3187  0.0945  0.2360
25061W        W41245   9.009   5.514   3.112 -0.0246 -0.2174 -0.0423
25062W        W41246   8.882  11.686  14.669 -0.0719  0.0479 -0.3458
25063W        W41247  14.361  10.624   2.035  0.1581  0.0107  0.0421
25064W        W41248  11.228   5.865  15.235 -0.4724  0.1523 -0.1559
25065W        W41249  16.947   6.499   3.559  0.1781  0.0692 -0.0199
25066W        W41250   3.159  16.889   4.550  0.1473  0.1018 -0.0808
25067W        W41251   2.310  10.376  11.984 -0.0486 -0.0752  0.1389
25068W        W41252  17.522   7.333  12.377 -0.3062  0.1399 -0.0471
25069W        W41253  15.938   6.650  13.884  0.0351 -0.0293  0.5986
25070W        W41254  15.245   1.175  14.159 -0.1085  0.0031 -0.0664
25071W        W41255  11.724   2.663  14.202  0.0954  0.0921 -0.0490
25072W        W41256  13.830   8.506   1.079  0.3799  0.2457 -0.1299
25073W        W41257   8.050  17.505   6.202 -0.0740 -0.4642 -0.0368
25074W        W41258   8.370  15.842   1.010 -0.0572 -0.4034 -0.0241
25075W        W41259   5.734  12.522  12.213 -0.1010 -0.0274  0.0434
25076W        W41260   4.174  16.180   0.160 -0.1525 -0.1282  0.0345
25077W        W41261   0.691   5.266  12.916  0.1541 -0.1073 -0.0502
25078W        W41262  10.120   3.721   4.890  0.1659 -0.2678  0.1149
25079W        W41263   5.581   6.645  12.216 -0.0251  0.4340 -0.2258
25080W        W41264  17.015   4.460  15.841 -0.0630 -0.3792  0.2235
25081W        W41265  14.486  17.231  15.500 -0.1749  0.4080 -0.1667
25082W        W41266   7.509  11.137   0.048  0.1427 -0.0572 -0.1910
25083W        W41267  12.664   4.248  14.754  0.0506 -0.3019 -0.2304
25084W        W41268   8.447  16.505  14.091 -0.0882  0.1809  0.0683
25085W        W41269  17.611   9.626   2.687 -0.0007 -0.1688 -0.2367
25086W        W41270  13.043   1.275  14.595 -0.0380  0.1457  0.0504
25087W        W41271   2.631   1.093   0.398 -0.2671 -0.0256 -0.0487
25088W        W41272   7.115  16.657   2.047  0.0401  0.0435 -0.0821
25089W        W41273  17.786   4.500   1.575  0.0698 -0.2120  0.0869
25090W        W41274  12.345   2.028   1.553 -0.2524 -0.3160  0.1706
25091W        W41275   8.740   0.808   2.831 -0.3273  0.2079  0.0765
25092W        W41276  11.530   4.176   5.883 -0.1675 -0.3658 -0.0670
25093W        W41277  14.086   1.161  13.457 -0.2239  0.1231 -0.1101
25094W        W41278   7.692   1.179   4.656  0.1381 -0.2020 -0.1087
25095W        W41279  13.054  15.741  13.901  0.1042  0.1318 -0.1959
25096W        W41280   9.680   1.023   4.002 -0.2466  0.1209 -0.1076
25097W        W41281  16.604  16.129   5.412 -0.0817  0.0156  0.1166
25098W        W41282   6.760   9.869  15.790 -0.0583  0.1724  0.1313
25099W        W41283  14.020  16.513   1.533  0.1298 -0.0077  0.3793
25100W        W41284   2.571  15.695   1.545 -0.1236  0.0456  0.2220
25101W        W41285  14.650  15.144   4.708  0.2086  0.4878 -0.1863
25102W        W41286  14.217  15.924   2.659  0.2133 -0.3305 -0.0371
25103W        W41287  13.680  13.476  13.168  0.3633 -0.0825  0.1826
25104W        W41288  17.787  16.487   2.667 -0.0074 -0.0237 -0.3783
25105W        W41289   1.851   4.622  11.622  0.0278 -0.0010  0.1998
25106W        W41290   2.089   1.987   4.805  0.0067  0.0672 -0.0535
25107W        W41291   8.488  15.124  15.669  0.0996 -0.1163 -0.2440
25108W        W41292  11.861  15.919  15.310 -0.1987 -0.3368  0.0529
25109W        W41293  15.738  11.215  16.139  0.0364 -0.1163  0.1293
25110W        W41294  13.945  15.027  15.982  0.1278 -0.2538 -0.0051
25111W        W41295   6.608  16.727  15.990 -0.1485 -0.0926 -0.0191
25112W        W41296   3.656   1.007   3.143 -0.0276 -0.0499  0.0121
25113W        W41297   3.205   6.695   3.533  0.2043 -0.0851 -0.2917
25114W        W41298  11.569  13.019  14.755  0.1336 -0.2757  0.0711
25115W        W41299  14.516   8.042  12.158 -0.1789 -0.3197 -0.1885
25116W        W41300   8.387   1.828  14.943 -0.0170  0.3998 -0.2163
25117W        W41301   0.318   8.539   3.879 -0.0983  0.2498  0.2540
25118W        W41302  15.895  10.621  16.446  0.0971  0.1990 -0.2137
25119W        W41303   0.382   0.726  14.242  0.0701  0.1212 -0.0554
25120W        W41304  15.730  16.457   5.553 -0.1510  0.2676 -0.2269
25121W        W41305   5.212   5.883   3.647  0.1936 -0.2541 -0.0239
25122W        W41306  12.569  14.579  15.050 -0.3890  0.1860  0.1217
25123W        W41307   4.611  14.894  12.875  0.1351 -0.0755 -0.1919
25124W        W41308   0.992   4.716  16.388 -0.1901  0.0455 -0.1049
25125W        W41309  10.665  13.748   3.085  0.0457 -0.2690 -0.0631
25126W        W41310  15.412  17.949  10.563  0.0491 -0.2687  0.3338
25127W        W41311  17.386  15.129  13.780 -0.2668 -0.0853  0.1530
25128W        W41312   3.933  14.208  16.508  0.2291  0.1008 -0.0647
25129W        W41313  17.753   1.673  11.944  0.1030  0.1887  0.3583
25130W        W41314  13.820   3.128  16.457 -0.3008 -0.1381  0.0245
25131W        W41315   6.032   5.494  14.968  0.0889 -0.1395  0.3248
25132W        W41316  16.021  17.650   4.972 -0.1259  0.1145  0.1023
25133W        W41317   2.431  15.024   2.281  0.1194 -0.1401  0.0320
25134W        W41318   2.834  12.232   5.499  0.1843  0.0491  0.2027
25135W        W41319   4.118   7.343   2.322  0.2698 -0.1329 -0.1325
25136W        W41320   4.142  13.283   3.346 -0.0316  0.1812  0.0087
25137W        W41321  10.872  14.126   3.750 -0.2587  0.0277 -0.0884
25138W        W41322  10.078  15.533   5.005 -0.0066  0.0982 -0.3542
25139W        W41323  17.291  17.071  12.756  0.4175  0.0631  0.1160
25140W        W41324   9.845   4.008  12.287 -0.0818 -0.2188 -0.0179
25141W        W41325   6.039  12.615   5.394 -0.0269 -0.2222 -0.1100
25142W        W41326  13.347  15.859  16.222 -0.2910 -0.0716  0.2285
25143W        W41327   4.392  17.052  13.957 -0.0705 -0.1472 -0.0934
25144W        W41328  13.682   4.490  16.140  0.0462 -0.1245 -0.2581
25145W        W41329  17.733   6.454  15.022  0.0567 -0.4892 -0.2524
25146W        W41330   6.866  14.068   2.998 -0.0314 -0.2511 -0.1425
25147W        W41331   2.700  13.997  16.304 -0.2477 -0.0043 -0.0329
25148W        W41332  17.237   3.861   2.679 -0.2235 -0.0806  0.0045
25149W        W41333  15.673   8.268  14.112 -0.1079 -0.1489 -0.2898
25150W        W41334   1.598   2.262  16.070  0.4171 -0.3951 -0.0523
25151W        W41335   3.139   4.608   3.532 -0.5060 -0.0664  0.0111
25152W        W41336   1.647  11.390  15.471  0.1090  0.0818  0.1006
25153W        W41337  13.296  11.835   1.615  0.1305  0.1225 -0.0839
25154W        W41338   5.253  13.026  14.390  0.1740 -0.1024 -0.2145
25155W        W41339   0.230  12.094   0.427  0.0115 -0.1884  0.1400
25156W        W41340  13.038   2.039   2.251 -0.3006 -0.3287  0.1623
25157W        W41341  13.723   9.361  13.353  0.0379  0.0949 -0.3677
25158W        W41342   7.516   8.353   0.136  0.0572  0.0115  0.1628
25159W        W41343  10.974   0.045   2.732  0.0040 -0.1040  0.2407
25160W        W41344   3.214   4.158   2.670  0.2752 -0.1103 -0.0327
25161W        W41345   8.764  12.968  13.104 -0.1627 -0.2045  0.1687
25162W        W41346   4.720   2.050  16.494  0.2357  0.1055  0.1132
25163W        W41347   3.610  16.287   1.118  0.0743  0.1167  0.0017
25164W        W41348  11.721   5.991  12.280 -0.0159 -0.0992  0.0764
25165W        W41349  14.454   6.324  12.541  0.1377  0.0901  0.0822
25166W        W41350  12.473   0.145  15.772  0.1189 -0.1238  0.0790
25167W        W41351  13.622  15.559   1.478  0.1278  0.0491 -0.0879
25168W        W41352   1.319   5.640   2.296  0.0864 -0.1139 -0.0646
25169W        W41353  10.839  14.951   1.308 -0.0846  0.1533 -0.4045
25170W        W41354   3.611  15.571   1.501 -0.3597  0.0558 -0.1106
25171W        W41355  18.133  16.743  13.724  0.0689  0.1773  0.0758
25172W        W41356   3.735   9.500  15.568 -0.1917 -0.1397  0.2818
25173W        W41357   6.884   6.594  14.094  0.1637  0.0498  0.2501
25174W        W41358   5.556  14.193   0.609  0.1884  0.1420  0.2046
25175W        W41359   7.755   1.153   5.650 -0.0665  0.1671 -0.3179
25176W        W41360   8.767   2.168   1.947  0.1644 -0.0029  0.1157
25177W        W41361   2.036   9.231   2.681  0.0172 -0.1582 -0.0712
25178W        W41362   1.926   9.176  14.944  0.3788 -0.0556 -0.1689
25179W        W41363  12.075   3.737   1.104  0.0285  0.2945 -0.0773
25180W        W41364   0.086   0.205   2.547  0.1836 -0.0985  0.0386
25181W        W41365   5.210  15.370  16.047 -0.0470  0.0042  0.1219
25182W        W41366   3.665   5.292  16.311 -0.2684  0.1971 -0.1459
25183W        W41367  12.412   5.622  13.211 -0.0447  0.0561  0.2813
25184W        W41368  13.547  11.729   2.440  0.0274  0.2065 -0.2665
25185W        W41369  17.223   9.481   2.321  0.1296  0.0540 -0.1834
25186W        W41370  17.844   4.543   4.616  0.3464  0.0536 -0.1125
25187W        W41371  12.377   5.742  11.450  0.1885 -0.1046  0.0790
25188W        W41372  14.551   2.160   1.249 -0.0190  0.1046  0.1730
25189W        W41373  16.898  15.365   3.474 -0.1778  0.0016 -0.1902
25190W        W41374  16.957  12.890   2.191 -0.2363  0.0051 -0.0769
25191W        W41375  17.866  10.528  13.784  0.0665 -0.3821  0.2941
25192W        W41376  17.606  10.659  12.209 -0.2039 -0.2441 -0.3667
25193W        W41377  17.974   3.932  15.208  0.1582  0.0024  0.0503
25194W        W41378   5.496   8.611  12.771 -0.0992  0.0442 -0.2995
25195W        W41379  12.046   3.610   5.098  0.2594  0.0659 -0.1060
25196W        W41380  12.917   1.783  13.192 -0.3276  0.1806  0.1170
25197W        W41381   0.872  17.510   5.155  0.1467  0.2197 -0.1080
25198W        W41382  12.121  11.947   1.420  0.1718 -0.0358 -0.1685
25199W        W41383   7.384   9.415  13.289 -0.0703 -0.0595  0.1029
25200W        W41384  16.557  13.499   5.831  0.0219  0.0445  0.0705
25201W        W41385   0.733   3.033   0.725  0.3407 -0.0547 -0.0503
25202W        W41386   8.127  12.393   0.756 -0.3370  0.2149 -0.2312
25203W        W41387   0.994  12.508   5.565 -0.0158 -0.1555 -0.2572
25204W        W41388  12.160  14.981  14.966 -0.1105  0.1182 -0.0181
25205W        W41389  17.518   2.383  15.561 -0.2192 -0.0997  0.1105
25206W        W41390   5.349  13.025  14.938 -0.1419  0.1997 -0.1483
25207W        W41391   2.880  12.988  16.202  0.0619  0.0102 -0.0793
25208W        W41392  10.782  17.559   5.046  0.2858 -0.0291  0.2216
25209W        W41393   3.951   7.996   2.331  0.1072 -0.1116 -0.0376
25210W        W41394  14.184  10.635   4.988  0.1081  0.1096  0.1129
25211W        W41395   9.345   4.506  15.690  0.0397 -0.0143  0.5964
25212W        W41396  15.726  11.477  13.135  0.0637 -0.0206 -0.0093
25213W        W41397  14.119   4.575   1.016  0.0983 -0.1297  0.0968
25214W        W41398  15.891  17.329   0.649  0.1859  0.1011 -0.1301
25215W        W41399  17.077   7.760  16.137  0.2832 -0.0195 -0.0300
25216W        W41400   9.919   7.142   1.377 -0.0348  0.1690  0.0132
25217W        W41401  15.292  15.777   1.954 -0.4202  0.1022 -0.0385
25218W        W41402   5.512   7.047  15.432 -0.0079 -0.2586  0.0584
25219W        W41403  11.437   0.232   1.860  0.0794 -0.1712 -0.1039
25220W        W41404   7.895  17.200   2.121 -0.1244 -0.1242  0.3264
25221W        W41405   3.248   5.781  13.687  0.0161 -0.3964  0.1677
25222W        W41406   8.603   7.750  12.905 -0.0111  0.2117 -0.0714
25223W        W41407  11.768   0.821   4.428  0.0857 -0.2678  0.2698
25224W        W41408  11.603   2.870  11.961 -0.3031 -0.0351  0.1832
25225W        W41409  16.479  13.426   3.444 -0.0269  0.0857 -0.0034
25226W        W41410   4.131  16.937  12.164  0.2874 -0.0304  0.1515
25227W        W41411   1.849  17.245   3.330 -0.0246 -0.1537 -0.1276
25228W        W41412  10.896   6.617  14.701 -0.2555  0.0042 -0.2022
25229W        W41413   8.053   5.070  11.905 -0.0347 -0.4826  0.5601
25230W        W41414   0.643  14.208  16.241 -0.3689 -0.4660 -0.1617
25231W        W41415   2.396   3.102   4.954  0.0446 -0.0237 -0.1567
25232W        W41416   6.596   9.512   4.084 -0.2087  0.1337  0.1026
25233W        W41417  13.067  11.653  16.362 -0.0585 -0.1852 -0.3065
25234W        W41418   7.261   9.629  11.967 -0.1751  0.0572 -0.2299
25235W        W41419   6.855   5.779  14.553  0.0311 -0.0618 -0.1205
25236W        W41420   2.364   1.920  13.856 -0.0499  0.1251 -0.2629
25237W        W41421  12.211   1.979   0.097  0.2604  0.1115 -0.3143
25238W        W41422   2.878   1.726  15.771 -0.2984  0.2759 -0.2963
25239W        W41423   2.311   9.811   4.983 -0.3749 -0.0476  0.0390
25240W        W41424   3.126   4.146  16.449 -0.1215 -0.1462 -0.1951
25241W        W41425   8.799   4.511   2.884  0.2371 -0.0922  0.2124
25242W        W41426   5.139   1.442   4.105  0.1007 -0.0829 -0.1439
25243W        W41427   3.122   7.147   0.745 -0.3532 -0.2433  0.0041
25244W        W41428   4.758  14.088  12.235  0.0332  0.2967  0.2193
25245W        W41429  12.366   2.578  13.116  0.1873  0.0339  0.0176
25246W        W41430   1.433   7.220  12.446  0.0107 -0.1694  0.2848
25247W        W41431   1.518   5.930  11.138  0.2453  0.2068 -0.1033
25248W        W41432  15.997  12.221  14.677 -0.0712 -0.0465 -0.2274
25249W        W41433  11.157   4.362  11.756  0.0927 -0.6383 -0.4028
25250W        W41434   1.656  11.676  15.906 -0.0519  0.1281  0.0979
25251W        W41435  17.910   2.054   1.836  0.1674  0.2933  0.3630
25252W        W41436  13.613   1.621  14.512 -0.1339 -0.0721  0.1122
25253W        W41437   7.365  16.880   0.679  0.1531  0.1833  0.1207
25254W        W41438  13.203   6.600  12.914 -0.2119  0.0893  0.0025
25255W        W41439   8.307  11.279  12.401 -0.0350 -0.0889 -0.1051
25256W        W41440   5.949   7.515  15.700 -0.2812 -0.2113 -0.0639
25257W        W41441   6.667  14.660  14.806  0.0351  0.2439 -0.0363
25258W        W41442   4.973   9.021  13.363  0.3571 -0.4261  0.3020
25259W        W41443   7.533   3.691   3.574 -0.1705  0.1724 -0.0095
25260W        W41444  10.796   6.088  13.854  0.0023  0.2169 -0.2610
25261W        W41445  16.234   6.847   4.565 -0.0258 -0.0116  0.0625
25262W        W41446   2.269   2.948   0.724  0.1980  0.1277 -0.0852
25263W        W41447   1.566   9.736   3.402  0.0291  0.0963 -0.1248
25264W        W41448  14.874   3.684  11.189 -0.2317 -0.1376 -0.0979
25265W        W41449  14.082  11.901   1.577 -0.1045  0.1475  0.1105
25266W        W41450   8.520  16.258  14.510  0.3075 -0.0444  0.1569
25267W        W41451   0.732  12.430   2.174  0.1875 -0.1584 -0.5173
25268W        W41452   5.335   2.782  15.256 -0.1633  0.0579 -0.0175
25269W        W41453   8.552   7.640   3.248  0.2586 -0.2103  0.0500
25270W        W41454  16.546   7.048   0.121  0.2351 -0.1419 -0.2242
25271W        W41455   1.395  18.116   3.330  0.1811  0.0683 -0.3238
25272W        W41456   8.295  15.353  13.272  0.2788 -0.2205  0.0237
25273W        W41457   2.402  17.496   5.241  0.0408 -0.2781  0.0441
25274W        W41458  14.957   4.095  10.951  0.2260  0.0482  0.2762
25275W        W41459   7.061   2.430   2.654  0.0012 -0.0570 -0.0734
25276W        W41460  12.380  17.816  15.976  0.2626 -0.2891  0.0104
25277W        W41461   8.039   7.774  12.773 -0.5465  0.1636 -0.0346
25278W        W41462   0.208   7.139   2.069 -0.2063 -0.0624 -0.2566
25279W        W41463  13.276  10.125  16.024 -0.0547  0.3436  0.2491
25280W        W41464  11.216  15.938  12.887  0.0720  0.2305  0.2182
25281W        W41465   3.198  16.733  13.212  0.1363  0.1981 -0.1795
25282W        W41466   8.994   9.694   4.275  0.0663  0.1537 -0.0757
25283W        W41467   3.673   3.068  16.201  0.2127 -0.0861 -0.2325
25284W        W41468   1.932   5.008   2.744  0.5780 -0.1501  0.0371
25285W        W41469   4.052  13.096   1.293 -0.2791  0.1685  0.0081
25286W        W41470   4.728  16.249   5.174  0.0746 -0.0942  0.0294
25287W        W41471   4.749   2.519  13.441 -0.0459 -0.0379  0.3118
25288W        W41472  17.101  15.202   3.022 -0.1951  0.0052 -0.1112
25289W        W41473   4.364  11.990   1.752 -0.0522  0.2471  0.1644
25290W        W41474  16.212   1.019  15.188  0.0268  0.0384 -0.1221
25291W        W41475   8.536   4.873   4.812 -0.0219  0.1645  0.1628
25292W        W41476   0.396   0.841  16.131  0.2377  0.0346 -0.4004
25293W        W41477   6.626   4.501  13.558  0.1198  0.1469  0.1353
25294W        W41478   8.527   0.352  14.138 -0.0861  0.0408  0.0139
25295W        W41479  16.565  13.152   3.884  0.0044 -0.0135  0.0816
25296W        W41480  11.077   3.233  14.048  0.0972 -0.0664  0.0566
25297W        W41481   5.356   7.958   4.426 -0.1733  0.1191  0.1358
25298W        W41482  12.147  16.364  16.359  0.1107 -0.1740  0.1316
25299W        W41483   3.143   2.587   3.158  0.1417  0.1933  0.1765
25300W        W41484   7.951  12.027  14.898 -0.1814 -0.0903 -0.2463
25301W        W41485  14.696  11.097   0.314  0.0715  0.0751 -0.0799
25302W        W41486  17.713   3.700   3.026  0.1040 -0.3228  0.3686
25303W        W41487   5.337  10.092  15.214 -0.3574  0.0350  0.1973
25304W        W41488   8.705  16.747   5.247  0.0059  0.0702  0.0647
25305W        W41489   6.049  15.250  12.513  0.0617 -0.1542  0.3880
25306W        W41490  14.952   5.243   1.179 -0.0108  0.1031 -0.3298
25307W        W41491   9.529   4.373   0.775 -0.0536  0.3367  0.0208
25308W        W41492  12.857  14.686  16.297 -0.3818  0.2058 -0.1213
25309W        W41493   7.686  16.218  12.401  0.0237 -0.4061  0.0644
25310W        W41494  10.296  16.627  16.524  0.2364 -0.0861  0.0347
25311W        W41495   6.826   4.900  14.740 -0.1289 -0.0918  0.1187
25312W        W41496   0.001  17.077  14.764 -0.2809 -0.1443 -0.0895
25313W        W41497  12.408  11.508   2.398 -0.2373 -0.0272 -0.3817
25314W        W41498   4.406  17.747   5.794  0.1285  0.0622 -0.0768
25315W        W41499   4.568   8.030  16.380  0.1499  0.0689  0.1205
25316W        W41500   6.099   0.467   2.865  0.1034 -0.1213  0.1541
25317W        W41501  16.232   8.552   1.679 -0.5006  0.1530 -0.2650
25318W        W41502   2.725   9.590   4.044  0.4526 -0.0990 -0.0259
25319W        W41503  10.357   6.482   2.421 -0.3297  0.0348  0.1914
25320W        W41504   3.004  11.814   6.231 -0.0310 -0.0750  0.2290
25321W        W41505   0.085   7.730   1.440 -0.1996  0.0264  0.4057
25322W        W41506   8.378   2.994   1.094 -0.0940  0.3184 -0.0756
25323W        W41507  12.274   2.732   4.031 -0.1725  0.3386  0.2837
25324W        W41508   0.355  14.291  12.982  0.0521  0.0053 -0.0476
25325W        W41509  15.216   0.809   0.423  0.1792  0.2429 -0.2144
25326W        W41510   2.105   4.438  15.841 -0.0249  0.0050  0.0348
25327W        W41511   3.745  17.436  15.981  0.1620  0.0225  0.0308
25328W        W41512   9.113   7.721  11.469 -0.1423  0.0210 -0.0525
25329W        W41513   6.011  17.535  16.508 -0.1297  0.1804  0.1030
25330W        W41514   3.231   0.572  14.402 -0.2553 -0.0376  0.0515
25331W        W41515   4.213   8.477   1.617 -0.0590 -0.4587 -0.2690
25332W        W41516  11.694   5.008  11.485  0.0550 -0.2413  0.0998
25333W        W41517   1.104  14.194   1.775  0.2203  0.0690  0.0986
25334W        W41518  12.729   1.579  11.447  0.1105  0.2190 -0.1840
25335W        W41519   2.146  17.950   5.176  0.0527 -0.0177  0.1216
25336W        W41520   1.444  17.785  14.251 -0.0850  0.1475  0.1619
25337W        W41521   1.755   2.456  16.608 -0.0909 -0.0738  0.0618
25338W        W41522  14.679  17.930  11.811 -0.1031  0.1295  0.2089
25339W        W41523   9.251  10.603   4.980  0.1086  0.4401 -0.1522
25340W        W41524   5.350  17.087  11.650  0.2043 -0.1732 -0.0220
25341W        W41525  13.229  14.153   2.971  0.0585  0.1693  0.0365
25342W        W41526   9.207  13.151   4.978 -0.0741  0.0317  0.1858
25343W        W41527   9.705   3.167   2.448 -0.1847 -0.0524 -0.0398
25344W        W41528  16.454   3.929   4.407  0.0465 -0.5141 -0.2951
25345W        W41529  12.313  11.583   0.003  0.0420 -0.1221 -0.2094
25346W        W41530  10.359   2.504   5.923 -0.0034 -0.0764 -0.1306
25347W        W41531  14.022   3.738  10.517 -0.0544 -0.1191 -0.2657
25348W        W41532   3.275   4.525  12.876 -0.2827  0.1077 -0.2851
25349W        W41533  10.220   3.011  15.052 -0.2246  0.2656  0.1213
25350W        W41534   0.185  11.439   3.277  0.1839 -0.0205 -0.0770
25351W        W41535  11.227  17.100   1.499  0.1948  0.1762 -0.0980
25352W        W41536   6.219  17.097  14.176 -0.0165  0.0860 -0.1579
25353W        W41537   2.749  17.870   0.143  0.0820  0.4542  0.1153
25354W        W41538  14.522  10.950  13.726 -0.0318  0.1494 -0.2442
25355W        W41539  14.718  12.872   5.935  0.1760  0.0519 -0.1196
25356W        W41540  10.971   8.484  13.290 -0.0207 -0.1548 -0.1547
25357W        W41541   0.817   0.318  11.480 -0.0188  0.1509  0.0143
25358W        W41542   2.431   9.026  13.217  0.2508  0.2163 -0.0190
25359W        W41543  12.327   2.668   0.198  0.0346  0.3117 -0.1114
25360W        W41544   0.345   6.194  14.002 -0.0743  0.1125 -0.0330
25361W        W41545   8.911  16.717  14.176  0.3792 -0.0054  0.2290
25362W        W41546  16.012  14.345   5.438  0.1398  0.1299  0.0077
25363W        W41547   6.216   8.989  16.226 -0.0853 -0.0906 -0.0431
25364W        W41548   6.872  16.060  12.074 -0.0524 -0.0995  0.0431
25365W        W41549  15.780   3.261  10.735 -0.4126  0.2361  0.0655
25366W        W41550   8.003  12.952  11.884 -0.0451  0.0479  0.2339
25367W        W41551   0.428   6.283   5.166 -0.2152 -0.1784  0.1487
25368W        W41552  11.128  12.453   1.041 -0.0614  0.0271  0.0322
25369W        W41553   0.193  10.719   5.930  0.1766  0.2765  0.0735
25370W        W41554  10.948   1.637  13.878  0.0602  0.2481 -0.2658
25371W        W41555   4.671  15.334  14.385 -0.3720 -0.3282  0.3821
25372W        W41556  15.594  13.608   3.674  0.0014 -0.4444 -0.0441
25373W        W41557   3.621   4.001   1.878 -0.2218  0.1808  0.0440
25374W        W41558  12.365  10.691  14.147 -0.3019  0.2625  0.1839
25375W        W41559   8.478  10.107   2.072  0.0687  0.2638 -0.0015
25376W        W41560   5.057   7.993  13.151 -0.1214  0.0338 -0.1541
25377W        W41561   7.573  12.938   2.469  0.1322 -0.0854  0.0526
25378W        W41562   2.342   8.155  14.270 -0.0677 -0.1126 -0.0269
25379W        W41563   0.824  14.756   5.124 -0.0452 -0.0462  0.3068
25380W        W41564   8.919  10.420   2.203 -0.1352  0.0662 -0.0849
25381W        W41565   7.829   5.750   0.718  0.1488  0.3130 -0.1076
25382W        W41566   7.653  11.324  14.546  0.1092  0.0318  0.0947
25383W        W41567  14.416   6.745  15.305  0.1905  0.6829  0.1988
25384W        W41568  16.217  17.688   4.460  0.0251  0.1859 -0.0168
25385W        W41569  17.995   4.271  12.740  0.1995 -0.3163  0.1862
25386W        W41570   8.580  15.751   5.644 -0.0022 -0.1179  0.0648
25387W        W41571  15.480   9.775   3.967 -0.2710  0.1694 -0.1122
25388W        W41572   0.570  11.275  12.742 -0.0222 -0.3341  0.1561
25389W        W41573   6.710  17.145  14.987  0.0743  0.1677 -0.0963
25390W        W41574   8.474  16.767  16.515 -0.0438 -0.1784  0.1682
25391W        W41575   2.795  16.753   4.187 -0.2255  0.0267  0.1345
25392W        W41576  17.142   4.940  15.663 -0.0024 -0.1757 -0.0195
25393W        W41577  10.470  17.551  13.366  0.0571  0.0964  0.0347
25394W        W41578  16.724   5.673   0.597  0.0729 -0.0307  0.1718
25395W        W41579  12.291   2.662  13.582  0.0155 -0.0293  0.0830
25396W        W41580   2.044   2.684   4.984 -0.0637  0.2066 -0.0276
25397W        W41581   2.993   6.702   0.824 -0.0898  0.0238 -0.2049
25398W        W41582  10.406  14.731   2.707 -0.1086 -0.4937 -0.0550
25399W        W41583   9.238   3.342   0.404  0.2320 -0.0955 -0.1530
25400W        W41584   9.773  13.954   2.900 -0.3203 -0.3701  0.1768
25401W        W41585   1.921  16.513   3.834  0.0169  0.2465  0.2392
25402W        W41586  11.455  12.868   5.660 -0.1128 -0.0395 -0.0072
25403W        W41587   5.082  12.079  16.646 -0.1049  0.1961 -0.2032
25404W        W41588   5.167  12.607   6.861  0.2665  0.1894 -0.0244
25405W        W41589  13.258  11.538  14.721 -0.1453  0.2278  0.0316
25406W        W41590  14.170  10.925   0.932 -0.0882  0.2024 -0.1494
25407W        W41591   3.647   7.681   3.625  0.0112  0.1202  0.1018
25408W        W41592   8.935  10.917   2.429  0.3128 -0.4917 -0.1289
25409W        W41593  12.619  13.235   0.692 -0.2420 -0.1359 -0.1970
25410W        W41594  10.029   1.816   4.244 -0.0884  0.2407  0.1939
25411W        W41595   7.894   1.443   1.834 -0.0597 -0.4109 -0.3659
25412W        W41596   7.731  17.429  13.509  0.0728 -0.1497 -0.2719
25413W        W41597   5.888  10.924  14.603  0.0515 -0.2534 -0.1757
25414W        W41598  11.245  10.283   0.413 -0.1528  0.2885 -0.0153
25415W        W41599   8.433  18.145  15.913 -0.1270 -0.0572 -0.0731
25416W        W41600   5.933  13.418   2.787 -0.1303  0.0431 -0.0636
25417W        W41601   9.789  16.286  14.062 -0.1965 -0.0714 -0.1177
25418W        W41602   4.357   3.658  15.738 -0.1465  0.0659 -0.1249
25419W        W41603  14.988   2.033   2.875 -0.2730 -0.0097  0.0886
25420W        W41604   6.298   2.607   1.401 -0.1846  0.0239  0.0542
25421W        W41605   5.661  11.107  16.316  0.0135 -0.0212 -0.0268
25422W        W41606  10.375   5.230  15.941 -0.0223  0.2745  0.0644
25423W        W41607   7.906   7.980   0.107  0.0474  0.0624  0.2431
25424W        W41608  13.316   5.731  15.047 -0.0887 -0.1199 -0.0318
25425W        W41609   5.882  12.568  15.480  0.0754 -0.2276  0.2491
25426W        W41610   8.626  13.493   4.500  0.0895 -0.1072 -0.0828
25427W        W41611  11.919  15.930   6.121 -0.0624 -0.0521  0.2230
25428W        W41612  10.653   0.032  16.326  0.1266  0.1572  0.1098
25429W        W41613   3.469   6.666  14.677  0.0295 -0.2438 -0.3960
25430W        W41614  12.706  16.310  13.062  0.2111 -0.0813  0.2014
25431W        W41615   7.445   9.811   3.848  0.0103 -0.0490  0.1662
25432W        W41616   3.781  11.020   1.925 -0.0207 -0.0031 -0.1197
25433W        W41617   4.835  15.757  13.682 -0.1959 -0.2669  0.2073
25434W        W41618  10.482  13.552  14.723 -0.0899  0.0186  0.2251
25435W        W41619   8.260  17.064   5.158  0.3760  0.0320 -0.0913
25436W        W41620   2.773  13.500  11.428  0.2614 -0.1347 -0.0730
25437W        W41621  12.444   9.849  12.046  0.0948  0.3326 -0.2968
25438W        W41622   6.080   2.640   3.056 -0.0244  0.2229 -0.3424
25439W        W41623  11.383   9.632   5.516  0.0185 -0.1997  0.0623
25440W        W41624  10.537   1.356   5.420  0.0739 -0.3221  0.1726
25441W        W41625  11.262   8.187   4.040  0.0150  0.2775 -0.0585
25442W        W41626  10.161   0.396   2.908 -0.1124 -0.0858 -0.0371
25443W        W41627  12.413   2.792  12.579 -0.0178  0.1666 -0.0733
25444W        W41628   2.719  16.835   1.082 -0.0601  0.2643 -0.1741
25445W        W41629  14.714   6.533   1.706  0.1902  0.0727  0.3673
25446W        W41630   0.396   3.356   1.864  0.1416 -0.0015 -0.2754
25447W        W41631   4.092   5.278   4.992  0.2139 -0.3949 -0.2996
25448W        W41632   5.750  10.913   1.588 -0.0386  0.1139 -0.0357
25449W        W41633   2.634   7.741  14.246  0.3772  0.3502  0.0548
25450W        W41634   3.337  12.145  14.968  0.2620  0.1397 -0.0206
25451W        W41635   0.733   0.974   4.706 -0.2482 -0.2153  0.1422
25452W        W41636  14.474   4.948  15.869 -0.1309 -0.2812 -0.1481
25453W        W41637   3.771   4.944  16.666  0.1561 -0.1958  0.0730
25454W        W41638   5.723   8.270   3.709 -0.2058 -0.0225  0.1871
25455W        W41639   9.902  15.078   4.304 -0.0993  0.1224 -0.0972
25456W        W41640  16.231  15.087   3.568 -0.0971  0.1876  0.1011
25457W        W41641   9.570   6.905  14.580 -0.2831 -0.2488 -0.0810
25458W        W41642  15.198   0.425  13.714  0.0180 -0.1906 -0.1004
25459W        W41643   6.656  14.432   1.359 -0.0545  0.1015  0.0942
25460W        W41644  16.913  13.862  13.278  0.0033  0.0792 -0.2050
25461W        W41645  11.501  12.366  16.187  0.0831 -0.0920 -0.2291
25462W        W41646   7.563  11.914   0.169  0.1471 -0.0335  0.0102
25463W        W41647   6.074  12.293  16.181  0.0627 -0.0963  0.3412
25464W        W41648   4.273   8.325  11.875  0.0901 -0.0040  0.2329
25465W        W41649   2.505   7.685  12.009 -0.0142 -0.0677  0.2029
25466W        W41650   4.772  10.057   1.351  0.5040 -0.0488  0.1917
25467W        W41651   4.411   1.684   5.725  0.0958  0.0087  0.0714
25468W        W41652  10.848   4.633  14.323  0.0220  0.1445 -0.0276
25469W        W41653   5.774  12.834  15.903 -0.1409 -0.1681  0.2146
25470W        W41654   7.483  16.955   3.304  0.2545  0.2852 -0.0547
25471W        W41655   1.761  10.187  14.558 -0.1525 -0.4447  0.2472
25472W        W41656  11.700   3.380  12.048 -0.1953 -0.1728  0.0672
25473W        W41657  16.691   0.402  12.348 -0.1552 -0.1313  0.0168
25474W        W41658   3.265  10.736  13.485  0.1053  0.1801 -0.2670
25475W        W41659  16.426  12.026   4.726  0.1595 -0.0984  0.3474
25476W        W41660  17.472   3.946   2.214 -0.1524 -0.0906 -0.0879
25477W        W41661   5.760  17.553   1.248 -0.1499  0.0107 -0.1431
25478W        W41662   7.805  16.462   3.062  0.3300 -0.1883 -0.0759
25479W        W41663  14.090  10.206  12.618  0.0715  0.4935  0.1440
25480W        W41664  11.670  16.762   4.999  0.1981 -0.2376  0.1282
25481W        W41665   4.563   8.731   1.971  0.0079 -0.0436 -0.0154
25482W        W41666  10.409   2.519   1.592 -0.2393 -0.1594 -0.1652
25483W        W41667  13.052  13.025   4.878 -0.0291 -0.0185 -0.0366
25484W        W41668   5.774   0.647  14.002 -0.1358 -0.0040  0.1770
25485W        W41669   2.846   1.401   2.077 -0.1594  0.1335 -0.0705
25486W        W41670  15.085   9.542  13.613 -0.2157 -0.0803 -0.0458
25487W        W41671   3.119  17.597  15.673 -0.1239  0.1432 -0.0831
25488W        W41672  12.560   0.773   0.917 -0.2308 -0.0891 -0.1081
25489W        W41673  13.454   3.863   0.046 -0.0583 -0.2143 -0.3324
25490W        W41674   9.178   3.362   3.935  0.0741  0.0061 -0.1458
25491W        W41675  15.150   3.949  14.456  0.4171  0.2284 -0.2898
25492W        W41676  16.591   9.088   1.407  0.0577  0.2824  0.0203
25493W        W41677   7.090   6.065  14.163  0.0918 -0.0628  0.4690
25494W        W41678   1.372   6.643  14.818 -0.0255 -0.1112 -0.0011
25495W        W41679   5.891  17.265   2.785 -0.1628  0.0630 -0.1592
25496W        W41680  14.486   2.908   1.116  0.1438  0.0254  0.1980
25497W        W41681  10.746  16.973   0.354  0.1844 -0.5667  0.0903
25498W        W41682   2.915  10.900   3.714 -0.3944  0.3709 -0.0011
25499W        W41683   9.387   8.822   0.048 -0.2002 -0.0265  0.1143
25500W        W41684   0.742  14.057   4.278  0.0205  0.3291 -0.1570
25501W        W41685   7.509  12.066   3.620 -0.1386 -0.1553  0.2629
25502W        W41686  10.985  12.209   3.361  0.1272  0.0379 -0.0142
25503W        W41687  10.709   0.316   6.089 -0.2906  0.0929  0.4159
25504W        W41688   6.201   8.789  12.010  0.0257  0.0715 -0.0599
25505W        W41689   8.061  13.465  12.736 -0.0557  0.0183  0.0504
25506W        W41690   9.542   3.501  12.872 -0.0034 -0.2553 -0.2711
25507W        W41691  15.654   3.731  11.566 -0.2970  0.1462 -0.2854
25508W        W41692   0.384  17.364  14.961  0.1104  0.0382  0.2671
25509W        W41693   6.192   6.404  15.434 -0.0733 -0.1821 -0.0521
25510W        W41694  16.016  14.766  16.180  0.1468 -0.0481  0.2456
25511W        W41695   3.492   7.001   4.979  0.0399 -0.0424  0.0048
25512W        W41696  17.729   8.936  10.225 -0.1032 -0.5349 -0.0994
25513W        W41697   6.011   9.492   3.360  0.2863 -0.0071  0.0157
25514W        W41698   4.729  12.595  13.236 -0.1308 -0.0967  0.3619
25515W        W41699   4.698   2.655   2.827  0.2857 -0.2925  0.0606
25516W        W41700   5.504  16.358   2.617 -0.0673  0.3793  0.0383
25517W        W41701   4.345   7.161   0.832 -0.1692 -0.1753 -0.1104
25518W        W41702   3.732   0.162   5.951 -0.1648  0.0449  0.0355
25519W        W41703  15.272   4.933  10.376 -0.0820 -0.0828 -0.1437
25520W        W41704  15.469   4.277  10.928  0.0521 -0.1713 -0.0546
25521W        W41705   3.474  15.286  13.490 -0.1055  0.0400 -0.1972
25522W        W41706   2.247   8.499   2.172 -0.1021 -0.0536  0.1145
25523W        W41707  11.640   1.327   5.016  0.3654 -0.2050 -0.0843
25524W        W41708   2.315   1.001  15.597 -0.1719  0.0013  0.2120
25525W        W41709  10.180   2.471  10.524  0.0175  0.1247 -0.0816
25526W        W41710  12.301   8.019  13.437  0.3647  0.1938  0.0190
25527W        W41711  17.004  10.215   1.845  0.0453  0.2027 -0.1025
25528W        W41712   2.891   0.192   5.421 -0.2043 -0.0316  0.2796
25529W        W41713   1.114   3.454  13.105  0.0555 -0.1203 -0.0874
25530W        W41714   5.994  14.082  15.770  0.2357 -0.0409 -0.0538
25531W        W41715   8.109   1.459   4.531  0.0084  0.0220  0.2544
25532W        W41716   6.272   4.473   1.306  0.1663 -0.1406  0.1230
25533W        W41717  13.011   3.320  15.087 -0.2166 -0.0591  0.2663
25534W        W41718   7.138   0.973   1.098 -0.0378 -0.1562  0.0293
25535W        W41719   1.099  16.553  12.185  0.0717  0.0379  0.0020
25536W        W41720   0.124   4.953  16.252  0.1343 -0.0773  0.0775
25537W        W41721  14.125   9.427   4.477 -0.3124 -0.0138  0.0848
25538W        W41722  12.300   1.167   1.890  0.0746  0.0890  0.3498
25539W        W41723   6.163   8.951  14.350 -0.1981 -0.1507  0.3787
25540W        W41724   5.483   4.733  14.293  0.2353  0.0898  0.0105
25541W        W41725  11.492  10.021  16.640 -0.0546  0.0301  0.2336
25542W        W41726   8.431  14.392  15.994  0.0675  0.2465  0.1131
25543W        W41727   5.209  10.984  12.207 -0.0150  0.2147 -0.0661
25544W        W41728   7.803  16.235   2.613  0.2250 -0.1397 -0.1053
25545W        W41729  15.017  11.894   1.554  0.1398 -0.1102  0.0545
25546W        W41730   5.652  11.918  12.246  0.0290  0.2485  0.1159
25547W        W41731   7.818   8.711   0.262 -0.2461  0.3208 -0.1126
25548W        W41732   0.742  17.087  14.053 -0.3826 -0.2840  0.1403
25549W        W41733  10.411  10.182   1.977  0.2713 -0.2634  0.1883
25550W        W41734   1.010   7.572  11.910 -0.0026 -0.0700  0.0677
25551W        W41735   4.626   8.796   3.344  0.1636  0.0282  0.1101
25552W        W41736  13.899  17.442  12.021 -0.1535 -0.1454  0.1707
25553W        W41737  12.990   1.831  13.714  0.1004 -0.0406 -0.0859
25554W        W41738  12.637  13.301   6.170 -0.2676 -0.1559 -0.1586
25555W        W41739  11.630   6.427  11.764  0.1502  0.1554 -0.0348
25556W        W41740   5.864  15.196   4.046 -0.1481  0.1218 -0.3346
25557W        W41741   9.762  17.389  13.949 -0.0891  0.1057  0.3863
25558W        W41742  11.974  15.506   0.079 -0.1335  0.3043  0.1286
25559W        W41743   4.559  13.699  15.459 -0.0801 -0.1901  0.2506
25560W        W41744  17.498   0.180   5.878 -0.0716 -0.0200  0.1592
25561W        W41745   9.708   2.153  12.548  0.1797  0.0682  0.4907
25562W        W41746   1.467   0.392  11.712 -0.0853  0.0624 -0.1269
25563W        W41747  15.733  17.553   4.523 -0.1432 -0.2419 -0.1490
25564W        W41748   3.206  15.757  12.233  0.1106 -0.2089 -0.1448
25565W        W41749   6.251  15.306   0.492 -0.0446 -0.1050  0.1847
25566W        W41750  18.130  14.790  14.118 -0.0913 -0.0101  0.1550
25567W        W41751  11.389   0.809   5.255 -0.3641 -0.1781 -0.1014
25568W        W41752   6.131   0.269  14.113  0.3367 -0.0146 -0.0156
25569W        W41753   6.305   8.539  15.459 -0.1120 -0.0159 -0.0925
25570W        W41754   2.054   7.876  12.278  0.0764  0.1818 -0.3094
25571W        W41755  17.267  12.133   1.334  0.0036 -0.0897 -0.2772
25572W        W41756   9.927   6.442   2.204 -0.2145 -0.0693  0.0069
25573W        W41757   8.428   0.008   5.420  0.2596 -0.0924 -0.0798
25574W        W41758   4.116  10.618  15.952  0.2218 -0.4688 -0.1921
25575W        W41759  10.703  16.059   5.497  0.1286 -0.0381  0.2008
25576W        W41760   3.796  10.046   4.955 -0.1262  0.3367 -0.1364
25577W        W41761   1.720  13.889  15.991  0.0564 -0.1686 -0.0861
25578W        W41762  12.949   8.829   5.310  0.0664 -0.0876 -0.2470
25579W        W41763  12.013   1.029   1.531  0.0412 -0.1927  0.2428
25580W        W41764  10.522   8.468  11.783 -0.6418  0.0070  0.2698
25581W        W41765   7.523  13.863  13.591  0.0235 -0.0665 -0.3528
25582W        W41766   3.842   0.319  11.738 -0.5658 -0.2172  0.0114
25583W        W41767   2.628  10.315  15.001 -0.1260  0.2291  0.1733
25584W        W41768   0.907  16.909  12.577 -0.1622 -0.4111  0.0012
25585W        W41769  13.727   4.564   0.733  0.0747  0.1079 -0.0805
25586W        W41770  14.136  16.369   4.336  0.0214  0.1625  0.1477
25587W        W41771  12.040  10.244   3.290 -0.0438  0.0741  0.0364
25588W        W41772  12.559  13.529  16.502  0.0103 -0.0361 -0.2451
25589W        W41773   3.093  12.880  12.149  0.2121 -0.0007  0.0670
25590W        W41774   3.691   8.961  12.747 -0.2176  0.2004  0.3298
25591W        W41775   5.805  13.518   3.319 -0.1406 -0.1032  0.0075
25592W        W41776  10.748   6.747   2.244  0.1897  0.0488  0.1458
25593W        W41777   5.949   9.302   4.977 -0.0286 -0.0179 -0.0647
25594W        W41778  17.342   2.668   1.219  0.1262  0.1520  0.2473
25595W        W41779  15.067   2.190  14.316  0.5230 -0.2814  0.0554
25596W        W41780   6.010   6.880   0.371 -0.2499 -0.0367 -0.0943
25597W        W41781  10.115  15.503   6.533 -0.0774 -0.0254  0.1889
25598W        W41782   9.758   2.368   0.406 -0.2827 -0.2204 -0.1843
25599W        W41783   3.587   1.114  14.268  0.0315  0.1899 -0.1112
25600W        W41784   7.960  12.999  16.585  0.2983 -0.1057  0.1681
25601W        W41785  11.511   0.306   0.902 -0.0340  0.0141 -0.2940
25602W        W41786  16.156  17.005   1.718  0.1957 -0.1147 -0.0400
25603W        W41787  13.178  16.981   0.304 -0.1728  0.1840  0.0956
25604W        W41788  17.742   1.917   2.825 -0.1506 -0.0804 -0.2752
25605W        W41789   3.012  10.995   5.847 -0.0748  0.0390 -0.1147
25606W        W41790  16.121  17.298   2.539 -0.2197  0.0092  0.0240
25607W        W41791   3.064   6.939  14.545 -0.0537 -0.0569  0.5225
25608W        W41792  18.126  16.518   2.994  0.2316 -0.3181  0.1332
25609W        W41793   6.571  14.982  13.785  0.0727 -0.0384  0.0468
25610W        W41794   6.048  16.679  13.890 -0.2041 -0.1072  0.2474
25611W        W41795  13.642  16.358  13.945  0.1764  0.0854 -0.0084
25612W        W41796  14.518   2.777  11.553 -0.2377 -0.2491  0.0196
25613W        W41797  16.025   1.661   1.750  0.1364  0.3293  0.3129
25614W        W41798   8.507   6.473   1.290  0.0919 -0.4623  0.2326
25615W        W41799   9.728   0.123  14.722 -0.2198  0.0062 -0.4304
25616W        W41800  15.079   3.735  13.482 -0.1890  0.1554  0.0336
25617W        W41801   8.076  12.415   2.673  0.0781 -0.0866 -0.1287
25618W        W41802   7.300   6.844   4.554  0.1269  0.0336  0.2112
25619W        W41803  15.662  16.134  15.171  0.0527 -0.0592  0.1042
25620W        W41804  11.675   7.835  14.339 -0.2476 -0.0399 -0.0070
25621W        W41805  17.877  16.024  14.290 -0.1370 -0.1764 -0.2446
25622W        W41806   4.676  17.488   1.978  0.0494  0.3139  0.0514
25623W        W41807   6.265   4.234   1.941 -0.2293  0.0180  0.3022
25624W        W41808  16.576   9.500   0.832  0.0979 -0.1015 -0.0648
25625W        W41809  16.086  18.081  15.956 -0.0129 -0.0231  0.0056
25626W        W41810   7.289  10.449  14.311 -0.1704 -0.1362 -0.2198
25627W        W41811  14.457  11.443  15.988  0.4783 -0.0488 -0.0014
25628W        W41812   7.816   6.000   3.213 -0.2534 -0.3602  0.0035
25629W        W41813   8.937   5.691  16.088 -0.1829  0.1050  0.1549
25630W        W41814  15.841   0.806   4.225  0.0519 -0.0177  0.1536
25631W        W41815  13.424   4.355   0.283 -0.2911  0.0121 -0.3085
25632W        W41816   6.797   5.279  16.518  0.0956  0.0710  0.2974
25633W        W41817   1.805   0.700  13.649 -0.0424  0.1964 -0.0105
25634W        W41818   2.047   2.567  16.204 -0.0264  0.0500  0.4630
25635W        W41819   2.934   2.257   4.973  0.2925  0.1972 -0.2118
25636W        W41820   1.671   7.185   2.386  0.2591  0.1522 -0.1082
25637W        W41821  12.794   5.907   2.106 -0.2215 -0.2838 -0.0103
25638W        W41822  18.003   4.835  12.450  0.1796  0.2136  0.1382
25639W        W41823   8.611   5.774   3.645 -0.0869 -0.1296  0.0266
25640W        W41824  13.044  15.591   2.882  0.1374 -0.2106  0.1331
25641W        W41825   9.307  16.898  12.312 -0.3286  0.1513 -0.4825
25642W        W41826  12.357  15.976  11.936  0.0485  0.0675 -0.1078
25643W        W41827  17.499  17.811  15.369 -0.2155  0.0100 -0.2818
25644W        W41828   5.460   7.002  12.480 -0.1488  0.0659 -0.2917
25645W        W41829   1.484   7.252  14.734  0.2619  0.0910  0.0129
25646W        W41830  15.093  14.345  16.253 -0.1589 -0.0318  0.0462
25647W        W41831   7.650   3.544  13.932 -0.0172 -0.1776 -0.1451
25648W        W41832  10.959   9.489  14.560  0.1154 -0.2141 -0.2606
25649W        W41833  14.744  14.099   0.071  0.0445  0.4026 -0.0586
25650W        W41834   1.565   1.083   1.530  0.4158 -0.0717  0.0610
25651W        W41835   4.043   3.031  13.599  0.3092  0.3592 -0.0181
25652W        W41836  16.443   1.523   3.252  0.2964  0.0239 -0.3449
25653W        W41837   3.407  12.162  15.474 -0.1855 -0.0035  0.0502
25654W        W41838   1.149   0.070   4.557  0.4041 -0.1093  0.2452
25655W        W41839  11.179   0.880  14.771  0.1588 -0.1424 -0.2345
25656W        W41840  12.440   5.806  10.943 -0.0459 -0.4388  0.0301
25657W        W41841  17.159   4.899   2.725 -0.0426  0.1051  0.3169
25658W        W41842  11.073   6.191  16.210  0.1800 -0.0165  0.3996
25659W        W41843   1.733  11.718   3.039  0.0329  0.0008 -0.0770
25660W        W41844   9.513  15.897  13.424  0.1078 -0.3144  0.4047
25661W        W41845   5.161   9.177   3.012  0.0465  0.2019  0.0580
25662W        W41846  13.170   2.684  16.009 -0.1330 -0.1231  0.2551
25663W        W41847   6.016   2.345   2.679  0.2521  0.2295 -0.0438
25664W        W41848   1.554   1.257   2.551 -0.3280  0.2349 -0.0694
25665W        W41849   9.800   0.330   3.500 -0.0588 -0.1376 -0.2536
25666W        W41850  17.180   2.798  16.266 -0.0465 -0.0007  0.1331
25667W        W41851  12.154  12.743   1.832  0.1530 -0.0529 -0.1407
25668W        W41852   9.557   2.509   0.857 -0.1982 -0.1713  0.0129
25669W        W41853   7.467  11.347  14.063 -0.1429  0.0813 -0.0039
25670W        W41854   4.142  16.556  14.709 -0.0630 -0.0434 -0.1120
25671W        W41855   3.414  12.052   0.193  0.0289  0.3179  0.3022
25672W        W41856  14.612  13.395  16.340 -0.1840 -0.2092  0.2899
25673W        W41857   7.621   6.671   4.152 -0.2742  0.1170 -0.4179
25674W        W41858   6.131  13.370  13.753 -0.0830  0.1929  0.2755
25675W        W41859   6.764   0.999  13.923  0.2463 -0.3160  0.0755
25676W        W41860  17.243   2.855   0.781  0.0623  0.0300  0.0238
25677W        W41861  11.016  16.484  12.984  0.0635  0.3508  0.0101
25678W        W41862   0.840   6.397  15.662 -0.0141 -0.2444 -0.2296
25679W        W41863  12.681  13.319  12.878 -0.1451  0.2341 -0.1298
25680W        W41864  15.448   6.345   4.813  0.2130 -0.1878 -0.1990
25681W        W41865   7.943   8.996  12.992 -0.0792 -0.1909  0.0509
25682W        W41866  11.874   8.291  14.501 -0.1293  0.1032 -0.3107
25683W        W41867  10.009  11.811   0.862  0.0200  0.0181  0.2260
25684W        W41868   9.677   8.959  12.085  0.1134 -0.0860 -0.2201
25685W        W41869  12.455   3.737  12.378  0.0718 -0.2924 -0.1201
25686W        W41870  13.555   3.128  10.703 -0.0725 -0.0180  0.0511
25687W        W41871  12.324   4.492   0.075 -0.2505 -0.0192 -0.1365
25688W        W41872   1.041  18.146  13.839  0.0292 -0.1558 -0.0136
25689W        W41873  14.213  14.610  15.992 -0.0530  0.1222  0.2956
25690W        W41874  18.072   0.987  16.243  0.0896  0.2323  0.2025
25691W        W41875  15.826  16.079   0.557 -0.2729 -0.0866 -0.2801
25692W        W41876  16.548  11.573   5.952  0.0166 -0.1867  0.0896
25693W        W41877   4.625   5.561  12.366  0.0014  0.3356 -0.0853
25694W        W41878  12.529   6.882  15.536  0.0614 -0.0135  0.2146
25695W        W41879   1.815  12.201   5.264  0.0760 -0.0246  0.1627
25696W        W41880   8.654   3.129   5.481  0.0439 -0.1612  0.0421
25697W        W41881   2.728   6.638  12.283  0.1365 -0.1523  0.0332
25698W        W41882   9.550   5.101   0.351  0.0776 -0.1280 -0.1348
25699W        W41883  16.819  15.491  11.308  0.0310 -0.1244  0.2866
25700W        W41884  15.253  12.357  12.267  0.1614 -0.2488 -0.0015
25701W        W41885   5.450  11.676   4.056 -0.0026 -0.2912  0.1132
25702W        W41886  18.112   5.335  12.523 -0.0977 -0.1301 -0.0548
25703W        W41887   5.015  17.505   5.306 -0.3327  0.1648 -0.1801
25704W        W41888  11.229  16.961  11.736  0.1706  0.2393  0.0674
25705W        W41889  16.463   8.572  16.504 -0.1853 -0.1249  0.4008
25706W        W41890  15.505  12.243   4.202  0.0049  0.0435 -0.3148
25707W        W41891   1.228   7.527  14.319  0.0639  0.1834  0.2497
25708W        W41892   3.420   5.657  16.540  0.0565  0.0492 -0.3824
25709W        W41893   1.164  14.592  15.117 -0.0076  0.0919  0.2179
25710W        W41894   3.150  18.069   2.379 -0.0296 -0.1630 -0.0420
25711W        W41895   7.031   8.433   2.317  0.1948 -0.1228 -0.2144
25712W        W41896   9.541  11.557  11.617 -0.3331 -0.2653  0.0579
25713W        W41897   1.222   1.796   4.964 -0.0658  0.0549  0.0536
25714W        W41898   0.142   5.186  15.493 -0.1675  0.0966 -0.2439
25715W        W41899  14.473   3.184   0.677  0.0149  0.0660  0.0681
25716W        W41900   1.600   0.012  13.906 -0.1336  0.2871 -0.0979
25717W        W41901   0.333  11.226   1.289 -0.2178  0.1155  0.2103
25718W        W41902   4.005  11.103  15.894  0.3552  0.1698 -0.0414
25719W        W41903   1.465   6.854   4.997 -0.0155 -0.0479 -0.1849
25720W        W41904  16.761  12.778   1.759  0.2423 -0.0387  0.1665
25721W        W41905   4.538  17.962   0.470  0.2608  0.0131 -0.1647
25722W        W41906  13.453  15.663   3.748  0.2084 -0.1579 -0.1297
25723W        W41907  16.078  11.566  13.460  0.3096  0.5515 -0.1327
25724W        W41908  12.609   8.294   1.687 -0.1500  0.0994  0.4958
25725W        W41909   6.928  12.141   3.959  0.0058  0.0567  0.0891
25726W        W41910   2.258   2.897  11.441 -0.1773 -0.0723 -0.3207
25727W        W41911  11.564  11.172   1.364  0.0527  0.2670  0.1910
25728W        W41912   9.321  15.662   5.305  0.1506 -0.1390  0.2145
25729W        W41913   4.548   4.870  16.194  0.1295 -0.2300  0.0491
25730W        W41914  11.630   8.416  16.379 -0.0051 -0.0827  0.3423
25731W        W41915  15.658   3.452  16.336 -0.0216  0.1195 -0.3527
25732W        W41916   3.269   8.799  11.313 -0.1857  0.2643  0.0969
25733W        W41917   2.174  12.862   5.851 -0.1355 -0.1751 -0.1175
25734W        W41918   7.926   7.189   1.534 -0.1475 -0.1630  0.0835
25735W        W41919  17.984   1.307  14.751  0.1156  0.1470  0.1000
25736W        W41920  14.304  13.643  15.066  0.1391  0.2133  0.2585
25737W        W41921   5.731   0.576   4.278 -0.2080 -0.1526  0.0218
25738W        W41922   3.284   1.861  14.528  0.0964  0.0585  0.1059
25739W        W41923   5.871   9.254  15.912 -0.0504  0.0805 -0.1274
25740W        W41924   9.940  12.062   4.968  0.0615 -0.1280 -0.1701
25741W        W41925  15.637  16.110  13.456  0.1540  0.0920 -0.2230
25742W        W41926   6.650   4.122   1.105 -0.0429  0.0008 -0.4039
25743W        W41927   9.491   2.442  16.157 -0.1539 -0.0703  0.1676
25744W        W41928  16.349  13.432  14.324  0.2217  0.2253 -0.1090
25745W        W41929  11.278   3.027  14.972  0.1311 -0.0039 -0.0489
25746W        W41930   9.959   7.722   5.290 -0.0468 -0.0560 -0.0337
25747W        W41931   0.504  11.023   4.181 -0.1393  0.1211 -0.2236
25748W        W41932  13.454  10.928   0.304 -0.0567  0.0402  0.2760
25749W        W41933   3.971  15.258   1.801  0.2123 -0.2335  0.1132
25750W        W41934   7.049   1.174  12.295  0.1311  0.2470 -0.3826
25751W        W41935   9.051  17.195  11.468  0.2600  0.1478  0.2325
25752W        W41936  11.105  12.730   2.053  0.2060  0.0704  0.1232
25753W        W41937   8.859  13.591   2.625 -0.0717  0.0524  0.0171
25754W        W41938   3.938  11.804  12.585  0.0373  0.1337  0.0362
25755W        W41939   3.916   9.184  14.746  0.1927  0.3381  0.1560
25756W        W41940   6.673   6.240  13.008 -0.2299 -0.2354 -0.0926
25757W        W41941  17.964   0.384   1.456 -0.0621  0.1170 -0.2218
25758W        W41942   8.599   8.015   4.402 -0.4115 -0.2459  0.1222
25759W        W41943   7.591  12.221  13.129 -0.1000 -0.0199 -0.0100
25760W        W41944   5.170  15.478   4.501  0.0243 -0.0409  0.1522
25761W        W41945  16.905   2.845   3.540  0.0791  0.0308 -0.3062
25762W        W41946  12.308  11.765  12.663  0.1265  0.0195 -0.1389
25763W        W41947   8.820   8.012  16.322  0.0335 -0.1473  0.0050
25764W        W41948   6.205   1.017   3.710 -0.0048  0.2702 -0.0448
25765W        W41949  13.108  10.864   5.840  0.2040  0.3179  0.1564
25766W        W41950   6.925  11.248   3.956  0.1880  0.1497  0.0186
25767W        W41951  11.093   0.620  12.386 -0.1039 -0.0708  0.0043
25768W        W41952  14.260   1.546   3.103  0.1352  0.0801 -0.0154
25769W        W41953  13.680  10.236   5.579  0.0508  0.2555  0.0012
25770W        W41954   2.580   2.569   4.173  0.1837 -0.3428 -0.3321
25771W        W41955   8.709   3.772   3.354  0.0993  0.1143  0.1122
25772W        W41956   4.125  13.375   1.857  0.1577  0.1872  0.0275
25773W        W41957   3.154  13.165  14.819 -0.0877  0.4197 -0.0591
25774W        W41958  15.378  14.716   0.176  0.1849  0.1803 -0.1846
25775W        W41959  10.511   3.477  15.401 -0.2022 -0.1651 -0.0770
25776W        W41960   3.420   8.380   5.536 -0.0114 -0.2368  0.0466
25777W        W41961   6.298  10.782   1.778 -0.0111 -0.4041 -0.1746
25778W        W41962  11.773  14.107  12.273  0.1235  0.0161  0.1647
25779W        W41963   1.152  10.733   1.269  0.5093 -0.2437 -0.0386
25780W        W41964   6.885  12.821   1.852 -0.1519  0.0982  0.4105
25781W        W41965  16.113   0.325   4.934 -0.3068 -0.1851 -0.0257
25782W        W41966   3.613  11.789   4.992  0.0119 -0.0725  0.0845
25783W        W41967   8.317   7.802   2.157 -0.1631  0.0845  0.0404
25784W        W41968  11.792  12.793   4.844  0.0688  0.0106  0.0210
25785W        W41969   6.042  14.115   3.291 -0.0026 -0.0573 -0.2756
25786W        W41970  17.143   4.567  14.392 -0.2400  0.2139 -0.0626
25787W        W41971  13.327   1.197   1.455 -0.0275  0.0715  0.0717
25788W        W41972  14.872  16.166  11.820  0.2038  0.2674  0.0315
25789W        W41973  11.114  17.846   5.437 -0.1161  0.0127 -0.0339
25790W        W41974   5.966   1.445   4.586 -0.0408  0.3430 -0.2388
25791W        W41975   8.639   1.229   4.813 -0.2530 -0.0061 -0.0974
25792W        W41976   1.651   2.909  14.571 -0.1392 -0.0898 -0.0599
25793W        W41977   9.121  16.552   1.918  0.1080 -0.0777  0.0679
25794W        W41978  16.685  11.972   2.283 -0.0700 -0.2653 -0.2440
25795W        W41979  11.875   8.806  11.928  0.2437  0.3623 -0.0521
25796W        W41980   3.584  12.336  16.482 -0.1114  0.1675 -0.4519
25797W        W41981  13.973   4.571  11.241 -0.3147 -0.1203 -0.1842
25798W        W41982   6.947   4.842   3.237  0.1729 -0.0404  0.0748
25799W        W41983   8.623   9.480   1.882  0.0472  0.0694 -0.0963
25800W        W41984  12.148   6.442   4.390 -0.0006 -0.4728  0.1147
25801W        W41985  12.644   5.075  15.465  0.1579 -0.0536  0.0836
25802W        W41986  16.582  16.204  15.563  0.2888  0.3246 -0.0240
25803W        W41987  17.470   1.709   4.844  0.0651  0.1641 -0.0263
25804W        W41988   9.626   7.284  12.846  0.0529 -0.3263  0.2646
25805W        W41989   5.099  14.910   6.438 -0.0629  0.1027 -0.2326
25806W        W41990  17.669   2.677  16.026 -0.0512 -0.1484 -0.2261
25807W        W41991   8.718   1.298  15.587 -0.0220  0.3617 -0.0791
25808W        W41992   1.569   7.361   0.501  0.1478  0.1394 -0.0102
25809W        W41993   9.268   9.218   5.159  0.0406  0.1463 -0.2441
25810W        W41994  10.477  11.179  15.542 -0.0002 -0.0561 -0.0680
25811W        W41995  15.881  14.002   3.202 -0.0836  0.3953 -0.3855
25812W        W41996   8.304  11.139  13.248 -0.1069 -0.0795  0.0203
25813W        W41997   8.257   8.264   2.350 -0.0018 -0.1330  0.0640
25814W        W41998   6.852  16.524  13.302  0.1653  0.0484 -0.0115
25815W        W41999  11.839   2.550   5.304  0.1471 -0.2931  0.0273
25816W        W42000   4.695  12.166  11.623 -0.1356  0.3500  0.1207
25817W        W42001  15.275   1.787  16.620 -0.0991  0.1946  0.3085
25818W        W42002   4.220   1.238   4.435  0.4270  0.0375 -0.0823
25819W        W42003   6.777  11.842  13.958  0.0222 -0.3172 -0.1296
25820W        W42004  15.340  10.514   2.996  0.3617 -0.0335 -0.0898
25821W        W42005   6.186  10.215  15.211 -0.1902 -0.1411  0.1891
25822W        W42006  17.610  15.670  14.060 -0.1417  0.4630 -0.1816
25823W        W42007   4.360   7.497   3.735  0.0460 -0.0857  0.0796
25824W        W42008  10.152  15.338   3.913 -0.0988  0.0020 -0.2760
25825W        W42009   6.717   1.456  14.662 -0.1054  0.1167 -0.0005
25826W        W42010   6.165   9.819  12.892 -0.1709  0.2119 -0.3624
25827W        W42011   2.426  10.935   2.131 -0.0053 -0.2112 -0.0852
25828W        W42012   9.073  14.796   1.979 -0.0149 -0.1033  0.1514
25829W        W42013   4.783  10.807   0.438  0.2174 -0.1502  0.0521
25830W        W42014  16.368   8.285  12.716  0.0320  0.3119 -0.2749
25831W        W42015   3.880  10.812   0.491  0.1419 -0.6654 -0.0082
25832W        W42016   4.150   1.067  12.676  0.1858 -0.2831  0.4416
25833W        W42017   1.914  13.628  13.435  0.2913 -0.2781 -0.0884
25834W        W42018  12.105   3.642   1.650 -0.1144 -0.3808 -0.1567
25835W        W42019  14.097   7.119  15.142 -0.1846  0.0488  0.2113
25836W        W42020   2.838   8.629   1.409 -0.0601  0.1834 -0.3151
25837W        W42021  13.669   1.984  14.886  0.1963  0.0908  0.2665
25838W        W42022  12.648   7.216   1.290 -0.0729 -0.1683 -0.0635
25839W        W42023  10.043   1.460   0.641  0.0266  0.4380  0.0419
25840W        W42024  15.632   7.316  15.950 -0.1166  0.1433  0.0126
25841W        W42025  14.593  10.413   5.250  0.0728  0.0537 -0.1388
25842W        W42026   4.019  18.022  16.049 -0.0731  0.3558  0.3605
25843W        W42027   7.561  13.066  12.107 -0.1175  0.0148 -0.3889
25844W        W42028   9.279   3.022  15.930  0.2370 -0.0931 -0.0094
25845W        W42029  15.262  13.520   0.472  0.1102 -0.2069 -0.1564
25846W        W42030   8.290   2.988  12.220  0.0713  0.0521 -0.4773
25847W        W42031  17.895  18.027   4.590 -0.1259  0.1060 -0.2641
25848W        W42032   4.481   6.297  16.132  0.0972  0.2830  0.0756
25849W        W42033   7.373  12.529  12.315  0.2844 -0.0187  0.0516
25850W        W42034   0.545   2.008   2.023 -0.1492  0.2638 -0.0160
25851W        W42035  15.619   6.265  12.997  0.0444 -0.0615  0.1616
25852W        W42036  17.830  10.885  13.443 -0.1868 -0.1380 -0.2434
25853W        W42037  12.328   3.179   0.083 -0.3037 -0.2203 -0.2372
25854W        W42038  11.557  14.456   0.697  0.0820 -0.2009 -0.3326
25855W        W42039  10.038   6.983  16.210  0.6160  0.1054 -0.0114
25856W        W42040   1.589   7.507  15.638 -0.0215 -0.0741 -0.3121
25857W        W42041  11.840   1.656  12.018 -0.3199 -0.2415 -0.5363
25858W        W42042  13.479  11.304   5.245 -0.1366  0.2112  0.0036
25859W        W42043   9.032  15.868  12.644 -0.2800  0.2198  0.2254
25860W        W42044  16.077   6.413  11.638  0.1149 -0.1400 -0.0973
25861W        W42045   9.054   7.058  16.049 -0.1330 -0.0501 -0.2360
25862W        W42046  16.654   3.227  12.644 -0.0652 -0.0895 -0.0123
25863W        W42047  13.215  11.305  13.094  0.1765  0.5458  0.0387
25864W        W42048   2.679  16.689  13.416 -0.3062  0.0657 -0.2075
25865W        W42049   2.588   5.666  13.695  0.1573 -0.0654  0.0467
25866W        W42050  10.995   3.651  13.152 -0.0543  0.0350 -0.1153
25867W        W42051   6.672   3.716   2.301 -0.0086 -0.1374 -0.3155
25868W        W42052  11.308   6.577  12.780  0.3544 -0.0348  0.1288
25869W        W42053   3.332   9.852   1.218  0.3012 -0.0211 -0.0096
25870W        W42054   2.833   3.350   5.280  0.3884 -0.2130 -0.4065
25871W        W42055   4.189  17.398  16.449 -0.1204 -0.1633 -0.5314
25872W        W42056  17.424  13.051   0.898 -0.1398  0.3056 -0.0324
25873W        W42057   1.883   9.105  13.052 -0.0419 -0.2278 -0.0871
25874W        W42058  13.945   3.728  12.985 -0.3917 -0.0045  0.0437
25875W        W42059   2.427   4.424  15.395 -0.0152  0.0440  0.0651
25876W        W42060   1.169  11.593  14.434 -0.4777 -0.4256 -0.1738
25877W        W42061   8.098   9.984   4.817  0.0689  0.0812 -0.2245
25878W        W42062  10.696   0.695   2.216 -0.3463  0.0133 -0.1498
25879W        W42063   5.979   3.395  15.494 -0.0803  0.2213  0.0094
25880W        W42064   7.091   3.457   1.925 -0.2201 -0.2772 -0.1970
25881W        W42065   0.677   2.416  10.627  0.2134 -0.2408  0.1686
25882W        W42066  17.740   9.877  14.931  0.3923  0.3019  0.0486
25883W        W42067   7.758  16.812   4.911  0.3049  0.1711 -0.2670
25884W        W42068  11.967   6.319  13.186  0.0997  0.3629 -0.0561
25885W        W42069  10.526   1.447  15.796 -0.2364 -0.0467  0.1459
25886W        W42070  13.820   3.485   1.764 -0.1232 -0.2715 -0.1288
25887W        W42071   1.697  17.228  15.734  0.0985  0.2150 -0.0063
25888W        W42072   4.842   7.153  16.606 -0.0520 -0.0294  0.1091
25889W        W42073  15.738  13.723   2.702  0.1197 -0.1297 -0.2681
25890W        W42074   6.188   9.792  15.497  0.2409  0.0225 -0.0769
25891W        W42075  17.706  11.595   2.084  0.1655  0.0575  0.1374
25892W        W42076   0.645  17.532  16.526 -0.0409 -0.3426 -0.2110
25893W        W42077  13.720   5.572  15.317 -0.0749  0.4600 -0.3184
25894W        W42078  12.282  13.359  14.626 -0.0828 -0.0494 -0.0982
25895W        W42079   1.467   9.124   1.352 -0.2294 -0.0797 -0.1205
25896W        W42080  13.782  14.531   3.671  0.2543  0.1262 -0.0159
25897W        W42081   9.596   3.642   3.728  0.0003 -0.2010 -0.0601
25898W        W42082  14.275   0.627  13.398  0.0943 -0.0733 -0.1043
25899W        W42083   6.950  10.009  12.137  0.0707 -0.0450  0.1675
25900W        W42084  10.252  10.455   6.131  0.1836  0.0294  0.1342
25901W        W42085  17.088  15.665  15.930  0.1259  0.0251 -0.0285
25902W        W42086   8.317   3.486   5.258 -0.0818  0.1922 -0.0576
25903W        W42087   1.587   8.890  16.584  0.0215 -0.3504  0.1272
25904W        W42088   1.313   3.776   0.778  0.1053 -0.0037  0.5511
25905W        W42089   5.878   9.375  13.440  0.1086 -0.2157 -0.1436
25906W        W42090   5.333   5.550   4.663  0.2984 -0.2332  0.1416
25907W        W42091   1.216   5.401  13.725 -0.1309  0.0148  0.1166
25908W        W42092   1.829   3.097   5.769  0.1146 -0.0750 -0.1659
25909W        W42093   8.488  15.472   4.986  0.0428 -0.0130 -0.1769
25910W        W42094  10.069   3.169  13.649 -0.3698  0.1165 -0.3022
25911W        W42095   5.065  10.472   0.207  0.1331 -0.3362  0.0333
25912W        W42096   2.332  14.217  16.651  0.3594  0.1603  0.0468
25913W        W42097  14.362  16.284  11.978 -0.1171  0.4869  0.1921
25914W        W42098  15.404  12.254  15.553 -0.1785  0.0845 -0.0725
25915W        W42099  14.874   7.263  11.671 -0.3346 -0.1576 -0.1015
25916W        W42100  12.518   2.814   1.680 -0.0715 -0.1422  0.0145
25917W        W42101  10.962  10.713  14.799  0.0269  0.1745  0.3409
25918W        W42102   5.255  17.476  14.327 -0.1557  0.0081 -0.3370
25919W        W42103   3.437   3.857   2.956 -0.3007 -0.0296  0.0487
25920W        W42104  13.808   2.412   2.822 -0.2516  0.5579  0.2468
25921W        W42105   6.304   4.851  15.566 -0.3695  0.1054  0.1067
25922W        W42106  14.498  16.703  14.265 -0.0249  0.0850  0.0124
25923W        W42107   6.806  10.499   1.980  0.1584  0.1798 -0.2817
25924W        W42108  14.979   4.233   3.313  0.0037 -0.3083 -0.0080
25925W        W42109   5.881   8.875   2.500  0.2935 -0.0219  0.0482
25926W        W42110  17.292  12.683   1.843 -0.0800 -0.2590 -0.1684
25927W        W42111  10.489  12.447  14.377 -0.0371 -0.1643  0.0335
25928W        W42112   2.381  13.590  16.140 -0.0365  0.0109 -0.3114
25929W        W42113  15.985  15.473   5.561  0.0826  0.0992 -0.1206
25930W        W42114   6.465   4.993  12.228  0.0022  0.3601 -0.0279
25931W        W42115  12.841  17.779  12.845  0.0019 -0.1289  0.0034
25932W        W42116   4.611   4.328  16.200  0.0650 -0.0402  0.1088
25933W        W42117   7.972  12.844  14.579 -0.1814  0.0311  0.3171
25934W        W42118   4.056  17.302  11.755  0.2096 -0.1651  0.1675
25935W        W42119  13.388   9.854  15.614 -0.2782 -0.1033  0.2882
25936W        W42120   4.078   8.790   1.010 -0.2741  0.0412 -0.1073
25937W        W42121  16.368  12.238  15.606 -0.0935 -0.1507 -0.0360
25938W        W42122  13.377  13.185  15.599  0.0019  0.1666  0.0464
25939W        W42123  16.294   7.655  12.928  0.0922  0.0510 -0.1291
25940W        W42124   3.925  17.694   1.543 -0.1057 -0.2436 -0.2065
25941W        W42125   6.560  15.942  14.533 -0.0556 -0.2155  0.1856
25942W        W42126  12.503  16.367  15.084 -0.0475  0.2803 -0.0144
25943W        W42127   5.433  10.751   4.491  0.1158 -0.0484 -0.0204
25944W        W42128  13.790  12.828  15.112 -0.3443  0.2453 -0.0150
25945W        W42129   5.144   3.429  12.905 -0.1277 -0.2760  0.1159
25946W        W42130   1.866   4.042   1.481 -0.1229  0.2893  0.1825
25947W        W42131   3.468  10.472  16.240  0.1856 -0.0997 -0.2099
25948W        W42132  17.615   6.346   4.673  0.0969  0.2661 -0.0433
25949W        W42133   8.563  17.189   1.807  0.4996  0.0123 -0.0756
25950W        W42134   3.300   9.874  15.695  0.2756  0.0611 -0.1806
25951W        W42135  12.545  11.985  15.427  0.2898 -0.2232  0.1334
25952W        W42136   8.516  13.506   3.526  0.2041 -0.1509 -0.0707
25953W        W42137  12.154   7.747  15.126 -0.1395  0.1387 -0.1659
25954W        W42138   7.182   2.251   4.101  0.1502  0.0707  0.0386
25955W        W42139   3.690  15.505   4.357  0.2050  0.0363  0.0454
25956W        W42140   0.416  10.844   4.730  0.2730 -0.0417  0.0366
25957W        W42141   5.740  13.023   6.133  0.1830  0.0110 -0.0620
25958W        W42142   9.083  11.519  15.949 -0.2916 -0.1639  0.0055
25959W        W42143   1.500  14.771   5.678  0.0710 -0.2142  0.2031
25960W        W42144   9.297  10.448  14.824 -0.0179 -0.0836 -0.0953
25961W        W42145   7.150  11.585   2.323  0.5865  0.2414  0.0576
25962W        W42146   8.202  11.102   3.019  0.2672 -0.4608  0.0701
25963W        W42147   8.091  14.193   0.280  0.0683  0.2819  0.0156
25964W        W42148   0.157   7.706  15.925  0.2745 -0.0445 -0.1789
25965W        W42149   4.478   6.681   2.799  0.0018  0.1380 -0.1638
25966W        W42150   7.092   1.436   3.759 -0.0695  0.0321 -0.0218
25967W        W42151  15.641   1.999  13.510  0.1736  0.2146  0.0955
25968W        W42152   6.248   8.830   0.615 -0.1246 -0.0603 -0.1742
25969W        W42153  10.048  17.756   1.124 -0.2579 -0.2324 -0.2830
25970W        W42154   3.643  18.010   5.100 -0.0501  0.1139  0.3220
25971W        W42155  17.211   4.518  13.038  0.1052  0.0270 -0.4736
25972W        W42156  17.399   2.880   2.655  0.0822  0.0404  0.1639
25973W        W42157  16.275   5.726  14.029  0.0624  0.0818  0.1223
25974W        W42158  15.357  13.585  14.208  0.0309 -0.1872 -0.1140
25975W        W42159   7.099   2.475   3.593 -0.1442  0.0098  0.0586
25976W        W42160   3.159   6.782  11.840 -0.2882  0.2152  0.0861
25977W        W42161   1.250  16.876  14.123 -0.2869 -0.2031 -0.1614
25978W        W42162   8.962   2.814  16.363 -0.1999 -0.0021 -0.1410
25979W        W42163  12.874   7.506   4.648 -0.2390  0.0159  0.2437
25980W        W42164  12.096  12.894  13.223 -0.2722  0.1216 -0.0868
25981W        W42165   0.048  17.193   5.386  0.0427  0.1325 -0.0008
25982W        W42166   4.026   0.917  13.159  0.0431 -0.3688 -0.1417
25983W        W42167  14.604   7.459  14.523 -0.3025  0.1497  0.0582
25984W        W42168  14.442  16.418  15.760 -0.0637  0.1229 -0.1510
25985W        W42169  17.471   3.387   1.554  0.3528  0.1057 -0.0944
25986W        W42170   3.677   6.351  12.002 -0.2072  0.0246 -0.2062
25987W        W42171   4.583  17.707   2.465 -0.2851 -0.4690 -0.0998
25988W        W42172  14.005   5.592   0.231 -0.0167  0.0669  0.2578
25989W        W42173   1.046  13.572  14.439 -0.0633 -0.1824  0.0141
25990W        W42174  14.377  17.657  12.197 -0.0401 -0.2212  0.2534
25991W        W42175   4.448  16.359   3.189  0.0594 -0.1552 -0.3492
25992W        W42176   0.128  16.755   3.903 -0.2143 -0.1117  0.2759
25993W        W42177   9.063   7.305  12.429  0.0234  0.0724  0.0651
25994W        W42178   2.624  11.917   2.346  0.1186 -0.4539 -0.1573
25995W        W42179   8.522   1.743   4.759  0.0974 -0.0126 -0.1921
25996W        W42180  17.277   1.679  14.849  0.4055  0.0419  0.2698
25997W        W42181  16.295  11.577   3.337 -0.2567 -0.0189  0.4578
25998W        W42182   9.728  11.727  15.172  0.2243  0.2005  0.0223
25999W        W42183   2.653   6.529  12.782 -0.0851  0.2241 -0.0512
26000W        W42184   9.467  15.811   2.001 -0.1756  0.0646 -0.1962
26001W        W42185  15.742  11.286  15.565  0.1695 -0.1476  0.2486
26002W        W42186   4.454  12.839   3.305 -0.2980  0.1228  0.4616
26003W        W42187  13.984   8.757   2.063  0.3163  0.0828 -0.2203
26004W        W42188   4.440   7.791   0.984 -0.1236  0.1031 -0.1750
26005W        W42189  15.600  17.311   4.130 -0.0743  0.0620  0.2325
26006W        W42190  10.666   9.583  13.070 -0.0282  0.1017  0.0831
26007W        W42191  16.513  17.629  16.273  0.3905 -0.1193  0.1368
26008W        W42192   6.864   7.660  16.438  0.1993 -0.1409 -0.0576
26009W        W42193   1.144   0.680   0.654 -0.1276 -0.2760 -0.4343
26010W        W42194  10.725   2.569   2.025 -0.1361  0.0256 -0.0374
26011W        W42195   4.843   5.794   1.760  0.0697 -0.0059 -0.1855
26012W        W42196  15.902  15.415  11.521 -0.1609  0.2152 -0.0015
26013W        W42197   3.002  16.712  16.671 -0.0195  0.0976 -0.0197
26014W        W42198   0.177   5.611  10.891 -0.1804 -0.1764 -0.3667
26015W        W42199  10.053   5.576  10.633  0.0950 -0.0071 -0.0317
26016W        W42200   3.805   8.064  14.202  0.0959  0.2004  0.0606
26017W        W42201  11.431  13.682   5.638  0.1452 -0.0998 -0.1046
26018W        W42202  15.369   9.960   4.795 -0.1946 -0.1030  0.1800
26019W        W42203   4.265   4.005  12.124  0.0078  0.1145  0.1628
26020W        W42204  10.295   6.146   0.196 -0.1641  0.1071 -0.1084
26021W        W42205  11.550   9.394  14.463  0.0357 -0.2947  0.1229
26022W        W42206   5.898   2.136   2.217  0.0378  0.1111  0.0388
26023W        W42207   2.876   9.274   1.667 -0.0272 -0.1190  0.4629
26024W        W42208  14.019   5.829  13.382 -0.2397 -0.1330  0.1113
26025W        W42209   1.628   6.752  11.531 -0.2665  0.3920  0.1659
26026W        W42210   8.821  14.554   4.332  0.2860 -0.2173  0.3080
26027W        W42211  12.061  16.018   4.370  0.2168 -0.2099  0.0102
26028W        W42212  12.158   7.190  12.148  0.1819 -0.0246  0.2308
26029W        W42213   1.600   0.749  12.656  0.1883 -0.0814  0.2744
26030W        W42214  14.620   9.787  11.993 -0.1061 -0.3542 -0.1549
26031W        W42215  11.390   7.140  16.595  0.0864  0.0034  0.1174
26032W        W42216   9.017  12.918   1.821  0.2009 -0.0305  0.0536
26033W        W42217  16.429   5.286   1.562 -0.2691  0.0145 -0.0075
26034W        W42218  10.244  15.745   1.776  0.2912 -0.0077  0.1097
26035W        W42219   8.766  16.643   5.866 -0.1897  0.3336 -0.0015
26036W        W42220   1.180   8.521   4.844 -0.0322  0.0152 -0.2159
26037W        W42221  13.923   2.573   0.139  0.0466 -0.0108  0.1050
26038W        W42222  18.009  15.146   2.545 -0.0644 -0.0392  0.1520
26039W        W42223  16.576  14.503   4.854  0.1794 -0.2432 -0.0523
26040W        W42224   2.399   7.227  11.764 -0.0403 -0.0844  0.0887
26041W        W42225  16.898  18.166  16.406  0.2389 -0.0201  0.1803
26042W        W42226  16.902   9.799  15.243  0.1585  0.0480  0.0025
26043W        W42227   4.747   3.531  13.186 -0.1679  0.0626 -0.4105
26044W        W42228   0.549  12.710  12.738 -0.0880  0.0809 -0.2165
26045W        W42229   0.717   0.383   1.585  0.1415  0.1371 -0.0172
26046W        W42230   0.502  12.367  16.682  0.3016 -0.3109  0.0013
26047W        W42231   5.929  13.460  12.721 -0.0054 -0.0824  0.0036
26048W        W42232   2.682  13.333  15.837  0.2464  0.0154  0.0069
26049W        W42233   8.996   9.901   2.943 -0.0739  0.0336 -0.1422
26050W        W42234   2.314  16.215  16.550 -0.1115 -0.1776 -0.0544
26051W        W42235  13.916  11.860  15.212 -0.0133  0.0441  0.5371
26052W        W42236  14.840   6.523  14.599  0.0469 -0.2509 -0.0013
26053W        W42237  16.959  17.634  16.484  0.1990  0.0501 -0.0943
26054W        W42238   5.052  12.201  13.395 -0.0068  0.2275 -0.2480
26055W        W42239  14.314  16.718  12.494 -0.1040  0.1827  0.2265
26056W        W42240   1.353   7.032  15.586  0.0361 -0.2721 -0.2973
26057W        W42241   4.075   6.342  13.837 -0.0376 -0.1124  0.1890
26058W        W42242   0.310   5.012   0.769  0.0146 -0.1739  0.2750
26059W        W42243  10.565   3.270  14.529  0.1586  0.0920  0.2119
26060W        W42244  13.442   1.286   0.025 -0.2987  0.0625  0.0422
26061W        W42245  12.484   1.686  12.793 -0.0569 -0.1978 -0.0747
26062W        W42246   0.943  13.598  13.124  0.5868 -0.0112 -0.1376
26063W        W42247  18.053  17.684   3.669  0.0491  0.0048  0.0738
26064W        W42248  12.063  15.888  11.534  0.2768 -0.0582 -0.0932
26065W        W42249  16.598  16.444   0.758  0.0192  0.1536  0.2338
26066W        W42250   2.560  13.959   1.304  0.0242 -0.0518  0.1323
26067W        W42251  14.858   0.655   0.739 -0.2164  0.0226  0.2159
26068W        W42252   7.777   3.689   4.174 -0.0587  0.0676  0.0600
26069W        W42253   3.148  16.279   4.387  0.2196  0.0547 -0.0186
26070W        W42254   0.482   9.385   0.686  0.0969 -0.1668 -0.4170
26071W        W42255   2.535   2.579   3.133  0.2343 -0.2456 -0.4715
26072W        W42256   4.427   3.123   4.157 -0.1262 -0.2045 -0.0114
26073W        W42257   1.976  10.896  13.360 -0.2788 -0.1080 -0.2510
26074W        W42258   2.202  12.188  15.491  0.0240  0.2032  0.0817
26075W        W42259  17.769   6.419   3.696 -0.0069  0.2478 -0.0529
26076W        W42260   8.558  14.731   1.781  0.0729 -0.2356  0.3772
26077W        W42261  16.674  15.628  15.726  0.0107  0.0971 -0.2165
26078W        W42262  15.585  14.734   2.424 -0.0016  0.2015  0.0092
26079W        W42263  16.902   4.682  10.514  0.0390 -0.0604  0.0666
26080W        W42264   2.935   6.976  16.591  0.0955  0.0078  0.1518
26081W        W42265  14.257   6.283   0.735  0.0185 -0.2465  0.0385
26082W        W42266   4.860   5.538  12.934 -0.3230 -0.0748 -0.0686
26083W        W42267   4.326   6.478   1.566  0.0239 -0.0495 -0.0930
26084W        W42268   1.707  15.709  15.992  0.3634  0.0517  0.1327
26085W        W42269  17.628   1.752  12.438 -0.0324 -0.1065 -0.1148
26086W        W42270   3.362   5.418  13.378 -0.1443 -0.0793  0.0992
26087W        W42271   7.161  13.698  13.104 -0.1000 -0.0569  0.0627
26088W        W42272  11.639  15.474  15.518  0.1562  0.2598  0.1139
26089W        W42273  13.203  12.713  15.728 -0.1992  0.1214  0.1661
26090W        W42274  16.954  17.976  13.584  0.0527 -0.0516  0.1549
26091W        W42275   2.580   2.382   2.355  0.0981  0.1234 -0.1488
26092W        W42276  12.734  12.467  15.589 -0.0914  0.1288  0.1468
26093W        W42277   5.703  14.761   0.526  0.1942  0.1380  0.0142
26094W        W42278  11.948   2.716   3.534 -0.2056  0.1176 -0.0743
26095W        W42279   5.688  13.482  10.946 -0.0419 -0.1682 -0.1466
26096W        W42280   6.256  18.018  11.684 -0.0947 -0.3377  0.0537
26097W        W42281   4.050   0.496   3.504  0.0648  0.2486 -0.1550
26098W        W42282   6.627  10.951   5.776 -0.0307 -0.1486 -0.0867
26099W        W42283   3.077  10.311  14.024 -0.1952 -0.0248  0.2244
26100W        W42284   5.328  17.009   5.993  0.2580 -0.0251  0.3872
26101W        W42285   6.054  14.328  11.582 -0.1319  0.4110 -0.0309
26102W        W42286  15.567  17.546  16.358 -0.0514 -0.0859  0.0119
26103W        W42287  11.573  16.321   0.062  0.1065 -0.5626  0.2048
26104W        W42288   9.105  17.222  15.843  0.2879 -0.2741  0.2520
26105W        W42289   1.839  13.109  13.451 -0.5347 -0.1317 -0.1304
26106W        W42290  13.589  14.902   5.736  0.2002  0.1687 -0.3214
26107W        W42291   4.067  15.072   4.353  0.0396 -0.5073  0.0420
26108W        W42292  15.927   4.250  15.146 -0.2222  0.0776 -0.1476
26109W        W42293  12.687   9.225  12.973  0.0521  0.1944  0.1553
26110W        W42294  17.415  13.832  14.996 -0.0963  0.0072  0.1944
26111W        W42295   9.037   8.670   0.766  0.0367 -0.1124  0.1214
26112W        W42296   4.670  14.550   4.604 -0.0910  0.2943 -0.2337
26113W        W42297   9.529  13.981   2.326  0.1874 -0.1008  0.0802
26114W        W42298   6.058   1.620   2.298  0.2214 -0.4068  0.0847
26115W        W42299  12.729  12.376  11.622 -0.0940  0.0436  0.1638
26116W        W42300   3.369  14.284  12.565 -0.2823 -0.2536  0.1023
26117W        W42301   8.831   9.146   3.238  0.1731  0.1549 -0.0801
26118W        W42302  10.161   6.244  16.437 -0.2560 -0.1613  0.0186
26119W        W42303   3.411   2.612   3.618  0.1517 -0.1785  0.2670
26120W        W42304  10.954  17.318  15.724  0.2608  0.0571 -0.0044
26121W        W42305   4.217   7.295  12.000  0.1588 -0.2647  0.1712
26122W        W42306   1.656  10.724  14.348  0.0406 -0.3914 -0.1912
26123W        W42307   3.559   9.581   3.720 -0.0543  0.1277 -0.1481
26124W        W42308   5.278   5.297   2.584  0.1596 -0.0180 -0.2746
26125W        W42309   2.073   0.771  11.178  0.1530 -0.0371  0.1025
26126W        W42310   4.248  11.996   3.850  0.3401  0.4749 -0.0438
26127W        W42311   2.095  12.376  14.983  0.1907  0.4148  0.1551
26128W        W42312   8.360  13.612   1.059 -0.2603 -0.1878  0.0601
26129W        W42313  17.116  12.373  14.252 -0.3434 -0.2346 -0.0363
26130W        W42314  15.701  13.085  13.170 -0.0153  0.2672 -0.0271
26131W        W42315  15.851  16.352  11.576 -0.1335  0.0782  0.0386
26132W        W42316   8.930  16.465   2.770  0.0342  0.0026  0.2554
26133W        W42317   8.292   7.607   4.523  0.0256  0.0413 -0.3346
26134W        W42318   9.764  17.621  12.008  0.2324  0.4329  0.3681
26135W        W42319  10.139   9.467  13.267  0.0039  0.0706  0.0370
26136W        W42320   7.614   2.378  15.829 -0.0146 -0.1529 -0.3399
26137W        W42321   8.237  17.625  16.659  0.3550  0.0755  0.0812
26138W        W42322   9.744   9.782  12.636  0.1412 -0.3019 -0.1353
26139W        W42323  14.548  12.878  16.504  0.1144  0.3715  0.0053
26140W        W42324  17.645   3.194   0.107  0.0266 -0.0242  0.3193
26141W        W42325  15.087  12.350  13.762  0.0552  0.1544  0.0002
26142W        W42326  17.551  17.172   1.085 -0.0075 -0.2208 -0.1583
26143W        W42327   6.201   2.623  13.257  0.0949 -0.2456 -0.1389
26144W        W42328   1.232  17.681   2.821 -0.2064  0.2376  0.1899
26145W        W42329   8.500  15.083  12.868 -0.0789 -0.0600 -0.1571
26146W        W42330   7.067   2.934   0.372  0.3029 -0.0162 -0.0234
26147W        W42331  16.784  13.382  14.624 -0.0777 -0.0463 -0.2569
26148W        W42332   7.344  14.333   5.277  0.2989  0.5412 -0.2339
26149W        W42333  17.079   0.535   5.714  0.0384 -0.0377  0.0323
26150W        W42334  15.728  11.550  14.310 -0.4951  0.0674  0.0726
26151W        W42335   3.555   4.360   0.919  0.1702 -0.2053  0.2641
26152W        W42336  16.368   1.160   2.906  0.1828  0.2068 -0.1771
26153W        W42337   0.879   3.284   1.161 -0.2745 -0.0138 -0.0550
26154W        W42338   1.655   4.974  12.950  0.0992  0.0457 -0.1036
26155W        W42339   0.678  17.387  13.594  0.1413 -0.1187 -0.2648
26156W        W42340   4.393   7.377  13.134 -0.1162 -0.1350  0.0540
26157W        W42341  15.594   6.672   4.017 -0.3438 -0.4315  0.1453
26158W        W42342   7.490   7.291   3.863 -0.1288  0.0851  0.0476
26159W        W42343   5.887   6.075  14.235  0.2499  0.1668  0.4619
26160W        W42344  15.106   1.797  14.656 -0.3788  0.2709  0.1410
26161W        W42345   5.639  13.619  16.460  0.3085 -0.0565  0.0980
26162W        W42346   1.200   5.996   0.649 -0.1638 -0.0318 -0.0577
26163W        W42347   1.556   5.149   3.978 -0.1892  0.0301 -0.1055
26164W        W42348  17.492   1.555   2.539  0.0279 -0.0584  0.0289
26165W        W42349   5.997  16.330   6.723  0.2297 -0.0566 -0.2977
26166W        W42350  13.717  13.985  13.139  0.0393 -0.1482  0.2219
26167W        W42351   9.085   0.654   0.907  0.2661  0.0739  0.4389
26168W        W42352   5.801   1.034  14.372  0.0395  0.1997 -0.0633
26169W        W42353   5.346   8.393   0.168  0.2759 -0.0148 -0.2985
26170W        W42354  17.212  10.077   0.620 -0.0419 -0.0906 -0.1971
26171W        W42355   4.911   0.966   4.364 -0.1809  0.1465  0.4547
26172W        W42356   7.043  17.813   0.917 -0.4073  0.0346  0.4665
26173W        W42357   2.491   9.235  13.801  0.1354 -0.1719  0.4370
26174W        W42358   5.508   2.124   1.783  0.2167  0.0492 -0.0963
26175W        W42359   7.393  12.121  11.004  0.1279 -0.2395 -0.0606
26176W        W42360   8.768   1.297   2.981 -0.1095  0.1815 -0.3243
26177W        W42361   0.440  11.787  14.182 -0.1063  0.2559 -0.0885
26178W        W42362  11.203   7.186  13.472 -0.0665  0.2159 -0.2398
26179W        W42363   8.554  14.092  15.583  0.2261  0.0451  0.1502
26180W        W42364   6.063   3.298   5.117  0.1700  0.0070 -0.2736
26181W        W42365  13.982   5.672   3.139  0.0293 -0.2198 -0.2120
26182W        W42366   4.328  13.925   5.760 -0.4919 -0.2321 -0.0692
26183W        W42367   7.495   1.219   0.178  0.2099 -0.0477 -0.2108
26184W        W42368  15.491   4.753   3.674 -0.1567 -0.1110 -0.3091
26185W        W42369  13.553   1.178  12.349  0.0246  0.2272  0.2521
26186W        W42370   9.723  17.242  14.469 -0.1925  0.0631 -0.2318
26187W        W42371   8.322  12.678  12.450 -0.0445 -0.0639 -0.0510
26188W        W42372   1.062   9.087   1.095  0.0178  0.0095 -0.3609
26189W        W42373  14.555  10.533  15.541 -0.1565  0.0645  0.1504
26190W        W42374   8.487   5.591  11.386  0.1969  0.0593  0.1513
26191W        W42375  11.768   8.709   1.472 -0.0020  0.2036  0.0200
26192W        W42376  12.951   0.952   1.245 -0.0233  0.1719 -0.4150
26193W        W42377   8.965  13.735   6.250  0.1375  0.1774  0.3561
26194W        W42378  16.771   5.587   1.209  0.2852  0.2329 -0.1995
26195W        W42379   3.731  15.744   3.170 -0.1188 -0.1539 -0.3137
26196W        W42380  12.159   2.425  14.011  0.2550  0.2521 -0.0313
26197W        W42381  12.576  11.371  14.725  0.1069  0.0546  0.2875
26198W        W42382  14.218   8.402  11.339 -0.0623  0.1880  0.4284
26199W        W42383   9.473  12.337   5.179  0.1057 -0.1185 -0.3241
26200W        W42384   3.006   5.312  12.482  0.3221  0.2292 -0.1728
26201W        W42385   5.244   4.847  15.604 -0.0215  0.1269 -0.0749
26202W        W42386   2.223   5.615   3.137  0.1453  0.1322 -0.0288
26203W        W42387  18.147   2.746   1.094  0.1058 -0.4331  0.3597
26204W        W42388  17.720  14.390   2.021  0.1074  0.1319 -0.2567
26205W        W42389  10.638   3.272   1.144  0.1506 -0.0297 -0.0376
26206W        W42390   3.537  17.703  14.884 -0.1538  0.2148 -0.1465
26207W        W42391  15.615   8.939   2.847 -0.1620 -0.1339 -0.2091
26208W        W42392   9.288  11.721   2.091 -0.1296  0.1491  0.0428
26209W        W42393  10.859  17.717   4.057  0.2420  0.2381 -0.0960
26210W        W42394   7.335   1.055   4.914  0.2370  0.0560  0.0142
26211W        W42395  10.063   1.301   4.852  0.2953 -0.0278 -0.1909
26212W        W42396   3.994   4.298   4.980 -0.3245  0.2296  0.2124
26213W        W42397  14.708  13.192   2.703  0.0640  0.0588  0.1243
26214W        W42398   6.826  15.528   5.363 -0.1589  0.2229 -0.1515
26215W        W42399  10.295  17.216   1.261  0.0354 -0.0868  0.1275
26216W        W42400  10.292   4.056  12.917 -0.1666 -0.0834 -0.2347
26217W        W42401   5.756   2.919   0.224 -0.1182  0.1241  0.2474
26218W        W42402   2.747  14.009  15.042 -0.0656  0.0338  0.1299
26219W        W42403   0.334   9.405   2.625 -0.0984 -0.0970  0.2143
26220W        W42404   6.713  12.745  11.737 -0.2611  0.1035 -0.0949
26221W        W42405  16.686   7.608  12.405  0.1889  0.1122 -0.1571
26222W        W42406   5.023   6.506  14.970 -0.3211 -0.2893 -0.1551
26223W        W42407  15.657   8.349   5.014 -0.1887  0.1743 -0.0239
26224W        W42408  12.888   1.999   1.557  0.1218 -0.2416 -0.1190
26225W        W42409   6.803   8.196  16.639  0.1096  0.0431  0.0839
26226W        W42410  14.544   1.798  15.644 -0.1201  0.1629  0.0573
26227W        W42411   6.326   5.870  14.441  0.0376 -0.1671 -0.2373
26228W        W42412   5.319  16.380   3.084 -0.0500 -0.1057  0.0704
26229W        W42413  11.917   8.075  13.129 -0.2621  0.2598 -0.3003
26230W        W42414   4.989   6.481  11.126 -0.0323  0.4121 -0.0558
26231W        W42415  14.670  12.578   4.986 -0.1321  0.2100 -0.0300
26232W        W42416   0.224  10.869  11.930 -0.1050  0.1136  0.0560
26233W        W42417   3.866   6.448   5.245  0.3515 -0.1956  0.2373
26234W        W42418  14.596  10.101   0.344 -0.0556  0.1789  0.0290
26235W        W42419  17.910  16.892  13.335  0.0808 -0.0424  0.1687
26236W        W42420   0.862  14.243   4.723 -0.1491  0.2829 -0.0742
26237W        W42421   3.485  12.227   4.083 -0.0641 -0.2787 -0.0412
26238W        W42422   9.189   3.252   1.527 -0.1662  0.0970  0.2982
26239W        W42423   4.162   3.642  16.311 -0.3170 -0.0571 -0.2383
26240W        W42424   4.149  13.089  16.112  0.0909 -0.1302  0.1456
26241W        W42425   5.419   5.922   3.167  0.0278  0.2808  0.1789
26242W        W42426   8.221  14.442  13.832  0.2238  0.1149  0.1702
26243W        W42427  14.108  10.157  14.726  0.1597  0.3888 -0.0943
26244W        W42428  14.143   3.258   1.505 -0.2638 -0.0376 -0.2982
26245W        W42429   0.682  14.548  12.682 -0.0838 -0.2950 -0.2086
26246W        W42430   4.244  17.869   4.273 -0.0545  0.2000 -0.1481
26247W        W42431  12.343   6.690  13.792 -0.1145 -0.2815 -0.1259
26248W        W42432   5.051   1.340  11.527  0.0131 -0.0016 -0.1537
26249W        W42433  14.185   8.985  16.033 -0.3296  0.0608 -0.0085
26250W        W42434   0.265   6.796  15.728 -0.1984 -0.0284  0.0975
26251W        W42435  10.016   0.073   1.256 -0.1991 -0.2066  0.1483
26252W        W42436  13.411  16.029  13.686  0.1978 -0.5373  0.1186
26253W        W42437   2.664   5.136   4.667  0.0163  0.4664 -0.0020
26254W        W42438  16.771  10.318   2.272 -0.0121  0.0172  0.1339
26255W        W42439   3.804  11.885  14.737  0.0778 -0.0296  0.0730
26256W        W42440   1.107   3.953  13.263 -0.0203 -0.2842  0.3395
26257W        W42441  17.601  14.173   5.421  0.0181  0.0600  0.0734
26258W        W42442   6.948   0.269   2.755 -0.2000  0.0249 -0.1118
26259W        W42443   0.146  12.318   2.694  0.0366 -0.1154  0.0454
26260W        W42444   8.987  17.653   3.669 -0.0529  0.0033  0.6052
26261W        W42445   1.962   6.720   4.496 -0.1345  0.0123  0.0058
26262W        W42446  14.796  13.861  14.675  0.3133  0.1784  0.2508
26263W        W42447   0.260   2.196  12.170  0.0043 -0.1441  0.2547
26264W        W42448   5.761   5.385  12.816  0.1775 -0.1775  0.0313
26265W        W42449  11.975   7.368   5.479 -0.2591  0.0060 -0.0932
26266W        W42450   9.527   2.611  14.916 -0.1646  0.1327  0.0486
26267W        W42451  12.829  11.248  13.706 -0.1378 -0.0407 -0.0054
26268W        W42452  14.690   9.691   1.392  0.2363 -0.4291 -0.2026
26269W        W42453  17.870  10.528   2.290 -0.3367 -0.3552 -0.1721
26270W        W42454  14.072   6.900   5.028 -0.2588 -0.0161  0.2230
26271W        W42455  13.395   4.661   9.532  0.3339 -0.1032 -0.1354
26272W        W42456  14.313  11.754   4.456 -0.0548  0.1319  0.1881
26273W        W42457  12.419   5.686  14.461  0.0604 -0.1135 -0.1018
26274W        W42458   6.213   9.736  13.484 -0.3809 -0.2485 -0.2071
26275W        W42459  15.087   5.365   3.864  0.2465 -0.5019  0.0038
26276W        W42460   9.077   9.737  14.126  0.0301  0.1229 -0.1908
26277W        W42461   1.951  16.627  10.842 -0.1059 -0.1389 -0.0299
26278W        W42462  16.732   5.965   3.621 -0.0260  0.0134 -0.1636
26279W        W42463   0.717   9.920   4.887 -0.0886 -0.1776 -0.0494
26280W        W42464   1.632   2.593  15.280 -0.2282  0.1623 -0.3138
26281W        W42465   0.703  11.778   0.271 -0.3787 -0.0924  0.0792
26282W        W42466  15.853  11.480   3.527 -0.1258 -0.1579  0.3860
26283W        W42467  15.372  15.447   4.234 -0.4028 -0.0355 -0.3457
26284W        W42468   6.305   0.001   2.046 -0.0051 -0.1123  0.0957
26285W        W42469   6.448   2.536  12.795  0.2147  0.0854  0.4939
26286W        W42470  12.066   9.731  14.993  0.0002  0.1295  0.1654
26287W        W42471  14.563   2.327  14.994 -0.0513  0.1357 -0.0784
26288W        W42472   2.726   0.851   4.791 -0.0187  0.1294 -0.3747
26289W        W42473   8.659  15.231   3.782  0.2556 -0.0419 -0.3254
26290W        W42474  17.995  10.925   5.683 -0.1551  0.3945  0.1608
26291W        W42475  14.398   6.216   2.440 -0.3058 -0.1690  0.0411
26292W        W42476  15.309  13.442  11.922 -0.0270  0.2163  0.0706
26293W        W42477  15.630   6.837   0.118 -0.0489 -0.1901  0.0278
26294W        W42478   2.679  16.023  13.435  0.2801 -0.0568  0.1460
26295W        W42479  10.703   5.741   3.582  0.6783 -0.0535 -0.0626
26296W        W42480  15.951   1.619   4.293  0.0230 -0.2092 -0.1961
26297W        W42481   5.893   8.546   1.529  0.0302  0.2963 -0.5485
26298W        W42482  16.350  14.327  13.863 -0.0278 -0.2382 -0.1373
26299W        W42483   1.639  12.555  15.852  0.0345 -0.2964 -0.2043
26300W        W42484   4.296   5.969  12.420  0.1544  0.3034 -0.3256
26301W        W42485  13.290  12.723   2.131 -0.1138 -0.2366  0.1488
26302W        W42486   8.234   7.987  13.217 -0.1677 -0.1977 -0.1472
26303W        W42487   6.682   6.251  14.490  0.2641 -0.1775 -0.0445
26304W        W42488   7.465   3.812  14.304  0.2136 -0.2475  0.0698
26305W        W42489  11.218  12.436   5.436 -0.0444  0.0918  0.2374
26306W        W42490   4.850  14.669  13.849  0.0793 -0.2354  0.1152
26307W        W42491   8.928   5.955   1.321  0.1408  0.1179  0.0996
26308W        W42492   7.172  16.390  12.372  0.1111  0.0547 -0.0377
26309W        W42493   7.137   2.276   5.048  0.2428  0.3357  0.0889
26310W        W42494   7.117  12.251   4.962  0.2221 -0.3386  0.3640
26311W        W42495  12.311   6.183   0.023  0.1192 -0.1973 -0.3557
26312W        W42496   3.199   7.896  15.941  0.1137  0.3234  0.1268
26313W        W42497  17.258  14.737  16.012 -0.0122  0.0863  0.0918
26314W        W42498  12.640   2.208   3.615 -0.1336  0.2074 -0.0207
26315W        W42499   1.875   7.229   4.806 -0.0574  0.2158 -0.2135
26316W        W42500  17.061   6.349  12.795  0.3061 -0.0143 -0.2630
26317W        W42501  17.231  17.518   3.306  0.0982  0.0458  0.0441
26318W        W42502  11.333  10.646   5.600 -0.1592 -0.1766 -0.0979
26319W        W42503  11.981  11.884   3.627 -0.0189 -0.1543  0.3557
26320W        W42504   0.390  11.225   0.776 -0.0766 -0.1098 -0.1919
26321W        W42505  13.220  12.925   5.907  0.1096  0.0981  0.0233
26322W        W42506   4.377  14.983   3.072 -0.0329  0.2093  0.2948
26323W        W42507  17.248   1.731  12.845  0.1504  0.0940  0.0125
26324W        W42508  15.908   0.459   2.994  0.0874  0.2832  0.1846
26325W        W42509   8.190  16.420   3.576  0.2029  0.2136  0.3738
26326W        W42510  11.063  12.063   1.389 -0.1150 -0.0944  0.2676
26327W        W42511  12.580   3.617   0.093 -0.3428  0.4650 -0.2092
26328W        W42512  10.801  13.081  16.670  0.2855  0.0636  0.0493
26329W        W42513  12.750   4.546  16.303 -0.1433 -0.0882 -0.1432
26330W        W42514   4.518   7.392   1.322 -0.0297 -0.0925  0.5026
26331W        W42515  11.457  16.834  14.086 -0.1200  0.0668 -0.3862
26332W        W42516  13.035   7.171   2.503  0.0221  0.2666 -0.2938
26333W        W42517  12.686  16.656  14.097  0.1740  0.3942 -0.0215
26334W        W42518  10.591  15.163   6.359 -0.2814  0.3741 -0.3940
26335W        W42519   5.542   8.181   0.609  0.1705  0.0803  0.0918
26336W        W42520  17.502   3.063   4.463  0.0435  0.2795 -0.0824
26337W        W42521   0.324   4.404  15.251  0.0833 -0.0261 -0.4307
26338W        W42522   6.893   9.456   1.626 -0.1113  0.2417 -0.3113
26339W        W42523  18.151   0.543  16.049  0.0593 -0.1225  0.0202
26340W        W42524   3.135  16.657  15.283  0.1989  0.0449  0.2101
26341W        W42525  10.486   0.027   1.452 -0.2617 -0.0183 -0.1966
26342W        W42526   4.195  15.916   3.178  0.0539 -0.0497 -0.1118
26343W        W42527   9.139   1.388  13.007 -0.0106  0.5159 -0.0749
26344W        W42528   0.713   1.221  16.192  0.3558  0.1241 -0.0275
26345W        W42529   4.721   7.797  15.454  0.1480 -0.0848  0.1976
26346W        W42530   3.809   9.426   5.694 -0.2545  0.3365  0.0026
26347W        W42531   2.191   5.908   0.159 -0.2103 -0.0524  0.0204
26348W        W42532   0.413   3.915   1.804  0.0017  0.0481 -0.0251
26349W        W42533  12.395  12.262   1.875 -0.1871 -0.1438  0.2369
26350W        W42534  10.500  12.323   4.082  0.0676  0.1958  0.0462
26351W        W42535   4.612  12.900   0.254 -0.0115  0.0433 -0.0936
26352W        W42536   7.616   8.848  15.379  0.0703 -0.1477  0.0164
26353W        W42537   5.621  14.526   2.521  0.0180  0.0909  0.1023
26354W        W42538  14.084  12.819   4.448  0.1660 -0.1772 -0.2865
26355W        W42539  17.165  15.680  13.709 -0.1865 -0.2501  0.1348
26356W        W42540  13.152  13.326  11.736  0.0507  0.6462  0.0247
26357W        W42541  12.101  15.347  16.253  0.1393 -0.0052  0.0218
26358W        W42542  15.230   3.900   4.308  0.0805  0.1323 -0.2838
26359W        W42543   8.984  18.060   3.294 -0.0636 -0.0100 -0.0662
26360W        W42544   9.871   6.353   0.128 -0.2470 -0.4128 -0.1163
26361W        W42545  17.312  14.704   1.688  0.1155 -0.0894  0.2742
26362W        W42546  10.283   5.218   1.948  0.1915 -0.1882 -0.2174
26363W        W42547   0.504  12.551   5.487 -0.0712 -0.1113 -0.1313
26364W        W42548   5.503   2.117  12.826  0.1029  0.3300 -0.1876
26365W        W42549  10.274  10.372   4.168 -0.1099  0.0929  0.1691
26366W        W42550   6.342   5.074  16.523  0.1686  0.1459 -0.0827
26367W        W42551  13.312   8.958   3.507 -0.3068 -0.2811 -0.0578
26368W        W42552  14.661  17.380   5.024  0.0427  0.1748 -0.2820
26369W        W42553  11.901  16.285  11.976 -0.3547 -0.1491  0.1433
26370W        W42554  15.907   9.323  14.239  0.3392  0.0817  0.0086
26371W        W42555  16.794  18.133   2.894  0.1003  0.1418 -0.0075
26372W        W42556  16.114  12.863   1.208 -0.2501 -0.0367 -0.1666
26373W        W42557  11.775   6.451  16.022  0.3013 -0.1757 -0.1053
26374W        W42558   5.617   6.765   1.603  0.0187  0.0447 -0.0005
26375W        W42559   0.491  10.370   4.773 -0.0158 -0.2929 -0.1331
26376W        W42560   8.628   7.502  14.681 -0.0193 -0.0519 -0.1250
26377W        W42561  12.208   7.574  12.513 -0.1324  0.0620  0.0375
26378W        W42562  15.405  17.393  14.134  0.1488  0.1642 -0.0835
26379W        W42563  10.310   9.141  12.907  0.1467  0.0702  0.0117
26380W        W42564   2.049  10.266  16.435  0.0261  0.1463 -0.4815
26381W        W42565  12.805  11.946   1.039 -0.3192  0.3357  0.0575
26382W        W42566  10.566  10.264   5.664 -0.1375 -0.1067 -0.2428
26383W        W42567  12.820  18.062  16.133  0.0704  0.0335 -0.0587
26384W        W42568  14.939  17.033   5.256 -0.0269  0.1924  0.1511
26385W        W42569   3.642   8.521  12.523  0.1873  0.2183  0.3074
26386W        W42570   8.970  16.200  14.196  0.0882 -0.3418  0.0160
26387W        W42571   6.468   8.059  12.478  0.2079  0.0669 -0.2723
26388W        W42572  14.606   8.087  15.441 -0.1016 -0.1784 -0.1235
26389W        W42573   9.667   1.437   3.263 -0.0475  0.3711  0.1355
26390W        W42574  14.551  11.780  11.619 -0.1970  0.1164  0.1093
26391W        W42575  14.455   2.943  13.672  0.0729  0.1319 -0.1812
26392W        W42576   4.559  10.906   4.547 -0.2142  0.2389 -0.0680
26393W        W42577  15.253  13.462  12.500 -0.2279 -0.2579  0.2437
26394W        W42578   4.506   6.293   1.979 -0.0607  0.0452  0.0867
26395W        W42579   1.888  11.681  12.173  0.0047 -0.3298 -0.0585
26396W        W42580  14.286  13.994   5.094 -0.0622 -0.0843  0.1328
26397W        W42581   9.109   3.479   3.370 -0.0077  0.3189  0.0815
26398W        W42582   2.256  13.069  12.985  0.4664 -0.2830  0.0346
26399W        W42583   3.814   1.519   4.356  0.1381  0.0064 -0.3594
26400W        W42584  13.459   2.784   5.001 -0.1383  0.1504  0.1499
26401W        W42585   2.449   1.661   1.710 -0.1043 -0.2626  0.1010
26402W        W42586  11.028   6.102   2.334 -0.0167 -0.3998  0.0953
26403W        W42587  13.163   7.104  14.244 -0.0764 -0.1910  0.0580
26404W        W42588  14.920   5.304  14.170  0.0075 -0.1614  0.0156
26405W        W42589  12.666  17.820   0.383 -0.0350  0.2603  0.0390
26406W        W42590   1.356   1.501   4.579 -0.1495 -0.0689  0.2461
26407W        W42591  13.006  16.322  12.536  0.1921 -0.0486  0.0609
26408W        W42592  15.696   8.779  13.950 -0.0133 -0.0062 -0.1203
26409W        W42593  17.391  10.756  14.404 -0.0036 -0.0119  0.1397
26410W        W42594  16.111  11.274   2.526 -0.0821 -0.0181  0.2518
26411W        W42595   9.901   2.149  13.409  0.0703 -0.1084 -0.1036
26412W        W42596   4.562   3.626  13.796  0.0209  0.1319  0.1136
26413W        W42597   2.457   4.662  16.159  0.0929  0.1370  0.0318
26414W        W42598  12.133  17.306   1.093  0.0605  0.2499  0.1485
26415W        W42599  14.696   5.620   5.807  0.0978 -0.1002  0.1175
26416W        W42600   2.876   9.328  12.614 -0.1314  0.1141  0.1789
26417W        W42601   4.233   3.851   0.811 -0.1607  0.0885 -0.2061
26418W        W42602  17.713   9.252  10.609  0.0913 -0.0978 -0.1399
26419W        W42603  16.514   4.317  15.209  0.1435  0.0129  0.1296
26420W        W42604  14.931  11.683  14.428  0.4142 -0.0943 -0.1245
26421W        W42605  13.804  17.026  11.681  0.0275 -0.1748  0.4509
26422W        W42606   4.885   1.299  14.626 -0.0083  0.3251 -0.1934
26423W        W42607  13.301   4.628  15.068 -0.2535 -0.1435  0.0634
26424W        W42608  13.396  16.018   1.515  0.2056  0.0200  0.0784
26425W        W42609   7.637  17.161  13.050 -0.2459  0.2697 -0.0683
26426W        W42610  13.212  15.516   2.343  0.0445 -0.1153  0.1831
26427W        W42611   9.736  16.861  15.858  0.0788 -0.0733  0.0787
26428W        W42612  17.293  15.966   5.202 -0.0686 -0.1026  0.0983
26429W        W42613   7.374  12.872   1.923 -0.0163  0.1323  0.1205
26430W        W42614   4.460   3.975   1.315  0.1737 -0.0831 -0.0160
26431W        W42615  14.336  11.114   5.410 -0.2851 -0.2452 -0.0689
26432W        W42616  14.201   2.304  16.468 -0.3587 -0.0164  0.2134
26433W        W42617  16.926   6.413  13.327  0.0405 -0.4826  0.0758
26434W        W42618  16.212  11.787   2.800 -0.0923  0.0061  0.1895
26435W        W42619   2.090   4.328  14.055 -0.1500 -0.0181 -0.0509
26436W        W42620  17.940   9.810   3.809  0.2406  0.0600  0.1299
26437W        W42621  16.391   5.898  12.603 -0.2372  0.0411  0.2222
26438W        W42622  12.342  10.502   1.572 -0.0423 -0.0262  0.1027
26439W        W42623   4.208  16.210   1.838 -0.0043 -0.0777 -0.3299
26440W        W42624   5.588  16.652   0.502 -0.2836  0.2449  0.3179
26441W        W42625   1.267   4.868  10.358  0.0756  0.2699 -0.1759
26442W        W42626   2.175   6.253  12.717 -0.3120 -0.2280  0.3003
26443W        W42627  14.627  10.827   0.759  0.0253 -0.0470 -0.2085
26444W        W42628   8.718  16.854   0.243  0.0319  0.2894  0.0246
26445W        W42629   7.598  11.527   1.973 -0.0426 -0.1300  0.0865
26446W        W42630   2.739  15.687   3.354  0.0494  0.2878 -0.2021
26447W        W42631  12.277  15.658   1.727  0.0918  0.0348  0.0832
26448W        W42632  16.732  17.853   4.353  0.0747  0.0784  0.1554
26449W        W42633  17.725  17.460   3.297  0.0700  0.1247 -0.0543
26450W        W42634   3.289   2.673  11.580 -0.0876  0.1558  0.1449
26451W        W42635   0.257   2.772   2.556  0.1583 -0.2108  0.1424
26452W        W42636  16.073  17.282  12.937 -0.0706 -0.2444  0.0194
26453W        W42637  14.812   5.901  13.233  0.0964  0.0740 -0.0323
26454W        W42638   3.874  14.783  15.302  0.2253  0.1871 -0.2845
26455W        W42639   1.812  12.330  12.851  0.0321 -0.3122 -0.1697
26456W        W42640   0.842   8.615   0.468  0.1486  0.3640  0.0556
26457W        W42641   8.801   1.739  15.856 -0.2701  0.3145  0.1108
26458W        W42642  15.256  17.165  16.532  0.1323 -0.2708 -0.0940
26459W        W42643  11.774  16.391   4.052 -0.0220 -0.1016 -0.0063
26460W        W42644  13.417  10.210   1.136 -0.2850 -0.1245  0.1273
26461W        W42645  15.896   8.420  14.630 -0.0519 -0.4123 -0.0114
26462W        W42646   0.507   4.563   2.289 -0.0795  0.0542  0.1725
26463W        W42647   3.023  13.887   3.482  0.1495 -0.0860 -0.0016
26464W        W42648   0.572   7.686  10.958 -0.0250  0.0053  0.2273
26465W        W42649  13.116   8.324   4.259  0.2436  0.0574 -0.1582
26466W        W42650   8.061  10.075  14.966 -0.0678  0.4304 -0.1345
26467W        W42651   5.703   9.038  15.455 -0.2071 -0.0241 -0.1962
26468W        W42652  17.782  10.638   5.324  0.2231 -0.1404  0.0836
26469W        W42653   3.489   9.075  15.339 -0.0353 -0.1809  0.0160
26470W        W42654   4.735   5.957  12.690  0.2948  0.3209 -0.0886
26471W        W42655  11.702   4.940   2.342 -0.3693  0.4806  0.1781
26472W        W42656   6.521  15.458   3.787 -0.0730 -0.2084  0.0218
26473W        W42657  10.660   5.108  12.027  0.0249  0.1192 -0.0221
26474W        W42658   0.298  16.793  11.221  0.2848 -0.2677  0.1250
26475W        W42659   0.820   0.134  11.927 -0.0483 -0.0134  0.0865
26476W        W42660   6.151   6.402   1.236 -0.0074 -0.1886  0.0461
26477W        W42661  13.976   4.135  15.451  0.1432 -0.1787  0.2454
26478W        W42662  16.686   9.817  14.788  0.1450  0.2467  0.1075
26479W        W42663  15.182   0.141  13.287  0.2531 -0.0442 -0.2084
26480W        W42664  11.378  13.731  13.152  0.1323 -0.1991 -0.3205
26481W        W42665  10.230   8.779   2.883  0.1946 -0.2735  0.1469
26482W        W42666   9.111   9.604   5.410 -0.1084  0.1228  0.1719
26483W        W42667   0.651   6.423  14.580 -0.0060  0.1820 -0.0046
26484W        W42668   5.662  13.881  15.013  0.3166  0.4505 -0.2256
26485W        W42669  15.630  10.871   5.839 -0.1880  0.1852 -0.1566
26486W        W42670  11.835   9.641  16.013  0.0479 -0.0471 -0.0984
26487W        W42671  13.782   2.580  16.365  0.1088  0.1772  0.0965
26488W        W42672   0.453   8.424  11.123  0.0853 -0.2089  0.2545
26489W        W42673   8.239   4.787  13.946  0.0174  0.0494  0.2393
26490W        W42674   2.223  13.591  13.001 -0.1849 -0.1162 -0.0942
26491W        W42675  16.354   8.743  12.506 -0.2768 -0.2087  0.0120
26492W        W42676  15.981  12.290   4.887  0.0576 -0.0956  0.3082
26493W        W42677  17.073  14.228   2.880 -0.3136  0.3130 -0.2281
26494W        W42678   0.874   9.339  12.929 -0.0269  0.1450 -0.1537
26495W        W42679  12.973   5.619   4.060 -0.2133 -0.3770 -0.0989
26496W        W42680  11.790  17.055   0.688 -0.1002  0.0425 -0.1994
26497W        W42681   1.054  11.625   1.036  0.1054  0.3373 -0.3193
26498W        W42682  10.167   3.422   6.097  0.0247  0.0465 -0.2762
26499W        W42683   8.124  17.724  13.390  0.0113  0.2023  0.1432
26500W        W42684  15.190  17.600   0.003  0.0043  0.1281 -0.0644
26501W        W42685   9.967  13.672   4.700 -0.1497 -0.2280  0.2458
26502W        W42686   1.021  11.152  12.553 -0.1254  0.2060  0.1515
26503W        W42687   4.940   8.196  16.015 -0.1413  0.1461  0.1046
26504W        W42688   7.865  11.431   4.155  0.0250  0.1245 -0.3238
26505W        W42689   8.279   3.691   1.648 -0.3952 -0.1461  0.2622
26506W        W42690   2.434  11.431   2.208 -0.2644  0.1902  0.1017
26507W        W42691   7.655   1.785   2.136 -0.0776 -0.0884 -0.0050
26508W        W42692   6.952   4.099   2.607 -0.0933  0.4910  0.1086
26509W        W42693  11.599  12.766   2.135 -0.1186  0.0314  0.0339
26510W        W42694  11.984   0.062   2.087  0.4189 -0.3080  0.0253
26511W        W42695  14.329   8.683   0.914 -0.0575  0.1371 -0.1691
26512W        W42696   4.064   3.075   5.362  0.0461  0.0617 -0.0221
26513W        W42697  17.661   8.139  12.058  0.3728 -0.0982 -0.4278
26514W        W42698   1.592   0.813   3.470  0.1831 -0.1189  0.1148
26515W        W42699   3.759   0.543   3.934 -0.1480 -0.1722 -0.2976
26516W        W42700  14.634   9.120  15.754 -0.3648  0.2286  0.0129
26517W        W42701  10.573  13.775  15.588 -0.1588 -0.2233 -0.1220
26518W        W42702  10.744  14.844  13.879  0.0386  0.0380 -0.1554
26519W        W42703  16.989   6.241   1.523 -0.1314 -0.3027 -0.1486
26520W        W42704   5.234   4.244  13.321 -0.2580 -0.1069  0.2230
26521W        W42705   1.686  12.169   2.852  0.1596 -0.0711 -0.1441
26522W        W42706  12.748  11.643   1.986 -0.3313  0.1252 -0.3330
26523W        W42707  17.702   8.606   0.748 -0.2101 -0.0906 -0.1435
26524W        W42708   7.544  16.455  16.518 -0.2683 -0.1255 -0.0503
26525W        W42709  10.953   5.621   4.004  0.1733 -0.1543 -0.0017
26526W        W42710  10.713   6.878   0.306 -0.1010 -0.0192  0.0632
26527W        W42711  16.390   0.277   1.684 -0.4235 -0.0790 -0.1284
26528W        W42712   7.931   4.358   4.805  0.1864  0.0534 -0.2817
26529W        W42713  12.651  10.346  12.185 -0.4661  0.2182 -0.3395
26530W        W42714  14.331  12.988  14.564 -0.0293  0.2735 -0.1677
26531W        W42715   1.746  16.506  13.493  0.2558 -0.0224 -0.3596
26532W        W42716  10.530  16.619   2.301 -0.0610  0.4038  0.0045
26533W        W42717   2.575  11.534  13.698  0.2067  0.0144 -0.0164
26534W        W42718   7.723   6.348  14.248  0.4739 -0.5200 -0.0877
26535W        W42719  12.678  17.768   4.165 -0.3585 -0.0504  0.2299
26536W        W42720  11.070   5.267   4.826  0.3820 -0.3554  0.1168
26537W        W42721  17.406   7.960  15.279 -0.3549  0.2062 -0.1140
26538W        W42722   0.695   9.145  15.463  0.1609 -0.0602  0.1767
26539W        W42723   3.298  17.935  15.340 -0.2997  0.0739 -0.0005
26540W        W42724   3.499   4.046   4.727 -0.0038  0.1332 -0.1133
26541W        W42725  14.387   0.532  11.515  0.2244 -0.0719  0.1584
26542W        W42726   4.504  13.465  14.503 -0.1384 -0.5966 -0.1957
26543W        W42727   8.519   6.484   4.322 -0.1644  0.2367  0.3144
26544W        W42728   6.472   6.702  14.618 -0.3773  0.1063  0.1310
26545W        W42729  15.493   4.123   4.637 -0.1845  0.2573 -0.1249
26546W        W42730   1.650  17.460   1.197 -0.0771 -0.0098 -0.3274
26547W        W42731   6.247  10.186   4.666 -0.0299  0.3323 -0.1270
26548W        W42732  13.712   0.728   1.455 -0.2676 -0.0372  0.3097
26549W        W42733  10.446  12.664   1.077 -0.0575  0.1255  0.0189
26550W        W42734  11.151  11.441  13.710 -0.1038 -0.1121  0.1980
26551W        W42735   1.672  13.869  13.937 -0.0608  0.4634 -0.2590
26552W        W42736  15.655  11.691  11.770 -0.1519 -0.1383 -0.0159
26553W        W42737  14.448  17.632   0.732 -0.2217 -0.1383 -0.2824
26554W        W42738   5.987  16.511  13.078 -0.0842 -0.0929 -0.4876
26555W        W42739   5.699   9.397  14.980 -0.0314 -0.0518  0.1657
26556W        W42740   9.701  12.241   0.626 -0.4209 -0.2488 -0.0050
26557W        W42741  17.038   4.286   3.626  0.2089  0.2043 -0.0903
26558W        W42742   2.851   1.798  16.605  0.2892 -0.1462 -0.1661
26559W        W42743   6.363  13.743   2.967 -0.3908 -0.2440 -0.1263
26560W        W42744  14.207   0.812   5.404  0.0425  0.1105 -0.1043
26561W        W42745  14.783   6.667  11.297 -0.0444  0.0179  0.4204
26562W        W42746   3.013   5.204  10.888 -0.1120 -0.0721 -0.3103
26563W        W42747  10.909  12.908   2.826 -0.1572 -0.1507  0.1156
26564W        W42748  12.481  17.897   2.473 -0.3238 -0.0548 -0.2552
26565W        W42749  16.826   2.657   0.297 -0.3125 -0.1008  0.1298
26566W        W42750   9.318   2.228  16.574 -0.1140  0.2366  0.1048
26567W        W42751  13.526  16.708   3.502  0.2024 -0.1579 -0.1650
26568W        W42752   9.775   4.169  15.448 -0.2801  0.0281  0.0677
26569W        W42753   9.738   5.844  15.416 -0.3071  0.1793 -0.1057
26570W        W42754  12.271  11.742   1.886 -0.1365 -0.1180 -0.3183
26571W        W42755   2.188  10.527  14.963  0.0529 -0.0805 -0.1064
26572W        W42756  14.817   9.748   1.887 -0.0783  0.3400 -0.0678
26573W        W42757   4.246  14.414  13.507  0.2846  0.1251 -0.0234
26574W        W42758   6.886   4.135   2.011  0.2282  0.5374 -0.1194
26575W        W42759  15.792   6.910   0.617 -0.4107  0.2984 -0.0492
26576W        W42760   8.430  10.758  15.426 -0.3951 -0.0128 -0.0418
26577W        W42761   7.609  12.838   3.709  0.0595 -0.0703 -0.1081
26578W        W42762  15.514  11.162  12.643  0.2149 -0.0474 -0.2498
26579W        W42763   4.079   3.211  15.490  0.1245  0.1954  0.2190
26580W        W42764   0.757   2.831   5.274 -0.2319 -0.0000  0.1460
26581W        W42765  14.138  13.432  13.283  0.3257 -0.0483  0.0095
26582W        W42766   1.255   0.213   5.104 -0.0538 -0.3833  0.2285
26583W        W42767  15.997  17.707   2.286  0.3448 -0.0864  0.1588
26584W        W42768   6.711  11.942   5.164 -0.0686  0.3566  0.2981
26585W        W42769  10.394  14.174  15.799 -0.1503  0.0279 -0.1321
26586W        W42770  10.982   0.281   3.534  0.0327 -0.2050 -0.0186
26587W        W42771  14.210   4.549  12.709  0.1633  0.0388 -0.0329
26588W        W42772   8.108  10.109  15.969  0.2874  0.0301 -0.1719
26589W        W42773  17.716  12.929  14.836 -0.1122  0.1218  0.0612
26590W        W42774  15.342  10.043  16.464  0.2457 -0.0404  0.1190
26591W        W42775  13.952  18.066   0.095  0.1031  0.0018 -0.0933
26592W        W42776  17.829   5.003   4.384 -0.0179  0.0632  0.1635
26593W        W42777   3.607  15.857   6.280 -0.1877 -0.1567  0.3084
26594W        W42778   1.853   3.201  15.556 -0.1723 -0.5398 -0.2400
26595W        W42779  13.877   5.196   2.803  0.1438  0.1081  0.2774
26596W        W42780   0.916   6.084  16.550 -0.1343 -0.5596 -0.1516
26597W        W42781   3.097  14.473   0.370 -0.4822 -0.1320  0.1533
26598W        W42782  15.706   8.384  11.794  0.1329  0.2293 -0.0668
26599W        W42783   4.516  16.272   2.213 -0.3123 -0.1405 -0.1794
26600W        W42784   3.955  14.525  13.111 -0.1543 -0.0271 -0.0996
26601W        W42785   2.856   0.724  13.422  0.1422 -0.0639 -0.2631
26602W        W42786  12.636  12.514   1.511 -0.0588  0.0162  0.2696
26603W        W42787   7.119  12.862  15.913  0.0748 -0.1265 -0.0507
26604W        W42788   2.317  17.880  12.933 -0.0501 -0.2714 -0.0307
26605W        W42789   3.044   9.202  16.628  0.1087  0.2495 -0.0298
26606W        W42790   4.071  13.578   0.189 -0.1366 -0.2181 -0.1397
26607W        W42791  10.668   9.067   2.893 -0.0860 -0.3227  0.0058
26608W        W42792  17.054  10.778  16.498  0.0428 -0.0391 -0.0933
26609W        W42793   8.123   7.279   3.227  0.0204  0.0788  0.0627
26610W        W42794   2.179  12.131   0.620 -0.0559 -0.1615  0.0086
26611W        W42795  14.311  10.576   1.580  0.0531 -0.0731 -0.1167
26612W        W42796   2.802   9.102  16.191 -0.1914  0.1931  0.0427
26613W        W42797   1.053   2.907  16.043  0.2937  0.0445 -0.1586
26614W        W42798  11.480   0.335  16.025  0.0235  0.0600  0.2119
26615W        W42799   5.774   4.481   4.163  0.0004  0.0769  0.3601
26616W        W42800  13.084   3.898   1.708  0.0798 -0.0308  0.2884
26617W        W42801  16.623   7.190  14.873 -0.2035  0.1055 -0.1219
26618W        W42802  14.722   8.344   2.496  0.1604  0.0940  0.1036
26619W        W42803   7.883   9.074  12.429 -0.0684 -0.0735 -0.2206
26620W        W42804   1.853  16.082  13.249 -0.0819 -0.0025 -0.1256
26621W        W42805   3.684  14.191  14.420 -0.0827 -0.2729  0.1508
26622W        W42806  10.642  14.659  16.561  0.1565  0.0817 -0.1683
26623W        W42807  10.323   9.901  13.331  0.0265 -0.0495 -0.0568
26624W        W42808  16.168  16.291  16.553 -0.2714 -0.1285  0.2550
26625W        W42809   6.488   1.441  13.115  0.0477 -0.6090  0.0258
26626W        W42810   3.144  17.391   1.586 -0.0486  0.1420 -0.1576
26627W        W42811  13.307   9.507   1.418  0.1389  0.1389  0.4071
26628W        W42812  12.866   4.883  13.283 -0.1786  0.3313 -0.2345
26629W        W42813  14.584   9.649  13.519  0.0896 -0.3129 -0.2658
26630W        W42814  13.259   5.097  11.894 -0.3261  0.0894 -0.0027
26631W        W42815   2.789   4.685   1.930 -0.0136 -0.1752 -0.1790
26632W        W42816   1.163  16.453  12.752 -0.0277 -0.2551  0.1735
26633W        W42817   9.507  16.343  15.520 -0.0543 -0.2451  0.3660
26634W        W42818   8.544   7.808  15.100  0.1488  0.1938 -0.0662
26635W        W42819   7.265  12.897  14.946 -0.4123  0.2635 -0.2042
26636W        W42820  15.078  17.943   2.552 -0.1010 -0.2027 -0.3677
26637W        W42821   0.139   9.711  13.747 -0.1174  0.2494 -0.1188
26638W        W42822   3.062  17.090   5.471  0.0622 -0.0319 -0.2978
26639W        W42823  13.434   4.671  13.310 -0.2948 -0.0897 -0.2876
26640W        W42824  16.188   7.334  11.168 -0.2420  0.0945 -0.0184
26641W        W42825   4.912   3.274   3.866  0.0445  0.0183 -0.1316
26642W        W42826   0.285   4.183   0.846 -0.2922 -0.1592 -0.1140
26643W        W42827   0.475   1.423   4.889  0.4560 -0.0570 -0.0786
26644W        W42828   4.174  16.856   5.523  0.0725  0.0986 -0.0452
26645W        W42829  13.419  12.393  12.923  0.1759 -0.1380 -0.1122
26646W        W42830  18.113   9.212  14.837  0.0955  0.3080 -0.0078
26647W        W42831   2.922   5.781  12.199  0.0957  0.0264 -0.0283
26648W        W42832  17.627  10.076  13.585  0.0825 -0.0633  0.1719
26649W        W42833   6.690  11.118  12.610 -0.2491  0.0412 -0.1853
26650W        W42834  15.580   4.706  14.894 -0.2509 -0.1088 -0.5530
26651W        W42835   7.776  17.105   5.335  0.0505 -0.1315 -0.2621
26652W        W42836   6.174   3.828   3.154 -0.0016 -0.1116  0.3449
26653W        W42837   3.725  15.106  16.395  0.3513  0.2005 -0.2084
26654W        W42838   4.338   1.789  15.302 -0.2676  0.2091  0.0421
26655W        W42839   2.968   7.414   3.197  0.3126 -0.1019  0.2040
26656W        W42840  10.707  11.758   5.718  0.4077  0.1792  0.0182
26657W        W42841   2.843   9.314  15.742 -0.1810  0.0864 -0.0149
26658W        W42842  10.483   8.693  13.131 -0.2905 -0.1221 -0.0050
26659W        W42843   7.340   2.952  12.692 -0.0017 -0.0446  0.0998
26660W        W42844   0.820  11.995  16.512 -0.1669 -0.2732 -0.1940
26661W        W42845   9.942  14.793   2.783 -0.0294  0.2168 -0.0008
26662W        W42846  16.428  12.111   1.881 -0.1019 -0.1663 -0.1086
26663W        W42847  10.290  14.989   0.945 -0.0097  0.2317  0.1318
26664W        W42848   2.634   6.428  15.730  0.4695  0.3139  0.0713
26665W        W42849  11.773  13.259   3.364  0.0783  0.2609  0.0635
26666W        W42850  15.543   5.468   0.077 -0.1037  0.0445 -0.1321
26667W        W42851   1.256  15.887  15.987  0.2232  0.2437 -0.0689
26668W        W42852   7.588  13.698   4.655 -0.0838 -0.2632 -0.0418
26669W        W42853  11.983  11.080  13.274  0.1827 -0.2104 -0.2839
26670W        W42854  15.869   5.806   0.223  0.1446  0.1661  0.0818
26671W        W42855   7.083  16.038  12.715  0.1161  0.3655  0.0639
26672W        W42856   0.585   3.856   3.770  0.1750  0.3533 -0.0787
26673W        W42857   2.322   9.579  15.142 -0.2552 -0.0421  0.1427
26674W        W42858   6.582  13.147   0.491  0.0896  0.0761 -0.0361
26675W        W42859  11.000   5.665   1.608 -0.1865  0.1159  0.2694
26676W        W42860   5.477   8.791  12.310 -0.1005 -0.0281 -0.0670
26677W        W42861   5.014   8.774   1.735 -0.0027  0.1176 -0.0435
26678W        W42862  16.622   5.510   3.826  0.1936  0.0706  0.0176
26679W        W42863   9.316   5.022  15.477  0.0470  0.2177  0.1905
26680W        W42864  17.608   7.656  11.961  0.2670 -0.0250 -0.2498
26681W        W42865  15.658   3.941  16.200  0.2237 -0.1725  0.0284
26682W        W42866   2.559   9.579  13.453  0.4307  0.2196  0.2963
26683W        W42867   4.749   3.449   4.343 -0.1535  0.0379 -0.1286
26684W        W42868  13.013  12.040   3.682 -0.1042  0.2453  0.0689
26685W        W42869   0.273   9.345  12.067  0.0475 -0.0015  0.1560
26686W        W42870   2.706  10.764   4.906 -0.0957  0.2174 -0.3807
26687W        W42871  16.354  16.975  13.214 -0.0972 -0.2649 -0.1209
26688W        W42872   1.032   4.968   2.989 -0.2651 -0.0225 -0.1231
26689W        W42873  14.617  12.697  11.705  0.2758  0.0135  0.0780
26690W        W42874   0.037   4.664   4.100  0.1842  0.1062 -0.4097
26691W        W42875   7.807   5.937   2.609  0.0489 -0.0335 -0.2107
26692W        W42876   2.633  16.212   4.279 -0.0335 -0.0682 -0.2080
26693W        W42877  12.833   7.784  16.641  0.2859 -0.0003  0.0503
26694W        W42878  10.235   2.118  16.369  0.0133 -0.2288  0.1059
26695W        W42879   6.654  10.956  11.491  0.0824 -0.1608  0.0295
26696W        W42880   7.460   4.935   0.259 -0.0526 -0.2502 -0.0770
26697W        W42881  16.693   0.312   0.825  0.1670  0.2676 -0.1485
26698W        W42882   4.115   5.217   2.965 -0.1302  0.0106 -0.1892
26699W        W42883   3.125  17.175   4.019  0.2525  0.1560  0.1118
26700W        W42884  10.306   7.460  14.022  0.1208  0.1419 -0.0812
26701W        W42885   3.718   3.139  11.210 -0.1096  0.1768  0.0764
26702W        W42886   6.822   5.023   3.754  0.0821 -0.0138  0.2148
26703W        W42887  14.365  16.123   3.491 -0.1401  0.0770 -0.0491
26704W        W42888   6.027   6.094  13.154  0.0985 -0.0563 -0.0533
26705W        W42889  14.819  14.600  13.350 -0.0365  0.1131  0.1019
26706W        W42890   2.166  16.712  13.148  0.1290 -0.1676 -0.0399
26707W        W42891   5.327   3.009   1.025 -0.3164 -0.1040 -0.4351
26708W        W42892   1.603   4.813   3.632  0.0951  0.2125  0.1361
26709W        W42893   8.674  10.333   2.653  0.2693  0.1201  0.0961
26710W        W42894   2.446   9.209  12.220  0.1849 -0.0143 -0.1643
26711W        W42895   7.448  10.633   3.844  0.0182  0.0401  0.1723
26712W        W42896   7.368   1.284   4.215  0.3148 -0.0919 -0.0776
26713W        W42897   7.931   6.618  16.626  0.0059  0.0614  0.0065
26714W        W42898   8.910  14.334  12.667 -0.2028 -0.0990  0.0557
26715W        W42899   4.038  11.748   5.282 -0.0853 -0.1476 -0.3348
26716W        W42900   9.517  11.955   4.747 -0.0840  0.0622 -0.0183
26717W        W42901  16.959  10.735  12.618 -0.1802 -0.0649 -0.3034
26718W        W42902  14.623   8.006  11.360 -0.0388  0.1492 -0.2993
26719W        W42903  14.462  15.366   0.404  0.1201  0.2243 -0.2191
26720W        W42904   0.212   3.146   4.600  0.0972 -0.0046  0.2113
26721W        W42905  16.661   3.491  10.465 -0.2406  0.2445  0.5736
26722W        W42906   6.160   9.119   5.609  0.1014 -0.0333 -0.3596
26723W        W42907  17.666  11.319  14.700 -0.1391 -0.2081 -0.1589
26724W        W42908  12.461  12.363  16.410  0.3166  0.0905  0.0805
26725W        W42909   3.762   5.304  12.145 -0.2964  0.1223  0.1133
26726W        W42910  17.219   8.991  12.072 -0.0274  0.2704  0.1596
26727W        W42911   8.201  17.162  13.371  0.1141  0.0535 -0.0015
26728W        W42912   7.084  17.204  14.590 -0.1040 -0.1936 -0.2509
26729W        W42913  15.928  10.283   2.364 -0.0180 -0.0658  0.0214
26730W        W42914   5.427   3.790  11.605  0.1118  0.2502 -0.0926
26731W        W42915  11.867  18.072  14.883 -0.1957 -0.0220  0.3962
26732W        W42916  14.655  12.611  12.207  0.2271 -0.1743  0.0945
26733W        W42917  15.674   6.493   1.868  0.2592 -0.0892 -0.0424
26734W        W42918  13.963  11.778   0.225  0.1438 -0.2504  0.1553
26735W        W42919  10.639  10.835  15.232 -0.0428  0.0232  0.0780
26736W        W42920   9.639  12.016   0.112 -0.0913 -0.1331  0.0196
26737W        W42921   4.344   7.147  16.174  0.0381  0.1578  0.2947
26738W        W42922   9.346   4.592   4.639 -0.2857  0.0841  0.0226
26739W        W42923  16.895  12.167   2.858  0.0119  0.3053 -0.0853
26740W        W42924   4.879   3.131  11.263 -0.0169 -0.1018 -0.0847
26741W        W42925  10.353   8.683   5.178 -0.0280 -0.0473 -0.0541
26742W        W42926   0.790   9.180  11.153  0.0768  0.0216  0.2329
26743W        W42927   1.124   0.142  16.391 -0.1855 -0.1990 -0.2149
26744W        W42928   7.118   2.891   3.900  0.1686  0.0814  0.2729
26745W        W42929   0.664   0.831  16.562  0.0935  0.0088 -0.0459
26746W        W42930   8.620  10.506   1.727 -0.0789 -0.1923  0.1790
26747W        W42931   4.537   3.141   4.662 -0.0046 -0.0179 -0.0656
26748W        W42932  10.417  12.537  15.101  0.4998  0.0936 -0.0683
26749W        W42933   7.996  16.978  12.754 -0.0035  0.0992  0.1354
26750W        W42934  11.635  15.505   2.968  0.2269 -0.0576  0.1650
26751W        W42935   4.984  15.099   4.239  0.1263  0.2216  0.0107
26752W        W42936   4.397  17.172   5.927  0.1732 -0.0338  0.3431
26753W        W42937   7.220  16.244   2.460  0.1568  0.2863 -0.1180
26754W        W42938  17.026  18.131   4.686 -0.1302  0.1168 -0.1501
26755W        W42939  17.414   6.081   0.954  0.1265 -0.0604  0.0015
26756W        W42940   8.230  10.389  13.771  0.1623  0.0081 -0.0618
26757W        W42941   3.813   7.790   5.316 -0.0130 -0.1928  0.0515
26758W        W42942   5.873  12.254  16.611  0.3657  0.3073  0.1066
26759W        W42943   0.408   7.980  16.602  0.0749  0.4661 -0.1461
26760W        W42944  13.929  14.949   5.342  0.5443 -0.0948  0.0116
26761W        W42945   1.794  11.418   1.426  0.0744 -0.0255  0.1576
26762W        W42946   5.732   9.253   2.994  0.2030 -0.0880  0.1464
26763W        W42947  17.443   6.150  13.072 -0.0097  0.0597  0.3470
26764W        W42948  11.551   8.853  14.290 -0.0504 -0.1593 -0.0727
26765W        W42949   6.608  10.105  14.924 -0.2344 -0.3808  0.0793
26766W        W42950  10.262   3.839   0.171 -0.0166 -0.2292 -0.2058
26767W        W42951   8.343  11.560   3.205 -0.2851  0.2599 -0.0346
26768W        W42952  13.772   8.202   5.066 -0.1270 -0.0234  0.1121
26769W        W42953   9.137   5.654   2.481 -0.1113  0.1775 -0.3979
26770W        W42954  10.055   5.704   1.817 -0.0102 -0.3462 -0.0346
26771W        W42955   0.368   8.837  10.323 -0.3336  0.1762 -0.1725
26772W        W42956  16.489   7.553   3.525  0.1160  0.0238  0.0234
26773W        W42957   7.375  10.568   5.188  0.4500 -0.0781  0.1523
26774W        W42958  13.808   0.933   1.930  0.1443 -0.0545 -0.1791
26775W        W42959  14.438   4.039   0.425 -0.2032  0.1839 -0.0854
26776W        W42960   5.311   3.581   4.917  0.0862  0.1532 -0.0039
26777W        W42961  18.110  13.880  14.571 -0.1723  0.4739  0.1782
26778W        W42962   6.547   6.174  15.904  0.2807 -0.3858  0.0581
26779W        W42963  14.143   6.447  15.851  0.1790  0.2626  0.1958
26780W        W42964   8.563   7.131   0.736  0.3020 -0.1711 -0.2342
26781W        W42965   8.606   4.843  13.535 -0.0608  0.0817 -0.4483
26782W        W42966   8.421  17.674  14.765  0.1656  0.3079 -0.0293
26783W        W42967  11.787  17.272  15.486  0.0378 -0.2352  0.0015
26784W        W42968   9.421   6.028   0.160 -0.0420 -0.2994  0.3170
26785W        W42969   3.590  12.403   2.270 -0.1453  0.1656 -0.0080
26786W        W42970  16.813   6.215   0.987  0.0970 -0.0639 -0.1772
26787W        W42971   9.967  16.240  12.648  0.0033 -0.0287  0.2925
26788W        W42972  11.525   7.014  14.264 -0.0003  0.2190  0.2973
26789W        W42973  17.000  16.718  12.533 -0.2033  0.0680 -0.0294
26790W        W42974   9.129   0.118  12.317  0.0430 -0.0925  0.0692
26791W        W42975   8.840  14.136   1.550 -0.0937 -0.0599  0.0161
26792W        W42976   0.864   6.633  11.662 -0.0126 -0.0463  0.1184
26793W        W42977   1.461  13.549  14.180  0.0095 -0.0987  0.1249
26794W        W42978   7.165  17.021  15.076 -0.1683  0.0352 -0.0500
26795W        W42979  12.601   2.559  11.700  0.1153  0.0173  0.0726
26796W        W42980  14.898   8.576  15.240  0.1313  0.1510 -0.1239
26797W        W42981  15.103  11.319   2.079  0.0366 -0.0835  0.1942
26798W        W42982  10.313   3.825   6.417 -0.2413 -0.0985 -0.1423
26799W        W42983  13.826   4.742  16.619  0.0206 -0.2002 -0.1030
26800W        W42984  17.412   2.890  10.735  0.1047 -0.0950 -0.1672
26801W        W42985   7.679   2.150   4.253  0.1560 -0.1844  0.2284
26802W        W42986   2.165   1.933  11.987 -0.1457  0.0102  0.2514
26803W        W42987   8.122   1.553   2.298  0.3396 -0.2851  0.1024
26804W        W42988   2.323  17.523   4.656  0.2329  0.4430 -0.1351
26805W        W42989   9.309  14.814   3.636  0.4097  0.2126  0.0520
26806W        W42990   0.642   6.691   1.347  0.3468  0.4129  0.0606
26807W        W42991   0.545   5.855   0.108 -0.0260 -0.2040  0.0440
26808W        W42992  12.732   3.281  16.393  0.3617  0.2207  0.0621
26809W        W42993  10.595  14.340  12.537 -0.1286  0.1476 -0.0496
26810W        W42994   4.328  10.022  13.718 -0.4280 -0.0210  0.1055
26811W        W42995  11.247   8.944  12.601  0.2108 -0.0119 -0.2428
26812W        W42996   8.575   0.321   2.125  0.1366 -0.0950  0.2996
26813W        W42997  17.994   9.235  12.376 -0.0781 -0.0686  0.5912
26814W        W42998  10.956  16.166   4.587  0.1687 -0.0620  0.1555
26815W        W42999   4.029   8.635  12.902  0.0022  0.0040 -0.0327
26816W        W43000  10.164  12.573   5.780  0.0501  0.2089 -0.2971
26817W        W43001  13.066   6.353   1.356 -0.1054 -0.0195  0.2191
26818W        W43002  10.713   2.804   3.281 -0.0523 -0.0324  0.2692
26819W        W43003   0.514  12.309   4.291  0.4320 -0.2017 -0.1418
26820W        W43004   9.268   5.807   1.982  0.2520  0.0577  0.4448
26821W        W43005  15.273  17.799  14.427  0.2341 -0.3128 -0.2306
26822W        W43006   4.474  16.031   4.030 -0.0631 -0.0343 -0.0729
26823W        W43007  15.065   1.446   5.359  0.2978 -0.1506  0.2237
26824W        W43008   0.891   6.885   4.249 -0.1139  0.0401  0.1297
26825W        W43009  18.142   7.091  11.367 -0.0370 -0.2746  0.0629
26826W        W43010  13.288  17.937  16.210  0.1820  0.0482  0.2441
26827W        W43011   6.046   8.481   5.853  0.2457  0.0474  0.0661
26828W        W43012   9.712  11.707   2.342 -0.0755 -0.0308  0.1549
26829W        W43013  11.403  13.001  12.414  0.3905  0.0398  0.2564
26830W        W43014   2.584   1.903   2.178 -0.0246  0.0127 -0.0775
26831W        W43015   8.091  12.942   0.390  0.2327  0.4833 -0.2994
26832W        W43016   8.215  11.397   6.416  0.1671  0.2072 -0.0459
26833W        W43017  13.324   4.931  14.691 -0.1562 -0.1387  0.1849
26834W        W43018  14.175  12.200   2.001  0.2321 -0.2186 -0.2262
26835W        W43019  11.656   4.769   0.821  0.2781  0.1152 -0.0896
26836W        W43020  14.404  16.334   1.779 -0.2448 -0.0693  0.0046
26837W        W43021  15.116  14.329  15.307  0.0448  0.0417 -0.2037
26838W        W43022  13.213  13.398  13.032  0.2846  0.0861 -0.1190
26839W        W43023  15.345  17.406  12.198 -0.1028  0.0999  0.0277
26840W        W43024   8.528  16.227  13.269  0.0065 -0.0912  0.0443
26841W        W43025  12.248   7.932   0.430  0.1311  0.1919 -0.0618
26842W        W43026  14.508   8.274  13.317 -0.3172 -0.1990 -0.1748
26843W        W43027   9.356   6.803   3.868  0.0588 -0.1553  0.2548
26844W        W43028  17.822   5.627   0.161  0.1987 -0.1986  0.2185
26845W        W43029   8.766  11.804   2.898  0.0259  0.2681  0.1366
26846W        W43030  12.230   9.887   3.538 -0.1421  0.3555 -0.2023
26847W        W43031  12.892   8.791  14.714  0.0366 -0.0334 -0.0284
26848W        W43032   3.018  13.036   4.531 -0.0216  0.0724  0.2136
26849W        W43033  17.347  16.614   4.257  0.2783 -0.1556  0.1684
26850W        W43034  11.586  18.064  15.512  0.0702  0.0860 -0.0453
26851W        W43035  15.660   9.404   3.513  0.1609  0.2948  0.0560
26852W        W43036  11.840  17.727  15.230 -0.0621 -0.2633 -0.2308
26853W        W43037  12.202   5.657  12.513 -0.2108 -0.2377 -0.0476
26854W        W43038  10.156   2.735   0.406  0.2552  0.1275 -0.2250
26855W        W43039  10.260   8.303  14.833  0.0533 -0.0723 -0.1496
26856W        W43040  13.890   2.849  10.310 -0.0776  0.0570  0.0547
26857W        W43041   9.281  13.977  12.316  0.0233  0.3383  0.1068
26858W        W43042  12.353  15.591   3.690  0.0037 -0.1436 -0.0168
26859W        W43043  17.864  15.308   0.125  0.0737 -0.0038  0.0445
26860W        W43044   6.032   5.495  16.433 -0.2032  0.1888  0.0069
26861W        W43045  14.276   1.343   1.708  0.0818  0.1096 -0.1027
26862W        W43046   1.311   1.176  11.674 -0.0454 -0.2446  0.3869
26863W        W43047   8.038   9.761   4.135  0.0783 -0.1200  0.0555
26864W        W43048   1.917   8.752  16.223  0.0921 -0.2090 -0.0881
26865W        W43049   4.858   8.959   4.150  0.0285 -0.1442  0.3953
26866W        W43050   3.696  16.056   0.135  0.3174  0.1602 -0.0415
26867W        W43051   1.423   6.486   3.698  0.1265 -0.1762  0.1935
26868W        W43052   8.793  17.231  16.632  0.0964 -0.1905  0.3430
26869W        W43053   1.631  11.211  13.720  0.2720 -0.1488 -0.1702
26870W        W43054   0.785  17.283  11.802 -0.2570 -0.0816  0.1420
26871W        W43055  13.814  15.266  11.614  0.1321  0.1441 -0.2150
26872W        W43056  13.988   4.897   5.746 -0.1487 -0.0030 -0.2731
26873W        W43057   8.130   5.084   1.798 -0.0841  0.0106 -0.2991
26874W        W43058   1.560  17.549   3.634 -0.2253 -0.0498  0.0643
26875W        W43059   0.404   8.225  13.621  0.0408  0.0038  0.2007
26876W        W43060  11.193  11.222  11.964  0.3600  0.0636 -0.1226
26877W        W43061   3.588  11.768  12.189  0.0949 -0.2234  0.0487
26878W        W43062   9.733   2.324  13.005  0.0361 -0.1286  0.0764
26879W        W43063  16.395  16.348  14.547 -0.0186  0.0998 -0.0607
26880W        W43064  15.873   0.859  13.017 -0.0345  0.0332 -0.1245
26881W        W43065  16.077  14.822   5.326 -0.1291  0.1946 -0.1413
26882W        W43066  15.447   5.092  12.109 -0.2531 -0.2297  0.1441
26883W        W43067   6.672  15.388   2.310  0.0313  0.1058  0.0071
26884W        W43068   0.989  10.679   4.024 -0.1339 -0.1530  0.1110
26885W        W43069   1.514   6.042  10.566  0.4889 -0.1921  0.0149
26886W        W43070   5.643   1.381  13.528 -0.1727  0.2125 -0.0386
26887W        W43071  17.156  17.726  12.170  0.2627 -0.4705 -0.1414
26888W        W43072  10.113  11.485  15.431 -0.2226 -0.3364  0.3388
26889W        W43073   5.140   0.472  12.729  0.2563  0.4103  0.1522
26890W        W43074   9.149  13.540  11.316  0.1014 -0.0215  0.1744
26891W        W43075   8.878   7.390  13.788  0.2093  0.1614  0.1318
26892W        W43076   7.633   7.839   4.040 -0.0311 -0.2229 -0.0418
26893W        W43077   5.861  14.898  13.286  0.0419  0.1998 -0.0845
26894W        W43078  14.852  10.651   2.984 -0.0946  0.0335  0.3557
26895W        W43079   8.342  11.568   1.480  0.4738 -0.1921  0.0121
26896W        W43080  12.799   9.745   4.224  0.0384  0.0842  0.0463
26897W        W43081  13.562  12.865   1.607  0.4130  0.3025 -0.0200
26898W        W43082   4.501   2.077  11.985  0.1499 -0.1793 -0.0184
26899W        W43083   1.059   2.892   1.578  0.0319 -0.0437 -0.1003
26900W        W43084  13.217  16.354  15.466 -0.0610  0.0039  0.0134
26901W        W43085   2.923   3.892   4.929  0.1700 -0.3266  0.1684
26902W        W43086   6.727  13.081  16.223 -0.0481 -0.3837 -0.1480
26903W        W43087  14.488   4.679   2.332  0.0470 -0.0643 -0.1475
26904W        W43088   3.682   3.543   4.566 -0.2610  0.0101 -0.0213
26905W        W43089  14.701   2.609   4.201  0.1789 -0.3242  0.0372
26906W        W43090  17.971   5.309  16.362  0.2803 -0.0550 -0.1840
26907W        W43091  11.140   8.748   2.814 -0.1358  0.3656 -0.2426
26908W        W43092   3.540  11.193  12.440  0.0683 -0.1928  0.2429
26909W        W43093  12.563   9.114  11.731 -0.0284  0.2837  0.1049
26910W        W43094   0.688  11.443  11.787  0.1064 -0.0662  0.0082
26911W        W43095   3.322  17.785   2.795  0.0484  0.0639  0.3493
26912W        W43096   2.987  11.970  15.271  0.2821  0.0450 -0.1503
26913W        W43097  12.313  15.846   0.262  0.0927 -0.2679 -0.3993
26914W        W43098  14.897  11.341  15.118  0.0400 -0.4424  0.0183
26915W        W43099  13.005   3.430   0.174  0.2089 -0.3024  0.0892
26916W        W43100  12.412  12.260   1.052  0.2179 -0.0866  0.0867
26917W        W43101  10.773  11.320  14.620  0.0895  0.0197  0.3246
26918W        W43102  16.227   0.106  12.949 -0.4051  0.1945  0.3033
26919W        W43103   0.651  13.742  16.454  0.3986 -0.0407 -0.0130
26920W        W43104  12.381  12.652  12.391 -0.2803 -0.2397  0.2173
26921W        W43105  13.325  17.085  12.435 -0.3014  0.0758  0.2875
26922W        W43106   9.433   8.474   1.932  0.0658  0.1362  0.0965
26923W        W43107   0.991   2.319  14.151 -0.1810  0.4381  0.1051
26924W        W43108   1.850   3.757  11.701  0.5240  0.2563  0.1493
26925W        W43109   1.956   2.597  12.446  0.1386  0.2669  0.1371
26926W        W43110   7.070   0.175   1.432  0.0863 -0.0201  0.0234
26927W        W43111  14.382   0.733  14.247 -0.2699 -0.0661 -0.0023
26928W        W43112  16.656   6.024  14.324 -0.4023 -0.2692 -0.1747
26929W        W43113   6.989   3.160  15.677  0.0008  0.0474 -0.0376
26930W        W43114  17.235   3.375   2.912  0.0014 -0.0395  0.0385
26931W        W43115   8.485   4.380   5.561  0.1477 -0.1500 -0.0042
26932W        W43116   4.281  10.373  14.099  0.0429  0.2059 -0.3205
26933W        W43117   2.106   0.524  12.614  0.1200 -0.0665 -0.2880
26934W        W43118  14.327   3.051   3.046 -0.3630 -0.0230  0.1149
26935W        W43119   3.888   6.980   0.947 -0.3500  0.0993  0.2462
26936W        W43120  13.193   8.289  15.296 -0.1056  0.3004  0.3077
26937W        W43121  10.248   6.645   0.086  0.1168  0.0057  0.0111
26938W        W43122  12.600   4.215  12.490  0.1092  0.0404  0.0931
26939W        W43123   7.267   5.585  14.221 -0.0148  0.1452  0.1303
26940W        W43124  17.152  14.057   4.069  0.4745  0.0479 -0.0460
26941W        W43125   5.385   8.405   1.721  0.1300  0.2380 -0.3420
26942W        W43126   6.654  15.413  14.712  0.0100 -0.2394  0.3504
26943W        W43127  12.022   0.610   2.677  0.2080  0.1888 -0.1551
26944W        W43128  13.582  17.306  15.401  0.0301 -0.0909 -0.1828
26945W        W43129   5.994   1.649   3.145  0.0635  0.0561 -0.0139
26946W        W43130  10.108  11.849   0.339  0.0665  0.1904 -0.1936
26947W        W43131   8.772  11.938  16.011 -0.0354  0.0131  0.1098
26948W        W43132   5.079   4.466   1.023 -0.0583  0.0397  0.0995
26949W        W43133  16.986  10.288   5.670  0.0773 -0.0251  0.2355
26950W        W43134  16.968  11.810   5.734  0.1530 -0.1589  0.1087
26951W        W43135  12.184  13.836  14.643 -0.0792 -0.0917  0.0943
26952W        W43136   3.095   3.289   0.995  0.1225  0.3161 -0.1034
26953W        W43137   1.005   9.640   4.543  0.0629  0.1347 -0.4021
26954W        W43138   1.091  15.616   0.119  0.1000 -0.1857 -0.0069
26955W        W43139  15.008  15.970  14.290  0.1422 -0.2432  0.1027
26956W        W43140   0.346   9.812   5.958  0.3755 -0.3899 -0.1933
26957W        W43141   1.420   8.834  11.785  0.1973 -0.0507 -0.3115
26958W        W43142   2.925  17.459  12.541 -0.3352 -0.0751 -0.2443
26959W        W43143  15.040   2.750  13.682 -0.2436 -0.2710 -0.1205
26960W        W43144   5.726  13.695   0.255  0.1784  0.1044  0.1614
26961W        W43145   4.859  13.013   4.638 -0.0952  0.0212  0.1743
26962W        W43146  14.815  12.079   2.644 -0.2915  0.0940 -0.1109
26963W        W43147   4.090   5.751  13.208  0.4274 -0.0946  0.0346
26964W        W43148   4.527  16.913   4.241 -0.0352 -0.0084  0.0954
26965W        W43149  15.293  12.538   1.395 -0.3906  0.1193  0.1546
26966W        W43150  15.769  11.387  12.278 -0.0206  0.3007  0.1351
26967W        W43151   4.194   1.254  15.193  0.0971  0.1550 -0.0407
26968W        W43152  12.405   6.601   2.041 -0.1679 -0.4020 -0.0865
26969W        W43153  17.525  15.970  15.980  0.0637 -0.0248  0.1543
26970W        W43154  12.537   3.035  13.793  0.2775  0.0239  0.1062
26971W        W43155  12.161   8.755  12.781 -0.4893  0.1646  0.3037
26972W        W43156   8.427   8.534  16.114  0.2303 -0.1313  0.1062
26973W        W43157   6.010  17.762  12.435  0.2177 -0.2352  0.0130
26974W        W43158   7.451   5.657  13.516  0.1927 -0.1265 -0.0661
26975W        W43159   4.321  12.008  15.472 -0.0118  0.2521  0.2178
26976W        W43160  14.473  14.634   4.830  0.2710 -0.1834  0.3396
26977W        W43161   7.014  10.620   5.822  0.0018  0.0532  0.0003
26978W        W43162  12.302   3.284   2.859 -0.3293 -0.0051 -0.2032
26979W        W43163  12.708   2.997   3.903 -0.0434 -0.3805  0.2273
26980W        W43164   7.788   8.955   2.285 -0.0246 -0.0238 -0.1211
26981W        W43165   1.529   8.694  14.898 -0.2418 -0.0101 -0.1292
26982W        W43166   5.104   8.478   1.309  0.0639  0.2895  0.0440
26983W        W43167  11.153   9.763   5.052 -0.0293 -0.0545  0.0039
26984W        W43168   9.955   9.816   1.292  0.1218  0.1036  0.0479
26985W        W43169   4.849  16.418   4.364  0.0351  0.1048  0.0947
26986W        W43170  16.329   9.031  14.144  0.5084 -0.2346  0.0996
26987W        W43171   3.007   9.852   4.510  0.0053 -0.0641 -0.1879
26988W        W43172  10.322   2.522  14.284  0.1361  0.1337 -0.0890
26989W        W43173   2.922   5.383  16.518  0.3372 -0.0218  0.1410
26990W        W43174  11.986  14.791   5.036  0.2511  0.2094 -0.2162
26991W        W43175   1.873  11.291   5.580  0.3307  0.1679 -0.0586
26992W        W43176  14.193   2.514   1.250  0.1917  0.0005 -0.1773
26993W        W43177  10.702  17.679   2.377  0.0896  0.1387  0.1792
26994W        W43178   6.261   4.212  12.832  0.1052  0.4443  0.4568
26995W        W43179  14.641   6.768  15.745 -0.1473 -0.2600 -0.2269
26996W        W43180  11.842  15.542  14.464 -0.1406  0.0322  0.4904
26997W        W43181   0.852   1.910   0.539  0.0830  0.2947 -0.0237
26998W        W43182  11.260  11.376   5.126 -0.0561 -0.0579  0.1082
26999W        W43183   2.619  15.205   1.616  0.3102 -0.0842 -0.1088
27000W        W43184   4.419  17.068   1.850  0.0785 -0.1574 -0.2490
27001W        W43185   3.260  17.584  13.059 -0.3246  0.2418  0.0382
27002W        W43186  16.331   7.739  10.916  0.0600  0.0485  0.3566
27003W        W43187  16.655   8.382  14.888 -0.1018 -0.4772  0.2084
27004W        W43188   5.778  12.833   1.624 -0.0543 -0.0853 -0.0310
27005W        W43189   7.168  12.576   0.219 -0.0758 -0.1309 -0.1464
27006W        W43190   8.989   9.081  14.920  0.0943  0.0771  0.0460
27007W        W43191   6.984  12.612   2.867 -0.0525 -0.0987  0.3435
27008W        W43192  16.072   2.678  13.049 -0.0723  0.2269  0.1721
27009W        W43193   6.719   4.623   3.997  0.1360  0.1213  0.0234
27010W        W43194   5.296  13.443   2.354  0.0148  0.1815 -0.2767
27011W        W43195  12.841   0.071   2.774 -0.1478  0.2357 -0.1306
27012W        W43196  14.751   0.908  15.462 -0.1307 -0.1704  0.0085
27013W        W43197   7.594   7.303   2.520 -0.0371 -0.1317 -0.3244
27014W        W43198  15.756   6.977   1.524 -0.0348 -0.0392  0.0184
27015W        W43199  14.946  15.263  15.752  0.2968 -0.0541 -0.0681
27016W        W43200   8.541   6.641   0.756 -0.0842 -0.1798  0.3494
27017W        W43201  14.875  11.680   6.583 -0.4306  0.2582  0.2104
27018W        W43202   1.074  15.485  12.896 -0.3802  0.0513  0.0679
27019W        W43203  14.254   6.782  16.196  0.0944 -0.2695  0.0928
27020W        W43204  11.665  13.976   3.145  0.1942 -0.1880  0.2207
27021W        W43205  14.535   4.927   5.214  0.0286 -0.1227  0.1835
27022W        W43206   3.493  15.701   5.332 -0.0010  0.1899 -0.3876
27023W        W43207   5.432   0.234   3.325  0.2303 -0.0881  0.2324
27024W        W43208  13.113   9.607  13.332 -0.0832  0.3399  0.1611
27025W        W43209   9.175  17.680  15.501  0.3803  0.1275 -0.0384
27026W        W43210  16.252   8.733   6.101  0.2008 -0.1297 -0.0088
27027W        W43211   5.559   2.597  14.852 -0.2738 -0.1089 -0.3942
27028W        W43212  10.277   1.097   0.172 -0.2669  0.3539  0.1543
27029W        W43213   6.907   8.770  12.194  0.0565 -0.1700 -0.0410
27030W        W43214   9.410  13.378  16.289  0.2333  0.2693  0.0952
27031W        W43215  10.062   8.785  16.427 -0.3903  0.1012  0.0631
27032W        W43216   8.711   3.013   6.166 -0.0726  0.0905  0.1213
27033W        W43217   7.016  15.048   2.097 -0.0927  0.0960  0.0917
27034W        W43218   6.267   9.379  14.503 -0.2149  0.4802 -0.1907
27035W        W43219   0.453  18.122  15.746 -0.1195  0.2639  0.1695
27036W        W43220  11.055   0.554   1.845  0.1552 -0.1698 -0.0669
27037W        W43221  12.290  13.184   1.679 -0.0102 -0.0781 -0.1699
27038W        W43222  14.909  15.591  11.745  0.2337  0.1523  0.4330
27039W        W43223  11.743   1.265   0.823  0.0737  0.0260  0.1292
27040W        W43224   0.096   6.297   3.764  0.2283  0.3085  0.0942
27041W        W43225  15.835   5.037  11.341  0.2463 -0.1426 -0.4821
27042W        W43226   2.194  13.320   0.648  0.0146  0.2096  0.1693
27043W        W43227  10.925   2.835  15.820  0.3863 -0.0601 -0.1756
27044W        W43228   8.162   2.355  14.598 -0.0515 -0.0016  0.2017
27045W        W43229  10.417  15.248  15.601  0.1110  0.0120 -0.0572
27046W        W43230   6.224   7.532  13.169  0.2365  0.0769 -0.0150
27047W        W43231  11.012   4.303  16.398 -0.0057 -0.0271  0.2346
27048W        W43232   9.819  10.197  12.344  0.0236 -0.0617 -0.1173
27049W        W43233   4.481   6.397  14.309 -0.3525 -0.0823  0.4214
27050W        W43234   0.756  12.938  13.198  0.0719 -0.0344 -0.1450
27051W        W43235  15.001  15.174   1.668 -0.1420  0.0457 -0.0893
27052W        W43236   7.868  11.906  13.345  0.0138 -0.0374  0.1509
27053W        W43237  18.159   6.768   3.652  0.1411  0.0854 -0.0270
27054W        W43238  15.004   4.152   1.158 -0.3737  0.0228  0.0836
27055W        W43239  14.670   2.423  14.518  0.0980 -0.3218  0.2071
27056W        W43240   9.446   7.416  11.798 -0.1326  0.0553 -0.1048
27057W        W43241  14.906   8.519  13.122  0.0241  0.1567  0.2488
27058W        W43242  11.523  16.960   0.079  0.0614 -0.3312  0.2704
27059W        W43243  15.566  11.034   4.310 -0.1304  0.0113  0.2482
27060W        W43244   4.453   0.076  13.698 -0.1736 -0.1716 -0.1924
27061W        W43245   2.583  13.292   4.589 -0.3468  0.0149 -0.1780
27062W        W43246   0.837   0.469   4.923 -0.1080 -0.1107 -0.1611
27063W        W43247   9.960   3.166  13.177 -0.2003 -0.1731 -0.0465
27064W        W43248   0.069   2.676   3.006 -0.0609 -0.4202  0.1729
27065W        W43249   3.418  13.291  14.091  0.2201  0.1946  0.2921
27066W        W43250  14.967   8.193  12.329 -0.0687  0.1064  0.0268
27067W        W43251  12.120   8.445   1.758  0.1751 -0.0906 -0.1145
27068W        W43252  12.817   6.956  13.034 -0.0741 -0.1011 -0.0647
27069W        W43253  11.325  16.978  12.893 -0.0577  0.1520 -0.1446
27070W        W43254   8.218   9.482  11.811  0.2342  0.1683 -0.1891
27071W        W43255  16.895   3.694   0.315  0.1065 -0.2394  0.1735
27072W        W43256   0.064   1.258   5.131  0.0712 -0.0910  0.1650
27073W        W43257  13.166  17.682   4.773  0.0881  0.1802  0.0651
27074W        W43258   5.146   6.219   5.609  0.0470  0.1425  0.1971
27075W        W43259  16.590   8.321   5.307 -0.1722  0.0052  0.0803
27076W        W43260   4.589  13.860   5.296 -0.1128  0.0522 -0.0840
27077W        W43261   3.181   9.812   1.751 -0.0325  0.1181 -0.0707
27078W        W43262   3.113   1.320   2.699 -0.0810  0.3088  0.1849
27079W        W43263   3.998  13.741   3.349 -0.0059 -0.2400  0.3393
27080W        W43264  11.399  17.544  15.383  0.0031  0.3730 -0.1487
27081W        W43265   0.408  13.795   2.300 -0.3173  0.0714 -0.0869
27082W        W43266  15.080  14.087   0.997  0.3599  0.0356  0.1124
27083W        W43267   9.844  15.478  12.294  0.1642 -0.0557 -0.2167
27084W        W43268  13.134  14.948   2.538  0.0764 -0.2611 -0.3667
27085W        W43269   7.120  12.465  13.125  0.0376 -0.1670 -0.0334
27086W        W43270   5.563  17.588  15.839 -0.1662 -0.0276 -0.0589
27087W        W43271  18.165  14.140   4.136 -0.0428 -0.2412 -0.1088
27088W        W43272   0.249   1.063   4.665 -0.1359  0.1378  0.0860
27089W        W43273   6.644   9.029   4.275  0.0166  0.0652 -0.1366
27090W        W43274   2.215   8.777   1.020 -0.0155  0.3499  0.0565
27091W        W43275   2.908   5.868  12.741 -0.0726  0.0382  0.0630
27092W        W43276  10.567  17.314  12.378  0.1877 -0.0160 -0.1588
27093W        W43277  15.643  10.201  13.793  0.2203 -0.4110  0.2203
27094W        W43278  10.660  15.206  12.653 -0.1391 -0.1314 -0.4002
27095W        W43279  17.602   4.659  15.600  0.0416 -0.1537  0.0031
27096W        W43280  17.977  10.415  13.257 -0.0585 -0.0312  0.1049
27097W        W43281   8.374   5.022   2.660  0.3462  0.0230  0.1745
27098W        W43282  10.972   2.434   4.555  0.1133 -0.0330 -0.0016
27099W        W43283  11.554  14.351  16.544 -0.2352  0.4098  0.3726
27100W        W43284   3.993   2.983  12.884 -0.3774  0.0003 -0.2068
27101W        W43285   5.680  14.132  12.444  0.1544  0.2379  0.3330
27102W        W43286   7.072   6.079  15.982  0.0437 -0.1398  0.4871
27103W        W43287  15.319   2.410   0.805 -0.1423 -0.3621 -0.3686
27104W        W43288   4.351   1.762   1.669 -0.2603  0.1445 -0.0075
27105W        W43289   0.520  16.018   0.694 -0.1669 -0.1354 -0.1826
27106W        W43290  13.841   4.801  13.004  0.4033 -0.0266  0.0159
27107W        W43291  13.323  12.163   4.847  0.0087 -0.3210  0.0315
27108W        W43292  13.464  10.527   1.528  0.3250 -0.0110  0.0239
27109W        W43293   8.190  10.177   5.400 -0.0834 -0.0150  0.2160
27110W        W43294  13.783  14.231   1.337 -0.0727  0.0224 -0.2220
27111W        W43295   6.477   4.086   4.188  0.2051 -0.0050  0.1144
27112W        W43296   9.366   4.582  12.634 -0.0993  0.0807 -0.4484
27113W        W43297   6.824   8.110   4.406  0.0180  0.0484 -0.0701
27114W        W43298   5.695  15.167  13.628 -0.0849 -0.0129  0.0279
27115W        W43299   6.038  16.601   5.423  0.2958 -0.1607  0.1986
27116W        W43300   4.918  13.136   0.994  0.0512  0.0820 -0.3195
27117W        W43301  14.464  16.756   6.035 -0.0574  0.2066  0.2055
27118W        W43302   1.952  15.072  12.351 -0.2565 -0.0091  0.3853
27119W        W43303  12.187   4.118   3.391  0.0201 -0.1510 -0.2883
27120W        W43304   5.161  16.860   4.489 -0.2558  0.1691  0.1972
27121W        W43305   3.894  14.158  12.676 -0.1278  0.0685  0.3569
27122W        W43306  12.379  12.860  14.142 -0.1108 -0.0356 -0.0663
27123W        W43307   8.878   4.136  15.715  0.0296 -0.0558  0.1464
27124W        W43308   5.223   8.047   1.414 -0.3091  0.0047  0.3860
27125W        W43309   7.729   5.284  13.274 -0.3040  0.0472 -0.1535
27126W        W43310   4.392  17.287  13.362  0.4835  0.5033 -0.2063
27127W        W43311  16.896   4.260   1.616  0.0845 -0.0227  0.0224
27128W        W43312   7.173  16.590  14.748  0.1060  0.1829  0.3054
27129W        W43313   8.350   5.689   3.124  0.0480 -0.1732 -0.7891
27130W        W43314   6.734   7.802  12.114 -0.0128 -0.1015  0.2735
27131W        W43315  13.351   2.874  15.347 -0.1301 -0.0011 -0.2687
27132W        W43316   3.318   8.818  11.821 -0.1816  0.0014 -0.0023
27133W        W43317   0.357   6.826  11.550  0.1161  0.2248  0.2760
27134W        W43318   9.445   8.646   5.023 -0.2700 -0.2336 -0.2659
27135W        W43319  16.378   8.998   0.099 -0.4232  0.1959 -0.1611
27136W        W43320   7.042  11.334   1.283  0.0314 -0.0550  0.4194
27137W        W43321  16.076  17.840  12.310 -0.3421 -0.1700  0.1900
27138W        W43322  16.002  10.229  14.523 -0.4137 -0.0734 -0.1546
27139W        W43323  15.120  15.116   4.557  0.0441  0.1804  0.0682
27140W        W43324   8.364   6.728   4.779  0.0185 -0.2424  0.1295
27141W        W43325  16.024   3.842  13.082 -0.0366  0.1703  0.0023
27142W        W43326   5.081  17.845  14.808 -0.0426 -0.2178  0.1381
27143W        W43327   9.049  10.728  14.453  0.0648  0.1683 -0.2022
27144W        W43328  12.902   3.163   0.928  0.1695 -0.1153  0.0327
27145W        W43329   1.590   7.699  12.433 -0.1042  0.1985  0.0835
27146W        W43330  13.015  11.078   5.255 -0.2723 -0.3772  0.2840
27147W        W43331  14.822  15.907   1.223  0.0400  0.1110 -0.2166
27148W        W43332   3.084   3.400   5.775  0.0168 -0.0278 -0.2228
27149W        W43333  10.639  10.670  12.809  0.3432 -0.0344 -0.0967
27150W        W43334   6.968   4.182   4.952 -0.0581  0.1610  0.0623
27151W        W43335  13.283  16.322   4.985 -0.2092 -0.0380 -0.3563
27152W        W43336   0.476   9.004   3.597 -0.2442  0.0245 -0.0089
27153W        W43337  10.970   0.473  16.084  0.0144 -0.4571 -0.2170
27154W        W43338   3.983   2.442   4.726  0.2420 -0.0135  0.0366
27155W        W43339   4.056  17.206   1.576  0.1756 -0.0867 -0.1236
27156W        W43340   7.663   7.640   5.237 -0.0437 -0.3276  0.0730
27157W        W43341   6.513   3.980  13.376  0.0186  0.3451  0.1297
27158W        W43342   5.494   6.312   1.870 -0.1156  0.1196  0.0855
27159W        W43343  17.729   5.740   1.194 -0.1896  0.0101  0.1170
27160W        W43344   2.153  11.042   1.364  0.2768  0.2809 -0.1683
27161W        W43345   9.661  16.044  16.306  0.0432 -0.1391 -0.0968
27162W        W43346  14.287   7.713  14.052 -0.1211  0.3704 -0.0411
27163W        W43347  10.893  16.830   1.806 -0.0509  0.0514  0.2214
27164W        W43348  17.302   7.154  11.835 -0.1649  0.0002 -0.0022
27165W        W43349  12.974  14.630  13.363 -0.1767  0.0110  0.1592
27166W        W43350  11.672  14.144   5.364  0.1117  0.0480 -0.0071
27167W        W43351  16.102   1.369  14.242 -0.0510  0.2114 -0.0973
27168W        W43352  16.504   0.360  14.705  0.1866  0.2296  0.1705
27169W        W43353  16.362  11.469  13.069  0.2837  0.1607  0.0139
27170W        W43354  11.242   6.151  13.542  0.0821  0.1349  0.0030
27171W        W43355   1.449  16.879   2.391  0.1638 -0.2060 -0.1693
27172W        W43356  17.294   5.752   0.094  0.2192  0.1498 -0.1417
27173W        W43357   5.961   5.983   5.947  0.0585 -0.1033  0.4100
27174W        W43358  14.857  13.105  14.448  0.2496 -0.2088 -0.3007
27175W        W43359  15.216  14.632  11.953 -0.0140  0.2041 -0.0042
27176W        W43360  11.983  17.990  13.846 -0.3945  0.2019  0.0727
27177W        W43361   2.468   8.631  12.660 -0.3177  0.1919  0.0398
27178W        W43362   3.413   5.596  12.299  0.0480 -0.0683  0.2332
27179W        W43363  16.850  12.599   3.735  0.2518 -0.0684  0.1567
27180W        W43364   6.363  15.556  15.582 -0.1202 -0.0262 -0.0928
27181W        W43365   1.855   5.710   3.503 -0.4721  0.0224  0.2508
27182W        W43366  12.318   2.235   0.910  0.1272 -0.1312  0.0039
27183W        W43367   6.455   5.481  16.193  0.0035 -0.0469  0.4251
27184W        W43368   8.321  12.329  15.130 -0.1325 -0.0477 -0.0754
27185W        W43369  13.309   0.006  14.809 -0.0267 -0.3106 -0.1357
27186W        W43370   6.331  15.926  14.959  0.0020 -0.1359 -0.0365
27187W        W43371  16.407   1.757  11.888 -0.1038  0.0439 -0.2217
27188W        W43372  14.193  12.682   5.327 -0.0146 -0.0153  0.0517
27189W        W43373  14.811  16.398   1.500 -0.3293 -0.0297 -0.2458
27190W        W43374  15.329  13.953   2.667  0.0357  0.0563  0.0291
27191W        W43375   0.991   6.430   1.644  0.1620  0.0386  0.1307
27192W        W43376  12.324   9.797  14.075  0.1217  0.2970  0.0183
27193W        W43377   3.660  12.025  13.924  0.2827 -0.0416  0.3976
27194W        W43378   9.161   1.072   3.864  0.1391 -0.0642 -0.3236
27195W        W43379  17.702  15.598  14.624  0.0863 -0.1540 -0.0257
27196W        W43380  15.444  12.802  16.535  0.4095 -0.0072  0.1274
27197W        W43381   4.590   8.700   1.408  0.1457 -0.1178  0.3611
27198W        W43382   9.328   0.020   1.314 -0.1182  0.0297 -0.0308
27199W        W43383   7.794   1.362  16.002  0.1244 -0.1420  0.1866
27200W        W43384  13.840   3.609   4.845  0.0802 -0.1154  0.0519
27201W        W43385   6.364  15.196   5.281 -0.0544 -0.1025 -0.4819
27202W        W43386   3.327   7.803  11.456 -0.0306 -0.0915 -0.3096
27203W        W43387   9.659   1.673  15.683  0.0778 -0.1990  0.0130
27204W        W43388   1.190   5.593  15.357 -0.0056 -0.0037  0.0722
27205W        W43389   7.530   4.344  15.557 -0.2766  0.3561  0.0307
27206W        W43390  15.909   7.452  14.292 -0.0015  0.2227  0.1070
27207W        W43391   4.254   7.889  14.316 -0.0599  0.0122 -0.2459
27208W        W43392   4.008  14.454  14.954 -0.2046 -0.0076  0.0648
27209W        W43393   7.087   7.463  12.843 -0.4128  0.1314 -0.1360
27210W        W43394  15.048   4.365   4.082 -0.1450  0.0556  0.3090
27211W        W43395   3.810  15.246  15.695  0.0847 -0.0276 -0.0684
27212W        W43396   1.044  16.529   4.336  0.0257  0.1797 -0.0644
27213W        W43397  10.568   7.402   3.532  0.3886  0.2743  0.4382
27214W        W43398   7.972   2.994   4.011 -0.0584 -0.3534  0.0772
27215W        W43399  16.946   6.018   3.130 -0.2961  0.0971  0.2034
27216W        W43400   7.763   0.942   6.486 -0.2776 -0.2381 -0.0896
27217W        W43401   7.459  11.649   3.254 -0.0661 -0.0431  0.1400
27218W        W43402   9.941   7.116   1.924 -0.0435  0.1459 -0.0857
27219W        W43403  16.703   8.004   3.432  0.0397  0.1677  0.0248
27220W        W43404  14.473   0.800   1.052  0.0866 -0.3435 -0.1623
27221W        W43405   7.045  13.099   0.199  0.1896  0.1933 -0.0933
27222W        W43406  10.003   1.156   1.068  0.0243 -0.2458  0.1401
27223W        W43407  14.179   7.974  14.476 -0.0633 -0.3599 -0.1192
27224W        W43408  13.587   3.148   2.589  0.3520 -0.0114 -0.2392
27225W        W43409   6.085   4.557   2.543  0.1455 -0.0453  0.2162
27226W        W43410   9.576   7.059  14.080  0.0846 -0.1213 -0.2735
27227W        W43411   0.121  17.061  15.298  0.0875  0.1732  0.1683
27228W        W43412  16.097   7.167  12.963  0.1026 -0.1638  0.0646
27229W        W43413  18.166  15.610   1.667 -0.2668  0.0063  0.0689
27230W        W43414   4.917   5.147  12.413  0.1330  0.1470 -0.2372
27231W        W43415   7.773   4.949  12.332 -0.1554 -0.0260  0.4440
27232W        W43416   8.853  12.020   0.637  0.1448 -0.3864  0.0418
27233W        W43417  14.254   5.383  11.623 -0.0145  0.1512 -0.3880
27234W        W43418   7.382   2.592   2.971 -0.1721  0.0470 -0.0009
27235W        W43419   2.923  16.355   3.867  0.1433  0.0800 -0.3751
27236W        W43420   0.223   9.287  14.445  0.2252 -0.0884 -0.2586
27237W        W43421  12.740  16.901   2.163  0.3607  0.2122  0.4644
27238W        W43422   2.715  13.440   1.394 -0.2609  0.3459 -0.0243
27239W        W43423   8.543  16.206  16.425 -0.3176  0.1770  0.1097
27240W        W43424   9.257   0.454   2.154 -0.0698  0.1352 -0.0516
27241W        W43425  11.056  10.567  15.358  0.1439  0.3607  0.0940
27242W        W43426   9.260   7.111  13.184  0.3482 -0.0787 -0.1785
27243W        W43427   4.876  10.706  12.436 -0.0420  0.1816  0.1200
27244W        W43428  13.296   6.900   3.354 -0.0078  0.1574  0.0582
27245W        W43429   5.350   4.857   1.818  0.0977 -0.2199  0.0455
27246W        W43430   6.637  15.218  16.434 -0.0805  0.4555 -0.3120
27247W        W43431  17.530   1.244  14.892 -0.1567 -0.1229 -0.0165
27248W        W43432   0.972   0.461  14.583  0.0921  0.0580 -0.0023
27249W        W43433  15.805   5.902   3.461  0.2072  0.1510  0.0730
27250W        W43434   8.414  15.802  14.315 -0.2208  0.0460 -0.0504
27251W        W43435   3.127   1.739  13.123  0.2647  0.1798  0.0586
27252W        W43436  11.512   2.116  12.006 -0.0213 -0.1556  0.1440
27253W        W43437   4.977   3.001   4.299  0.0305  0.3469 -0.0379
27254W        W43438   9.160   3.663  11.396  0.0019  0.0307 -0.1062
27255W        W43439   9.185   3.889  14.109  0.0561 -0.0924 -0.2568
27256W        W43440   1.321   5.736  14.037  0.0963 -0.1984  0.0163
27257W        W43441  14.338  18.140  16.465 -0.0282  0.1151 -0.0326
27258W        W43442  13.716   4.805   4.084  0.2477 -0.1296  0.1473
27259W        W43443   4.032   5.179   3.871 -0.0532  0.2876 -0.0527
27260W        W43444  17.364  15.540   4.352  0.1951 -0.0659 -0.1506
27261W        W43445  10.870   1.367  16.107 -0.1957 -0.0979  0.1313
27262W        W43446   2.729   3.182   2.369  0.0962  0.2038  0.1920
27263W        W43447  10.057  12.246  14.334  0.1197  0.1201 -0.0169
27264W        W43448  17.196   3.784   3.827 -0.0221  0.0488  0.0234
27265W        W43449  15.380  18.096   1.747 -0.0973 -0.0959 -0.0665
27266W        W43450   9.658  17.272  15.027 -0.3368 -0.2435 -0.4857
27267W        W43451  17.016  13.297   1.105 -0.1409  0.0074 -0.0098
27268W        W43452   1.920   2.511   0.825 -0.1832 -0.0148 -0.0716
27269W        W43453  17.482  12.460  15.330  0.0691  0.0207 -0.3273
27270W        W43454   9.253  13.005  13.405 -0.0538 -0.1033 -0.2058
27271W        W43455  17.400   9.306  13.092  0.0866  0.1517 -0.1115
27272W        W43456   5.382   3.194   4.021  0.2380  0.0327  0.1584
27273W        W43457   9.202   4.589   1.668 -0.2522  0.2067  0.2626
27274W        W43458  15.261  13.437   5.374  0.0836 -0.4548 -0.1676
27275W        W43459  15.563   5.522  15.285  0.0163 -0.2263  0.1349
27276W        W43460   6.174  16.154   3.312  0.2467 -0.1804  0.0234
27277W        W43461  10.886   8.009   5.727  0.3295 -0.3301 -0.0868
27278W        W43462   3.263   8.408  12.070  0.1101 -0.1743 -0.1433
27279W        W43463   4.551   0.548  13.515  0.1038 -0.0565 -0.5283
27280W        W43464  12.617   4.907   2.721  0.1185  0.0597 -0.0494
27281W        W43465  13.177   9.002   2.162  0.0579 -0.0140  0.1519
27282W        W43466   7.529  12.167   2.208 -0.3338  0.1871  0.0301
27283W        W43467   1.416   3.488   3.489  0.1061 -0.0464 -0.2927
27284W        W43468   0.307   9.288   3.131 -0.1508 -0.0614  0.0065
27285W        W43469  17.148   0.656  15.895  0.0471 -0.3217  0.0821
27286W        W43470  15.451  13.475   0.972 -0.0187 -0.2510 -0.3091
27287W        W43471   1.466   3.756   1.732  0.0949 -0.2153 -0.1957
27288W        W43472   3.860   5.421   5.442  0.1701  0.2077  0.0326
27289W        W43473   8.390   4.321  13.929  0.1340  0.0153 -0.1315
27290W        W43474   4.385  10.842   5.081 -0.0546  0.1384  0.1134
27291W        W43475  17.358   6.280  12.352  0.1173  0.0171  0.0635
27292W        W43476  10.479  16.214   4.487  0.0245  0.1461  0.0672
27293W        W43477   7.514  10.053   2.111  0.1091  0.0319 -0.0991
27294W        W43478  12.335   3.220   3.535  0.1888 -0.1229  0.3743
27295W        W43479   3.082   7.274   4.919 -0.0982  0.1902  0.0590
27296W        W43480   2.924  10.079   5.865 -0.2380  0.1170 -0.1145
27297W        W43481   5.654   8.230   5.570  0.2768 -0.1405 -0.0235
27298W        W43482   3.302   2.532   0.522  0.2410  0.0047  0.1141
27299W        W43483   0.203  14.618   4.337 -0.2041 -0.1051 -0.3382
27300W        W43484   5.571  13.189   5.174 -0.3253 -0.3576  0.0701
27301W        W43485  16.005   6.280  13.550  0.1205  0.0394 -0.1155
27302W        W43486   7.543  14.739   1.791 -0.0618  0.1384  0.0281
27303W        W43487  15.931  12.176   6.495  0.1846 -0.0664  0.1557
27304W        W43488   3.014  13.878  12.323 -0.1794  0.2364  0.2052
27305W        W43489   8.619   4.371  15.371 -0.4518 -0.0173  0.1138
27306W        W43490   6.568   5.393  14.695  0.1235  0.1714 -0.2362
27307W        W43491  16.858  12.220   4.509 -0.1487 -0.3841 -0.0673
27308W        W43492   4.883   5.998   0.445  0.2283  0.0157  0.2118
27309W        W43493  14.678  15.477   5.640  0.0753  0.0966  0.0743
27310W        W43494  17.193   0.421   2.588 -0.0043  0.1129  0.1729
27311W        W43495  14.587   9.356   1.004 -0.1393  0.1807 -0.2521
27312W        W43496  16.516   6.669  11.675  0.1838 -0.1170 -0.1454
27313W        W43497  14.048  16.873  14.375 -0.2593  0.1020  0.0568
27314W        W43498  11.610   3.690   5.808 -0.1699 -0.3153 -0.0567
27315W        W43499  12.091   1.986   2.398 -0.0600  0.1496  0.0801
27316W        W43500  10.294   6.463  13.859 -0.1429  0.0020 -0.2899
27317W        W43501   5.143   4.122   4.834  0.3929 -0.1142  0.3775
27318W        W43502   2.649  16.836  12.944 -0.1692  0.0250  0.0068
27319W        W43503   4.558   2.606  12.063  0.1050 -0.0861  0.0038
27320W        W43504   1.271  13.361   5.309 -0.0091 -0.0798  0.1457
27321W        W43505  17.411  13.289  13.884  0.0593  0.2931  0.3217
27322W        W43506   3.492  14.017  13.895  0.1416 -0.1388 -0.0095
27323W        W43507   9.576   1.483   5.134 -0.0959 -0.0505 -0.1207
27324W        W43508  16.045  17.583   1.049 -0.3238 -0.0119 -0.2106
27325W        W43509  14.461  10.049  15.341 -0.0851 -0.1770  0.0365
27326W        W43510   0.898  10.100  15.366 -0.0539 -0.0793 -0.3173
27327W        W43511  14.912   6.607   4.164  0.2792  0.0813 -0.1361
27328W        W43512   8.572  12.205  14.539 -0.0364  0.0260  0.1908
27329W        W43513  15.756   2.594  16.472 -0.3263 -0.1466  0.2000
27330W        W43514  11.325  13.190  13.803 -0.0357  0.1674 -0.2999
27331W        W43515   4.864  11.906   5.428 -0.1013  0.2476  0.2294
27332W        W43516   7.248  14.728   4.935  0.1580 -0.0668 -0.1205
27333W        W43517  13.883   8.382  11.720 -0.0840  0.1834  0.0950
27334W        W43518  10.932  16.903  12.324 -0.2668  0.2790  0.1154
27335W        W43519   3.472  13.118   4.430 -0.0877  0.3182 -0.3449
27336W        W43520   2.824  14.184   4.966  0.0744  0.3650  0.0464
27337W        W43521   3.620  13.986   1.372  0.0347 -0.2897 -0.0072
27338W        W43522   3.897  16.512  14.297 -0.0637  0.0735  0.0259
27339W        W43523   7.184   5.696   5.751  0.0800  0.1406 -0.4137
27340W        W43524   3.576   6.356  14.282  0.0134 -0.0030  0.1062
27341W        W43525   9.101   4.802  16.429  0.1666  0.3197 -0.1186
27342W        W43526   0.287   0.934  15.657 -0.1774  0.0781  0.2885
27343W        W43527   5.928   0.377  13.595 -0.0629 -0.2145  0.3603
27344W        W43528   8.043   0.700  12.603 -0.0038  0.0407 -0.0489
27345W        W43529  14.178  11.747  15.720  0.1598  0.1015 -0.4052
27346W        W43530  15.396  15.001   2.995 -0.0051  0.0436  0.3183
27347W        W43531  15.990   8.513  15.112 -0.0049  0.1315 -0.3889
27348W        W43532   0.492  11.200  12.167 -0.1255  0.0441 -0.3369
27349W        W43533   1.421  14.466  11.723  0.2045 -0.2191  0.2990
27350W        W43534  12.061   7.334  11.643 -0.2443  0.0986 -0.0745
27351W        W43535  18.113   2.638   0.576 -0.0246 -0.0731 -0.1271
27352W        W43536   6.571   8.651   4.646 -0.3064  0.0980  0.1849
27353W        W43537  15.669   0.792   5.156  0.0551 -0.0195  0.0560
27354W        W43538  12.671   9.913  14.699 -0.3353  0.1031  0.2187
27355W        W43539   2.758   6.934   3.400 -0.0063  0.1956  0.0632
27356W        W43540   1.123  14.423   5.436 -0.0257 -0.0572  0.1656
27357W        W43541   8.836   0.731  14.094  0.2583  0.0186 -0.0773
27358W        W43542   1.151  16.130   2.594 -0.0957 -0.0643 -0.2221
27359W        W43543   8.772  10.356  14.645  0.4724 -0.2739  0.2076
27360W        W43544   9.036  13.821  16.271 -0.0563  0.2328  0.1393
27361W        W43545   4.252   8.153  12.881 -0.0495 -0.0336 -0.2284
27362W        W43546   5.977  12.611   4.398 -0.2014  0.1763 -0.0906
27363W        W43547   9.548  13.800   5.608  0.2665 -0.1188  0.1783
27364W        W43548  17.122   8.292  10.523  0.1582 -0.2429  0.2207
27365W        W43549   1.532  12.057  11.742 -0.0026  0.1162  0.1197
27366W        W43550   5.539   7.281  14.387  0.0585  0.1161  0.1413
27367W        W43551  11.196   2.183  16.479  0.0265  0.1349  0.0404
27368W        W43552  10.853   3.671  15.740  0.0168  0.2010  0.2823
27369W        W43553   8.196  13.777  16.675  0.3350  0.2695  0.2056
27370W        W43554  14.704  16.271   0.808 -0.0619  0.0547 -0.0851
27371W        W43555  12.977   1.260   4.093 -0.1952  0.2105 -0.1460
27372W        W43556  17.862  11.710  15.849 -0.0323 -0.1661  0.0337
27373W        W43557  15.246   8.638   5.118 -0.1054  0.1644  0.1121
27374W        W43558  18.099  17.104   3.490  0.1605 -0.1696  0.0028
27375W        W43559   8.877  16.027   0.112 -0.0668 -0.0528 -0.2192
27376W        W43560   5.243   8.797  13.827  0.0738  0.3409 -0.0507
27377W        W43561  11.376  13.801  16.111 -0.2317  0.4082 -0.2905
27378W        W43562   2.061   2.098   4.242 -0.0827 -0.2655  0.0809
27379W        W43563  17.121  13.176  11.871  0.2210 -0.1110 -0.1169
27380W        W43564  18.001  11.644   2.936 -0.1103 -0.0465 -0.2248
27381W        W43565  11.145   7.368   3.445  0.3113  0.1693  0.0403
27382W        W43566  17.742   2.145  10.657 -0.1573  0.2871  0.2267
27383W        W43567   2.457  17.349   3.437 -0.3442  0.0578 -0.0634
27384W        W43568  18.029   7.963   0.068 -0.0009  0.5256 -0.3289
27385W        W43569   7.084  17.586   3.810  0.2364 -0.0993 -0.2330
27386W        W43570  16.245   6.654   0.437  0.1978 -0.1635 -0.2093
27387W        W43571  17.194  12.871   1.366 -0.2203  0.2363  0.0854
27388W        W43572   8.433  13.769   2.777 -0.3020 -0.2719 -0.1337
27389W        W43573  12.519  11.295   0.906  0.0973 -0.2860  0.0207
27390W        W43574  18.158   1.201  12.419  0.0184 -0.1212  0.3396
27391W        W43575   1.360   6.829  10.223 -0.2582 -0.0909  0.1065
27392W        W43576  15.866   8.523   3.755  0.1469 -0.1288  0.3849
27393W        W43577   4.933  18.157   2.453 -0.2127 -0.0424 -0.0356
27394W        W43578   7.153   3.167  14.778 -0.3026 -0.0862  0.1913
27395W        W43579   3.769  17.270   5.246  0.1680 -0.3590 -0.0107
27396W        W43580  14.761   0.072  16.101  0.0733 -0.1808 -0.3545
27397W        W43581   3.236   1.399  16.345 -0.0538 -0.0651  0.0923
27398W        W43582   0.740   9.530   2.855 -0.1484 -0.0392 -0.0953
27399W        W43583   5.640   0.752   3.780  0.1297 -0.0040 -0.2046
27400W        W43584   4.015  15.303  13.653 -0.1661  0.2112 -0.1597
27401W        W43585   8.792   8.028  13.365 -0.0020 -0.1023 -0.1494
27402W        W43586   9.186  13.411  15.843 -0.0078  0.0635  0.0326
27403W        W43587  15.910   4.391   0.717  0.1814  0.1701 -0.2448
27404W        W43588   7.041  11.118  13.345  0.1236  0.2975  0.4728
27405W        W43589   7.686  10.395  16.179 -0.0754 -0.0166 -0.1336
27406W        W43590   5.538  16.115  11.925 -0.1789  0.1509 -0.0461
27407W        W43591  12.329  17.097  12.880 -0.3354  0.0733 -0.0739
27408W        W43592   5.243   6.810  15.940  0.1055 -0.0682  0.5294
27409W        W43593   9.832   5.558  14.748 -0.1619  0.0620  0.0574
27410W        W43594   1.462   3.309  15.982 -0.1429  0.2051  0.0301
27411W        W43595  14.347  15.833   1.071  0.0282 -0.0835 -0.1400
27412W        W43596  18.003   7.472  12.125 -0.2662  0.2197  0.0806
27413W        W43597   9.046  13.842   3.615  0.0149 -0.1566  0.1060
27414W        W43598  14.160   0.263  10.410  0.0163  0.0415 -0.0136
27415W        W43599   0.415  15.557   3.729 -0.1886  0.1202 -0.0551
27416W        W43600   3.698   5.182  11.429  0.2844  0.2266 -0.1021
27417W        W43601   0.597   9.818   2.475 -0.0839  0.1085  0.0930
27418W        W43602   1.289   3.050  11.860  0.2078 -0.4224  0.4014
27419W        W43603   3.289   3.627   3.371  0.3199  0.3003 -0.2278
27420W        W43604  11.037   1.240  12.977 -0.1932 -0.1312  0.1190
27421W        W43605  14.135   2.514   3.207 -0.0478 -0.2245  0.1566
27422W        W43606   9.688   3.198   6.110 -0.1657  0.1654 -0.0630
27423W        W43607  12.573   6.506  12.703 -0.0817 -0.2579  0.1172
27424W        W43608   1.919   2.085  16.355 -0.3169  0.0578 -0.1883
27425W        W43609  14.538  10.318  16.521 -0.0471  0.2095  0.1144
27426W        W43610   2.784   9.375  13.097  0.0597  0.3252  0.0123
27427W        W43611   8.782   1.793  14.560  0.0042 -0.0625 -0.1765
27428W        W43612  18.032   8.774   1.846 -0.0288  0.0034  0.1099
27429W        W43613   8.397   6.447   3.364 -0.1984  0.2036  0.4693
27430W        W43614  13.730  16.807   0.866  0.1795  0.0751 -0.0938
27431W        W43615   8.547   4.529   0.969 -0.1213 -0.0473 -0.3009
27432W        W43616   9.090  12.811  15.252  0.0536  0.0502 -0.1658
27433W        W43617   2.229  17.899  15.246 -0.0869  0.2773  0.0099
27434W        W43618   1.749  12.630   1.376  0.1594  0.1420 -0.0144
27435W        W43619   7.763  15.098  11.366 -0.1824 -0.2351  0.1702
27436W        W43620   4.334  12.890  13.150 -0.2268 -0.2235 -0.1076
27437W        W43621   8.836   7.356   1.586  0.0119 -0.1831  0.0760
27438W        W43622   3.330   4.359  10.917  0.0590 -0.0747  0.0078
27439W        W43623   1.052  11.701   1.751 -0.1833  0.2160 -0.1034
27440W        W43624  11.798   4.297   0.159 -0.1991  0.1073 -0.1728
27441W        W43625  15.653   2.816   1.568 -0.0198  0.0889 -0.1272
27442W        W43626   6.240  16.460   1.818  0.2570 -0.2997  0.0288
27443W        W43627   0.764   4.404  10.644 -0.1489  0.2483  0.0725
27444W        W43628   4.336  11.084  13.499 -0.0555 -0.1469 -0.2595
27445W        W43629  12.416   8.522  14.576 -0.2156 -0.0632 -0.0314
27446W        W43630  17.168   9.438  11.927  0.0054  0.2180 -0.3440
27447W        W43631  16.821  17.822  10.984 -0.2671 -0.2217 -0.0153
27448W        W43632   3.528  14.850   5.457  0.0483 -0.0723 -0.4331
27449W        W43633   9.947   8.053   1.299  0.0878 -0.1829 -0.2337
27450W        W43634  13.133   3.629   3.346  0.0109  0.0096 -0.1355
27451W        W43635   9.750  16.125   5.804  0.1323 -0.1376  0.1361
27452W        W43636  17.991  14.622  15.999  0.0198  0.1080  0.1767
27453W        W43637   6.531   1.753  16.272  0.0070 -0.1006  0.0701
27454W        W43638  17.181  13.443   2.208 -0.0549  0.1535  0.0690
27455W        W43639   1.719  15.162  16.334 -0.0722  0.2048 -0.3293
27456W        W43640  12.583   0.899  15.318  0.1363 -0.3141  0.1421
27457W        W43641   4.493   4.243  15.695 -0.3299 -0.1494  0.1239
27458W        W43642   1.374  15.301   4.443 -0.3215  0.1564 -0.1220
27459W        W43643  12.339  12.734   3.948 -0.1957 -0.1450 -0.0482
27460W        W43644   5.293   4.021  13.804 -0.2166 -0.0209 -0.1012
27461W        W43645  10.653  11.675   2.007 -0.1048  0.3700 -0.1129
27462W        W43646   5.177  14.950  16.373 -0.1654  0.0967  0.0978
27463W        W43647  11.216  16.128  16.162 -0.3953  0.1494 -0.3975
27464W        W43648  15.983   7.820   2.331  0.0280 -0.0133 -0.0303
27465W        W43649   6.560  15.993   0.980 -0.0648  0.3846  0.1539
27466W        W43650   7.304   8.980   2.924  0.1807 -0.1744 -0.1265
27467W        W43651   1.541   9.880   2.109  0.0285 -0.3312 -0.2514
27468W        W43652   6.886  17.151  13.781  0.0729 -0.3794 -0.1380
27469W        W43653   7.664  16.035  11.693  0.1289  0.3943  0.1415
27470W        W43654   1.372   0.120  14.343 -0.2747 -0.3981 -0.1002
27471W        W43655   5.599   1.485   2.680  0.0549 -0.2997 -0.3931
27472W        W43656  17.843  13.497   0.081  0.0006  0.0643  0.0176
27473W        W43657  10.955  13.585  12.873 -0.2224  0.2698 -0.1272
27474W        W43658   7.668   3.846   2.509  0.2134 -0.1384 -0.1993
27475W        W43659  17.845  15.071  15.311 -0.0224 -0.0996 -0.0872
27476W        W43660  17.051   2.959   4.608  0.0200 -0.2638 -0.1037
27477W        W43661  18.066   0.870   3.715 -0.0833 -0.0286 -0.0940
27478W        W43662   4.837   4.418   0.589  0.0702  0.0289  0.2891
27479W        W43663  11.237   2.088   3.367 -0.0143 -0.0325  0.1090
27480W        W43664  14.407   4.152  12.437 -0.0028  0.2804  0.1699
27481W        W43665  15.377   2.096  11.733 -0.0792 -0.4854  0.4074
27482W        W43666   9.515   7.700   3.457  0.0230 -0.0056 -0.2053
27483W        W43667  10.644  17.329  12.961 -0.0082 -0.0204 -0.2998
27484W        W43668   9.752  14.769   3.281  0.1347 -0.1953  0.1497
27485W        W43669  18.097   8.997  11.922  0.0440  0.1195 -0.3072
27486W        W43670   5.845  17.917   2.072 -0.0918  0.2979  0.2308
27487W        W43671   6.271   8.419  14.404 -0.1659 -0.3181  0.1471
27488W        W43672   9.432  14.788   0.436  0.0242 -0.5155 -0.3266
27489W        W43673   6.680  15.488  11.993 -0.2495 -0.0125 -0.0962
27490W        W43674   6.639   7.819   1.409  0.4371  0.1692  0.2529
27491W        W43675   7.530  12.407   0.510 -0.1076  0.2269  0.0414
27492W        W43676   5.541   7.564   2.295 -0.0665  0.1275  0.0735
27493W        W43677   9.570  10.941  12.965  0.1246  0.2706  0.2886
27494W        W43678  17.990   7.587   5.354  0.1396  0.0932  0.0056
27495W        W43679   0.692   7.849   4.177  0.2568  0.2247 -0.1944
27496W        W43680  13.650   1.261  11.425 -0.0116 -0.1064  0.0006
27497W        W43681   0.755   4.833   1.450  0.2769 -0.2628 -0.1483
27498W        W43682   9.602   9.388  11.809  0.0099  0.0620 -0.0599
27499W        W43683  16.080   0.852  14.357 -0.3698 -0.3124 -0.1264
27500W        W43684   2.700  15.240   3.664 -0.1865  0.1189 -0.1755
27501W        W43685  11.603   1.387   3.175  0.0554 -0.2431  0.1239
27502W        W43686  10.126   3.463   1.298  0.3369 -0.2567 -0.1813
27503W        W43687   4.726   0.319   4.386  0.0081 -0.3091 -0.3613
27504W        W43688  16.688  14.139   0.511 -0.3496 -0.1508 -0.0401
27505W        W43689  11.099  10.849   5.063  0.3083  0.3360 -0.0938
27506W        W43690  17.863  12.332   0.445 -0.1416 -0.0871  0.2246
27507W        W43691  16.762  12.702  13.867 -0.1634  0.1582 -0.0037
27508W        W43692   2.786  12.943  15.577 -0.0439 -0.1840 -0.4030
27509W        W43693  12.289   7.480   1.973  0.1640  0.0702 -0.0026
27510W        W43694  14.615   9.878   3.542 -0.0230 -0.1080  0.0851
27511W        W43695  16.100   5.107   5.608 -0.0897  0.3429  0.3213
27512W        W43696  16.429   3.097   3.558  0.4471  0.2303 -0.0547
27513W        W43697   8.414   4.917   0.439 -0.0535 -0.4434 -0.0510
27514W        W43698   9.193   5.505   1.523  0.0956  0.2205  0.2524
27515W        W43699  10.612  10.458  14.420 -0.1758 -0.2383  0.1872
27516W        W43700   2.426  16.470   0.603 -0.3927 -0.1315  0.0443
27517W        W43701  17.646  17.737  15.875 -0.1797  0.0562  0.0817
27518W        W43702  17.654  15.898   4.837  0.1169 -0.2941 -0.1867
27519W        W43703   6.320   3.077  13.403 -0.1115  0.3395 -0.1674
27520W        W43704   4.595  17.983   2.100 -0.0303  0.2696  0.1868
27521W        W43705  17.748  14.675   5.512  0.0815 -0.0566 -0.5711
27522W        W43706   9.290   0.805   0.080 -0.2332  0.1938  0.0080
27523W        W43707   5.631   7.970  15.114 -0.0203 -0.0136  0.0641
27524W        W43708   3.946   7.372   0.689  0.1746  0.0088 -0.0054
27525W        W43709  13.879   9.399   0.493  0.1856 -0.2190  0.1820
27526W        W43710   9.282   1.220  12.530  0.0826  0.2588  0.0693
27527W        W43711   5.843   1.118   2.965 -0.0071 -0.0337 -0.1022
27528W        W43712   0.921   4.167  15.155  0.0455  0.1318  0.0153
27529W        W43713   9.483  10.036   5.437 -0.2390  0.1352  0.1494
27530W        W43714  12.990   9.115  13.643 -0.4554 -0.0381 -0.2103
27531W        W43715  12.305  13.399   4.538  0.2204 -0.0571 -0.0794
27532W        W43716   3.155   3.150  16.375 -0.1800  0.3440 -0.0894
27533W        W43717  17.815   0.446   5.020  0.0255  0.0352 -0.1615
27534W        W43718  13.677   9.412   5.127  0.3512  0.1022 -0.2702
27535W        W43719   5.120   4.913   5.227 -0.1446 -0.0377 -0.1289
27536W        W43720  10.575   3.606  12.899 -0.1377 -0.2913  0.2730
27537W        W43721   5.276   1.982   3.360  0.1680  0.0297  0.1592
27538W        W43722   9.555  17.732   1.569 -0.0359  0.0799 -0.0331
27539W        W43723   3.009   6.329   3.211  0.0657 -0.0036 -0.3046
27540W        W43724   8.008   0.592  14.228  0.1276 -0.0016 -0.2224
27541W        W43725   6.673  16.856   2.798 -0.1058 -0.1498  0.1425
27542W        W43726   0.187   9.737  11.677 -0.2535 -0.0886  0.2071
27543W        W43727   7.433  16.403   5.869 -0.1975  0.1036 -0.1662
27544W        W43728  16.403   8.923   0.902 -0.1753 -0.0265 -0.0229
27545W        W43729  17.839   4.729   0.616 -0.2094  0.0286 -0.1174
27546W        W43730  15.939  16.363  12.570  0.0091  0.0698 -0.0170
27547W        W43731   3.111   3.705  13.776 -0.1455  0.1859  0.1369
27548W        W43732   3.474  12.276   1.693  0.0314  0.5387  0.0725
27549W        W43733  14.146  10.026   0.464 -0.0319  0.0803  0.0706
27550W        W43734  12.173   1.378  16.241 -0.0767  0.0658 -0.4122
27551W        W43735   0.664   6.879  14.950  0.0925 -0.4271 -0.0791
27552W        W43736  17.169  11.679   2.168  0.2627  0.2793 -0.1577
27553W        W43737   0.466  11.401   2.336  0.0995  0.0223  0.0542
27554W        W43738   6.106  11.039   4.198 -0.1779 -0.0171  0.0329
27555W        W43739  15.944   3.276  11.553  0.2058 -0.2175  0.0527
27556W        W43740  15.258   6.292   3.783 -0.1217 -0.0936  0.1440
27557W        W43741  10.810   2.519  16.204  0.4345 -0.3407 -0.1034
27558W        W43742   2.548   7.220  16.271 -0.0524  0.0391 -0.0486
27559W        W43743  11.526   8.940  11.550  0.0105 -0.0588  0.2191
27560W        W43744   0.931   6.370   5.652  0.0901  0.0253  0.2744
27561W        W43745  16.402   3.890   4.924  0.0262  0.1256 -0.3353
27562W        W43746   9.675   7.655   2.611 -0.0795  0.1265  0.0586
27563W        W43747   8.235   1.930   4.386  0.0498 -0.0785 -0.0383
27564W        W43748   2.106   5.808  15.792 -0.0302 -0.1138  0.2560
27565W        W43749   9.430   5.533  13.719  0.1687 -0.1703  0.2646
27566W        W43750  10.755  13.888  14.514 -0.2307 -0.0587 -0.4676
27567W        W43751   3.682  13.189  14.508  0.1338 -0.1501 -0.1904
27568W        W43752  13.270  17.650  13.744  0.1324 -0.0360 -0.3876
27569W        W43753   5.849  16.379   0.872  0.2360  0.1731  0.2521
27570W        W43754  14.906  13.528  15.901  0.0484 -0.2359  0.0692
27571W        W43755   9.074   4.477   0.659  0.0548  0.2812 -0.1316
27572W        W43756   9.527   8.089  13.252  0.0695  0.0345 -0.2316
27573W        W43757  15.134   1.146  11.535  0.0419 -0.0957 -0.2122
27574W        W43758  14.895  17.098   0.308  0.0759  0.0063  0.0122
27575W        W43759  11.909   0.651  16.202 -0.0394  0.0556  0.1528
27576W        W43760   1.589  15.335  11.850 -0.2315  0.1628 -0.0597
27577W        W43761   2.322   8.396   6.075 -0.0134 -0.0015 -0.0860
27578W        W43762  16.112   7.965  15.469  0.1666  0.1334 -0.1478
27579W        W43763   7.955  18.049   4.169 -0.2496 -0.0653  0.1187
27580W        W43764  11.869   0.466   1.730 -0.1434 -0.5600 -0.0103
27581W        W43765   1.461  17.723   5.703 -0.1752 -0.1246 -0.2037
27582W        W43766   4.947   9.777   5.755  0.0549  0.5717 -0.0028
27583W        W43767  16.106  17.746   0.471 -0.1328 -0.3958  0.2219
27584W        W43768  11.866  15.949  14.817  0.3550  0.3150 -0.0473
27585W        W43769   9.543  10.795  14.563  0.1917 -0.1144 -0.2126
27586W        W43770  15.716  12.062   2.007 -0.1066 -0.0841  0.1765
27587W        W43771   8.404   4.393   5.052  0.2065  0.1418 -0.4320
27588W        W43772  11.121   0.526   3.104  0.0464 -0.1072  0.2193
27589W        W43773   6.088  14.743   3.890 -0.1919 -0.2155  0.0303
27590W        W43774  14.680  15.216  13.999  0.3485  0.0692  0.2860
27591W        W43775   0.251  15.157  13.971 -0.0863  0.0277  0.1397
27592W        W43776   6.826   9.582   5.038  0.1349  0.0005  0.0430
27593W        W43777   6.525   3.044  12.299  0.1778  0.0785 -0.6562
27594W        W43778   2.329   6.841  16.027 -0.0962 -0.0981  0.0521
27595W        W43779  17.110   9.240   0.867  0.0537 -0.1750  0.3586
27596W        W43780  18.038   8.473  12.222  0.3270  0.1934 -0.0560
27597W        W43781  11.300  14.012  12.226 -0.3234  0.1649  0.1510
27598W        W43782  16.829   4.229  14.808 -0.1008  0.1571 -0.1318
27599W        W43783   6.180   6.587   0.783 -0.0867 -0.1985 -0.0425
27600W        W43784   2.832   2.126  13.713  0.0221  0.4043  0.0873
27601W        W43785  18.144   1.112   1.015  0.0231  0.1449  0.2422
27602W        W43786  12.245  17.776   3.426  0.1561  0.2186  0.0416
27603W        W43787   5.657   2.592  15.555  0.0225  0.0981 -0.2269
27604W        W43788   0.176  17.788   0.835  0.0309 -0.1548  0.2694
27605W        W43789  11.350   0.169  12.392  0.0573 -0.1915 -0.2892
27606W        W43790   6.001  11.918  13.514  0.2437  0.0220 -0.0511
27607W        W43791  11.393  10.043  11.455  0.0663 -0.1333 -0.0770
27608W        W43792  11.435   4.754   2.745  0.2758  0.2517  0.3673
27609W        W43793   3.912   3.962  13.249 -0.2457  0.0045 -0.0931
27610W        W43794  12.320   9.910  15.796  0.0823 -0.1200  0.2171
27611W        W43795   8.935   0.038  14.219 -0.3114 -0.0495  0.0186
27612W        W43796   0.942  16.796  14.552  0.3747  0.1493  0.0166
27613W        W43797   9.593   4.365   2.617  0.0283  0.3101 -0.1263
27614W        W43798  11.412  10.623  14.544 -0.0233 -0.0295  0.0392
27615W        W43799  11.484   1.101  14.215 -0.0364  0.0432  0.0344
27616W        W43800  10.092  11.022  15.234 -0.0656 -0.1257 -0.1387
27617W        W43801  10.227   8.318   4.013  0.0950 -0.2610  0.2497
27618W        W43802  14.083   2.307  13.129 -0.1404 -0.1140 -0.3681
27619W        W43803   5.923   2.549   1.791  0.4050 -0.2930  0.1744
27620W        W43804   5.863   0.784   0.477 -0.1391  0.4555  0.1829
27621W        W43805   9.144  16.919   0.506 -0.1398  0.1682 -0.1463
27622W        W43806  12.786   6.552  14.179 -0.0014 -0.1211  0.0744
27623W        W43807  13.590  16.620   5.289  0.0585 -0.1407 -0.0218
27624W        W43808  13.250  17.344   2.082 -0.0427 -0.1926 -0.1507
27625W        W43809  16.888   7.365  15.323  0.0827 -0.1370 -0.0336
27626W        W43810  15.552  12.357   3.298  0.0450 -0.1280 -0.2210
27627W        W43811   1.469  13.386   2.315 -0.2198 -0.2849  0.2304
27628W        W43812   5.323   1.807  15.860  0.0933 -0.0818 -0.4364
27629W        W43813  15.973   3.749  12.036  0.1094  0.2443 -0.1360
27630W        W43814   2.784   8.915  10.348  0.1505 -0.2063 -0.1249
27631W        W43815   3.210  17.455  14.571  0.1064  0.1093 -0.0370
27632W        W43816   8.639   1.808   3.225  0.0737 -0.0031 -0.0879
27633W        W43817   3.943  11.485   4.412 -0.3169 -0.0482  0.0616
27634W        W43818  12.844  12.994  15.454  0.1864  0.0545  0.1731
27635W        W43819  15.414  10.672  11.278 -0.1452 -0.0352  0.0569
27636W        W43820  16.791  15.616   2.510  0.2163 -0.0132 -0.0046
27637W        W43821   1.211   1.589  14.367 -0.0200  0.0688 -0.2341
27638W        W43822   9.963   7.551  15.196 -0.2028  0.0348  0.5012
27639W        W43823   5.428   5.358   5.135 -0.1611  0.0400 -0.0537
27640W        W43824  10.092   9.660  16.580 -0.1448  0.0295  0.2941
27641W        W43825  16.603  14.400   2.782 -0.3196  0.0590 -0.2252
27642W        W43826   4.834  17.216   1.459  0.0617 -0.0167  0.1689
27643W        W43827  10.849   8.812   5.297 -0.1951  0.0392 -0.1243
27644W        W43828  15.816  13.345   0.433 -0.1065 -0.0365  0.0735
27645W        W43829  15.711   0.084   2.615  0.2390 -0.1114  0.0170
27646W        W43830   0.811  18.100  14.343  0.1485  0.1340 -0.0495
27647W        W43831  15.461  13.724   2.269  0.2958  0.0649  0.3782
27648W        W43832   7.826  12.683  12.309 -0.1142  0.0400 -0.1819
27649W        W43833   5.897   1.693   1.195 -0.3922  0.3244 -0.1544
27650W        W43834  11.693   3.035   2.310 -0.1977 -0.0443 -0.0130
27651W        W43835  13.934   9.097   3.285  0.1048  0.0026  0.4789
27652W        W43836   3.030   0.813   2.261  0.3082  0.2092 -0.1123
27653W        W43837   0.675  10.507  14.652 -0.3034 -0.1182 -0.0990
27654W        W43838   4.490   0.917  15.665  0.4476  0.1661  0.0221
27655W        W43839   9.945   9.751   0.778 -0.0535 -0.1015 -0.1675
27656W        W43840  15.952  13.972  15.547  0.1546 -0.3118 -0.1042
27657W        W43841  15.914  15.955  14.475  0.0760 -0.2659 -0.1323
27658W        W43842  16.933  17.407  12.626 -0.2315 -0.0634 -0.1075
27659W        W43843   2.616  14.776  11.376  0.3551  0.1684  0.0641
27660W        W43844   6.160   3.660   4.319  0.0780 -0.1060  0.0292
27661W        W43845  11.237   0.101  13.402  0.4051  0.3332 -0.1443
27662W        W43846  14.656   4.683   1.891 -0.2249  0.3450  0.0114
27663W        W43847   0.488   9.882   1.462  0.2958 -0.0484  0.1202
27664W        W43848  13.488  16.661  12.198 -0.2035  0.1457  0.2621
27665W        W43849  14.053   6.466  12.333  0.0463  0.3514 -0.2610
27666W        W43850  13.856   2.061  10.220 -0.2758  0.1251  0.1761
27667W        W43851   8.348  13.495   2.384 -0.0099 -0.4021  0.1263
27668W        W43852  14.230  17.409   5.314  0.1601  0.0738  0.4118
27669W        W43853   7.339  15.332  13.506  0.0306 -0.0862  0.0728
27670W        W43854  11.599  16.831   4.440  0.1153  0.2678 -0.0275
27671W        W43855   6.268  17.204   5.179  0.1493 -0.3053  0.2327
27672W        W43856  15.823  12.235  14.216 -0.1390 -0.2424  0.1564
27673W        W43857   5.047  15.456  12.390 -0.0721 -0.0451 -0.1440
27674W        W43858   6.274   0.044  15.471  0.3868 -0.1615  0.4794
27675W        W43859  17.343  11.213   2.049 -0.0060 -0.1133  0.0780
27676W        W43860   9.892  11.971  13.960  0.0958 -0.0415  0.0044
27677W        W43861  14.713  15.162  11.765  0.0868  0.0328 -0.0686
27678W        W43862  16.501  15.411   0.419 -0.1741 -0.1257  0.0746
27679W        W43863  17.944   6.279  13.805  0.1339  0.2503 -0.1093
27680W        W43864  14.752  12.167  11.884  0.0788 -0.0116 -0.2221
27681W        W43865   0.503   4.168   3.269  0.2030  0.1784 -0.2973
27682W        W43866  11.254   3.967   5.509 -0.1334 -0.4016 -0.0595
27683W        W43867   0.477  10.985  13.171  0.2869 -0.3100  0.1713
27684W        W43868  15.862   4.005  11.202  0.0805  0.1496 -0.0115
27685W        W43869   7.209   9.596  15.584 -0.1155 -0.1574 -0.2249
27686W        W43870  16.743   0.255  13.865  0.0649 -0.1496  0.1054
27687W        W43871  14.312   6.164  11.451 -0.0307  0.1950 -0.3687
27688W        W43872   9.985   1.643   1.973  0.0306  0.1560 -0.1849
27689W        W43873   8.420  18.064   0.224 -0.0306 -0.1794  0.0431
27690W        W43874  17.787  10.077   0.861  0.1364  0.0859 -0.2634
27691W        W43875  11.308  15.007  16.291 -0.0437 -0.2492 -0.0160
27692W        W43876   4.422   1.226  13.926 -0.0972  0.2130 -0.0461
27693W        W43877  13.434   5.324   1.312  0.3715 -0.1886  0.0345
27694W        W43878   9.971   1.524  14.135  0.1191 -0.1101  0.2426
27695W        W43879   0.713   4.964   1.947 -0.0464 -0.0081  0.0705
27696W        W43880  15.432  12.070  15.090 -0.0867 -0.0404 -0.1790
27697W        W43881   6.769  15.927   2.362 -0.1664  0.1958  0.1239
27698W        W43882   8.342   8.909   4.036 -0.0424 -0.2977  0.1718
27699W        W43883   4.768  16.403  15.768  0.0542  0.3192 -0.0483
27700W        W43884   7.182  16.770  11.904  0.0071 -0.1327  0.0610
27701W        W43885  15.158   4.739   1.924 -0.0278  0.0364 -0.1373
27702W        W43886   4.645  16.303   1.545  0.1076 -0.1554 -0.1095
27703W        W43887   4.453  17.611   0.125 -0.1124 -0.1482 -0.2502
27704W        W43888  10.982  15.356   4.195  0.0083 -0.4028 -0.3017
27705W        W43889  10.312  18.119   5.795 -0.1233 -0.3071 -0.0586
27706W        W43890  11.400  13.773  14.806 -0.2815  0.2293  0.0747
27707W        W43891   5.432   1.525   3.711 -0.1314  0.0025  0.0705
27708W        W43892  17.991   6.692   4.572  0.2697  0.2362  0.4160
27709W        W43893   1.094   1.934   1.096 -0.0298 -0.2356 -0.0079
27710W        W43894  10.291   5.763   4.449  0.3338 -0.1319  0.0195
27711W        W43895  10.834  10.747  12.344 -0.1805  0.0746 -0.0471
27712W        W43896  14.871   1.895   0.221 -0.2252 -0.3371 -0.0968
27713W        W43897  17.427   6.967  10.768  0.0825  0.2647 -0.0010
27714W        W43898  16.250  13.226  12.047 -0.2945  0.1325  0.0294
27715W        W43899   3.649  10.632  12.446 -0.0043 -0.1043  0.1886
27716W        W43900   9.750  14.656  14.387  0.0909 -0.0249  0.1840
27717W        W43901  12.303   0.664   3.813 -0.2357 -0.0181  0.1219
27718W        W43902   8.035  10.016  14.027  0.0409  0.0337 -0.0078
27719W        W43903   4.163  10.517   1.706 -0.0885  0.1411 -0.2525
27720W        W43904  10.314  11.371   0.986 -0.0871 -0.0423 -0.0206
27721W        W43905  16.524   6.554  13.531 -0.0605 -0.3452 -0.0937
27722W        W43906  14.324   4.097  14.597  0.0291 -0.1847 -0.1976
27723W        W43907   6.320  11.435  15.441  0.0897  0.0775 -0.0264
27724W        W43908  15.928   7.097   1.059  0.0894 -0.0879  0.1925
27725W        W43909  16.623  12.685  15.515  0.3286  0.4052 -0.1463
27726W        W43910  15.081   7.428  15.117 -0.1469 -0.0294 -0.1002
27727W        W43911  16.258  10.835  11.933  0.1210 -0.3909  0.0320
27728W        W43912   1.891   7.104  11.768  0.1440 -0.0097 -0.2146
27729W        W43913  13.222  17.081  12.957 -0.1713 -0.2005  0.1219
27730W        W43914  11.631   4.628  11.826  0.1610 -0.2030  0.1342
27731W        W43915   0.741  11.265   4.963  0.0215 -0.1012  0.3380
27732W        W43916   2.252   7.990  15.474  0.1831  0.1256 -0.0179
27733W        W43917   8.398   7.075   4.007  0.3504  0.1200  0.0452
27734W        W43918   2.073  14.821  16.133  0.2327  0.0612  0.0912
27735W        W43919   6.129   3.883  15.148  0.2906  0.1574 -0.0376
27736W        W43920   0.703   2.342  16.488 -0.2435  0.0057  0.0342
27737W        W43921  17.637  14.791   0.194 -0.3101  0.0297  0.1806
27738W        W43922   7.501   5.431  15.311 -0.1421  0.1171 -0.3632
27739W        W43923  13.323  17.435  16.290  0.1873  0.2426 -0.1658
27740W        W43924   9.832   6.767   0.435  0.2434  0.3208 -0.0427
27741W        W43925  14.443  14.415   5.972  0.3343  0.0211  0.0026
27742W        W43926  11.828  15.944   0.242  0.0627 -0.1543  0.0247
27743W        W43927   9.455   5.298   5.231 -0.3703 -0.0722 -0.1405
27744W        W43928   8.643  11.797   3.600 -0.1175 -0.0050  0.1872
27745W        W43929   0.926  11.281  16.071 -0.1178  0.0416  0.2463
27746W        W43930   1.173  14.999   5.397 -0.0949  0.2011  0.1344
27747W        W43931   6.173   5.897  16.094 -0.0441  0.3554  0.0372
27748W        W43932   4.698   0.036   1.657 -0.2097 -0.0160 -0.1894
27749W        W43933  13.449   6.572  15.327  0.0082 -0.2210 -0.3067
27750W        W43934   0.392  13.738  15.178 -0.1909 -0.1549  0.0120
27751W        W43935   5.054   3.523  13.639 -0.0659 -0.2403 -0.1072
27752W        W43936  14.763   2.171   1.754 -0.0728  0.0927 -0.1794
27753W        W43937   9.121  17.213   1.042 -0.1103 -0.0590 -0.1063
27754W        W43938   7.565   2.108  16.253  0.1983  0.0561  0.1164
27755W        W43939  12.317   1.439   1.141 -0.0129 -0.1310 -0.0807
27756W        W43940  17.752  13.892   2.471 -0.1675  0.1085  0.2145
27757W        W43941   9.141  14.348  13.065 -0.1915 -0.2428 -0.2694
27758W        W43942  15.574   7.500  13.827 -0.0178  0.4477  0.1619
27759W        W43943   6.614   3.921  11.113 -0.0681 -0.3278  0.0468
27760W        W43944  13.348   0.091   4.630  0.0352  0.0057  0.1231
27761W        W43945  15.627   2.726   2.520  0.1271  0.0141 -0.0922
27762W        W43946   2.975   5.507   3.927  0.1167 -0.1947 -0.0383
27763W        W43947  10.391   9.893   3.992 -0.1034 -0.1028  0.2149
27764W        W43948   0.565  13.495   4.072 -0.1262  0.0121 -0.2099
27765W        W43949  13.626   7.156   1.513  0.1729 -0.2343 -0.0007
27766W        W43950   4.614  17.144  12.202  0.2349 -0.0962  0.1045
27767W        W43951  16.998   6.814   3.998 -0.2341 -0.3201  0.3011
27768W        W43952   8.605   8.675  11.677  0.1946  0.0719 -0.1346
27769W        W43953  15.771   6.463   5.186 -0.2169  0.0699 -0.1592
27770W        W43954   1.982  11.740  15.454  0.1873 -0.1496 -0.0204
27771W        W43955  10.491  11.906  11.469  0.1087 -0.1269 -0.0296
27772W        W43956   9.853  14.313  14.839 -0.0556  0.0033 -0.4277
27773W        W43957   5.368  15.758  11.569 -0.0650 -0.1422 -0.0741
27774W        W43958  11.606   9.431  15.065  0.0559  0.0321  0.0622
27775W        W43959  16.048   8.093   1.467 -0.0852  0.1517  0.1644
27776W        W43960   5.004   1.766   0.132  0.0800  0.3270 -0.2475
27777W        W43961  12.834  11.467  12.849  0.2307 -0.0897  0.1203
27778W        W43962  16.413   3.985   1.335  0.0075 -0.0645  0.0358
27779W        W43963  11.729   7.047   0.481  0.0635 -0.4449 -0.0949
27780W        W43964  15.673   1.236  13.419 -0.2154 -0.2361  0.1255
27781W        W43965   3.391   2.032  15.363  0.0567 -0.1731  0.1342
27782W        W43966   7.696   8.266   2.444 -0.4110  0.1806 -0.1070
27783W        W43967   3.413   2.252  13.631 -0.0958  0.1036  0.0268
27784W        W43968   3.190   1.054  12.031 -0.1075 -0.3633  0.1896
27785W        W43969   5.454   7.676  13.066  0.0592  0.1027  0.0035
27786W        W43970  16.513   6.926  14.011 -0.0686  0.1943  0.2481
27787W        W43971  14.126  10.176   4.862 -0.2386 -0.2957 -0.1904
27788W        W43972   7.194  14.883   4.274  0.3604  0.1065  0.3429
27789W        W43973  10.886  11.251   3.775 -0.1265 -0.2364  0.2025
27790W        W43974   3.064  18.169   2.930 -0.0021  0.2394 -0.1199
27791W        W43975  12.708  15.030  11.597  0.1625  0.0204  0.0870
27792W        W43976  12.088   7.310   3.903 -0.2543 -0.3029 -0.0904
27793W        W43977  13.794  15.689  13.836  0.1050  0.3858 -0.0065
27794W        W43978  13.471   0.383  15.476  0.1794 -0.0316 -0.3035
27795W        W43979  14.374  13.760  16.585  0.1081 -0.0730  0.1273
27796W        W43980  13.056   3.394  11.763  0.0587  0.0058 -0.1655
27797W        W43981   9.228   4.619  13.802 -0.0851  0.1777 -0.1344
27798W        W43982   2.324  15.245   5.236  0.2131 -0.3448 -0.1050
27799W        W43983  15.639   6.541  14.247 -0.1794 -0.0452  0.1029
27800W        W43984   8.452   4.930  14.369 -0.0504 -0.4349  0.2635
27801W        W43985  11.222   9.994  12.430  0.1362 -0.2000  0.3372
27802W        W43986   6.901  10.691  14.626  0.0311  0.2495  0.1398
27803W        W43987   9.249   2.659  13.394  0.0957 -0.4067  0.0408
27804W        W43988   6.788  12.093  15.857  0.1125  0.0890 -0.2801
27805W        W43989   2.191   6.166  11.757  0.0462  0.1111  0.1869
27806W        W43990   9.191   0.066  14.859 -0.3705  0.2620 -0.1850
27807W        W43991   2.978   5.763  11.608 -0.0936 -0.4434 -0.0334
27808W        W43992  17.039  10.101  13.757  0.2061 -0.0995  0.1886
27809W        W43993   9.105  10.295  16.037  0.0851  0.0728 -0.1420
27810W        W43994  10.529  14.370  13.093 -0.1309  0.1848  0.0429
27811W        W43995  15.274  14.805  13.290  0.2143  0.0918  0.0451
27812W        W43996  12.502  16.450  12.604 -0.1252  0.3911 -0.0561
27813W        W43997  17.056   8.776   0.160 -0.0251  0.0922  0.1186
27814W        W43998  13.567  14.076   1.777 -0.2230 -0.1095  0.0978
27815W        W43999   3.703   8.467   4.625  0.3411 -0.4919  0.5868
27816W        W44000   3.186  11.724  13.683 -0.0968 -0.0210 -0.0879
27817W        W44001   0.114   7.155  16.016  0.3216  0.1818 -0.0615
27818W        W44002   3.927  12.282  15.628 -0.1359  0.1528 -0.1780
27819W        W44003   9.164   9.980   1.343  0.1792 -0.3155 -0.2165
27820W        W44004   4.181  16.481   1.385 -0.0787  0.2475  0.1727
27821W        W44005   3.560  16.385  15.325  0.0435  0.0474 -0.0660
27822W        W44006   0.944   3.776   2.568  0.1547  0.1957 -0.0745
27823W        W44007   4.582  12.997  12.759  0.0956  0.1027 -0.0989
27824W        W44008   4.768   2.741   4.771 -0.1052  0.0314  0.0986
27825W        W44009  17.833   4.779   3.097  0.4280 -0.2139  0.0856
27826W        W44010   6.304   3.500  16.277 -0.1975  0.2664  0.0422
27827W        W44011   0.356   7.281   4.728 -0.0359 -0.1670  0.0609
27828W        W44012  15.309  16.492  15.436 -0.0477 -0.2181  0.0631
27829W        W44013  12.247   1.423  15.253  0.1094 -0.1728  0.0931
27830W        W44014   7.219   7.962  13.934 -0.1712  0.0675 -0.2483
27831W        W44015   0.694   5.571  12.072 -0.0016 -0.0332 -0.0697
27832W        W44016   5.827   4.058   2.596 -0.0335 -0.1540  0.0514
27833W        W44017  14.430  16.354   1.219 -0.1930  0.0593  0.0270
27834W        W44018  12.161   6.022   1.036 -0.0205 -0.0654 -0.2205
27835W        W44019   3.642  13.473   4.166  0.2383  0.0163 -0.3252
27836W        W44020   1.536   1.709  14.830  0.2769 -0.0557  0.1107
27837W        W44021  17.220   0.428  14.615  0.2724 -0.0410  0.3296
27838W        W44022  14.760   6.613   0.674  0.1374  0.1853  0.0229
27839W        W44023   8.857  18.119   0.034  0.0073 -0.1630 -0.0563
27840W        W44024   4.114   8.916   1.892 -0.1641  0.2889  0.0122
27841W        W44025   6.824  11.435   0.236  0.2810  0.0871 -0.1135
27842W        W44026  17.109   7.074  11.201 -0.1234 -0.0632  0.1834
27843W        W44027   9.389   7.284  15.171 -0.1034  0.0462 -0.1355
27844W        W44028  10.774   5.241  11.197  0.2094  0.1272  0.0181
27845W        W44029  13.075  15.985   1.947  0.0220 -0.3628  0.0728
27846W        W44030   8.138   0.569  13.696  0.1563 -0.1894 -0.1354
27847W        W44031  14.583   8.612   3.944  0.0204 -0.1708 -0.2413
27848W        W44032  14.887   9.441  12.228 -0.2884  0.0448  0.2091
27849W        W44033   4.581   7.781  12.851  0.1881 -0.2168  0.0844
27850W        W44034  11.634   0.756  15.020  0.0533  0.1041 -0.0542
27851W        W44035   3.217   8.227  15.260 -0.2517 -0.1215 -0.1387
27852W        W44036  15.692  17.168   4.880 -0.2657  0.1621 -0.0841
27853W        W44037   2.454   1.951  15.481 -0.1252  0.0429 -0.0083
27854W        W44038  18.138  16.643  15.077  0.0444  0.1035 -0.0405
27855W        W44039  12.706   0.227  12.255 -0.0290 -0.3110  0.1541
27856W        W44040  11.784   2.539   4.737 -0.1656 -0.1765 -0.0622
27857W        W44041   1.204   4.783   4.125  0.2845 -0.2259  0.2201
27858W        W44042   0.237  15.668  13.318  0.1043 -0.1037 -0.0196
27859W        W44043   6.233  16.850  14.797 -0.0730  0.1376  0.1883
27860W        W44044   1.994  13.568  15.734 -0.2183  0.3140  0.3655
27861W        W44045   3.906  16.747   3.138  0.2029 -0.0189 -0.0366
27862W        W44046  12.910   5.299   6.264  0.2342 -0.2311  0.1110
27863W        W44047   8.635  10.283  16.372  0.0773 -0.2389  0.0319
27864W        W44048   3.919  15.047  14.840  0.0843  0.0972  0.0398
27865W        W44049   7.246   6.349   1.288 -0.1249 -0.0009 -0.2261
27866W        W44050  12.545   3.294  11.861 -0.2052  0.1171  0.0353
27867W        W44051   7.195   2.646  15.808 -0.0122 -0.1161  0.1067
27868W        W44052  13.569   1.995   4.555  0.1892  0.1803 -0.1346
27869W        W44053  11.204  16.298   4.170  0.0754  0.0485 -0.0718
27870W        W44054   0.519  17.783   5.521 -0.0773  0.1717 -0.1991
27871W        W44055  11.548  10.265   5.098  0.4572 -0.1121  0.0354
27872W        W44056   7.706  15.014   1.288  0.0935 -0.3845 -0.1165
27873W        W44057   5.759   6.463   0.084  0.0079  0.2514 -0.1065
27874W        W44058   0.237   8.018  13.223  0.1276  0.0213  0.4652
27875W        W44059  11.926   9.562   0.549  0.1998 -0.4106  0.0820
27876W        W44060   0.434   4.095   4.854 -0.2731  0.3191  0.2419
27877W        W44061  11.382   3.944  13.312  0.0398  0.0598  0.0810
27878W        W44062  14.550   8.203  14.222  0.2900 -0.0905  0.1126
27879W        W44063   8.215  10.153  10.755 -0.0366 -0.1279  0.2606
27880W        W44064  10.910   9.353   1.437 -0.1066  0.0406 -0.4621
27881W        W44065  10.541  17.215  15.442  0.3793 -0.4065 -0.0304
27882W        W44066   1.197  16.478  13.310 -0.0800 -0.2349  0.1329
27883W        W44067   3.823   7.115   4.520 -0.0298 -0.0474 -0.2104
27884W        W44068  16.657  12.050   0.812  0.0073 -0.1882 -0.1206
27885W        W44069   4.949  11.087  13.514 -0.0690 -0.0994 -0.1480
27886W        W44070  16.532  11.455   2.356 -0.0042 -0.1555  0.0194
27887W        W44071   4.647  16.959  15.828  0.2158 -0.0501 -0.0983
27888W        W44072  17.662   7.694  16.370 -0.0867 -0.1431  0.0697
27889W        W44073   0.694  15.023  12.922 -0.1733 -0.0383 -0.2066
27890W        W44074  16.568  14.167   1.005  0.2432 -0.0608  0.0408
27891W        W44075  14.131   0.579   0.685  0.0908  0.0721 -0.0872
27892W        W44076   3.924   7.467  14.868 -0.0194  0.3215 -0.1676
27893W        W44077   3.589  17.461  15.399  0.3872  0.2390  0.1172
27894W        W44078   4.386   1.498  12.773 -0.0510 -0.1347  0.0036
27895W        W44079  17.719  10.206  15.940 -0.0334 -0.0033 -0.3073
27896W        W44080   6.687  17.004  12.819  0.1243  0.0470  0.1162
27897W        W44081  10.846  11.658   3.382 -0.4358  0.0362  0.1508
27898W        W44082  12.367  12.139   3.426  0.0499 -0.0790 -0.3012
27899W        W44083   2.234  12.588  12.094  0.0222  0.2297  0.2622
27900W        W44084  10.764   3.242  14.988 -0.0416  0.4281  0.2702
27901W        W44085  12.883  17.449  12.117  0.1923  0.0794 -0.0100
27902W        W44086   3.330  14.013   4.837 -0.2730 -0.2450 -0.0426
27903W        W44087   0.865   1.536   4.449 -0.0813 -0.1509  0.0233
27904W        W44088  18.001  14.719   3.455  0.0689  0.1555 -0.0091
27905W        W44089   9.360   8.950  15.249  0.0919  0.1484 -0.0532
27906W        W44090  13.551  11.097  12.290  0.0726 -0.2560 -0.1355
27907W        W44091  10.741  16.508   4.042  0.3091  0.0050  0.2051
27908W        W44092  17.498   5.894   4.884  0.0260  0.0777  0.4066
27909W        W44093   4.712   1.466  11.882 -0.0096  0.1923  0.3468
27910W        W44094   8.726  15.611   0.693 -0.1984  0.1382  0.1487
27911W        W44095  10.931  16.034  11.841  0.0414  0.0628 -0.1287
27912W        W44096  16.917  18.015   3.398 -0.0911 -0.2252 -0.0717
27913W        W44097  16.630  13.151   0.656  0.2948 -0.0411  0.0379
27914W        W44098  13.154   9.129   4.919  0.0843  0.2088  0.1595
27915W        W44099   6.414  17.546  14.070 -0.2097  0.3066 -0.2193
27916W        W44100  16.611   5.457   2.099  0.1497 -0.2121 -0.0863
27917W        W44101   6.912   6.882   2.971 -0.0747 -0.3271 -0.2285
27918W        W44102   5.980  15.037   6.030 -0.0434 -0.0718 -0.2959
27919W        W44103   9.259  12.261   0.452  0.2244 -0.0872  0.1956
27920W        W44104   7.604  13.609   3.355  0.1806 -0.0207  0.0713
27921W        W44105   5.891   9.740   0.126  0.1931 -0.1024 -0.1957
27922W        W44106   6.671   4.283  11.804  0.1198  0.2793 -0.1407
27923W        W44107   9.226   5.488  14.414  0.1640  0.2489  0.1235
27924W        W44108   6.475  12.067   1.214 -0.0414  0.0230 -0.1410
27925W        W44109   2.328  14.363   3.325 -0.2330  0.0074  0.2524
27926W        W44110   7.931  18.049  16.118 -0.0685 -0.0513 -0.2364
27927W        W44111  14.853   7.297  13.290 -0.2669 -0.1239 -0.1040
27928W        W44112  10.903  12.222   3.861  0.1309  0.0248  0.3739
27929W        W44113   8.640  10.255  15.302 -0.0565  0.1823 -0.0414
27930W        W44114  16.082  11.891  12.966  0.1840  0.2334  0.3316
27931W        W44115   8.412  15.247   6.014  0.0071 -0.1048  0.0853
27932W        W44116  11.605  12.467   1.176 -0.2038 -0.0650 -0.2372
27933W        W44117   0.802   4.248  16.125  0.2088  0.1213 -0.1835
27934W        W44118  13.005  14.516   4.301  0.0360 -0.0445 -0.3679
27935W        W44119   3.666  16.314  11.993 -0.0447 -0.0739  0.0297
27936W        W44120  15.456  13.445  15.045  0.0167 -0.2238  0.0943
27937W        W44121   7.912  11.224   4.625 -0.0919  0.0110 -0.1723
27938W        W44122   9.910   4.686  14.507  0.0293  0.0877  0.2110
27939W        W44123  14.413  12.524   0.305 -0.1522  0.2274  0.3560
27940W        W44124   7.719  14.073   3.157  0.1298  0.1203 -0.3997
27941W        W44125   2.938   3.410   4.269  0.2327 -0.0132  0.0722
27942W        W44126  17.382   0.347  16.252 -0.2421  0.1606 -0.0839
27943W        W44127  17.404  10.035   4.448 -0.1156 -0.0425  0.1786
27944W        W44128   6.744  13.597   0.195  0.2462  0.0809  0.0281
27945W        W44129   3.946  16.269   2.884  0.1272 -0.2082  0.1862
27946W        W44130  12.705   7.520  13.261  0.1339 -0.1611 -0.1379
27947W        W44131  12.413   1.269  13.636 -0.0758  0.1684 -0.0385
27948W        W44132  17.683   8.908  10.992  0.1149 -0.1370  0.0152
27949W        W44133  14.049   4.381   2.360 -0.0548  0.0250  0.0519
27950W        W44134   9.322   9.554   3.767 -0.3680 -0.2897  0.1827
27951W        W44135   6.377   7.068  14.252 -0.0368 -0.0910  0.0609
27952W        W44136   3.519   7.760  14.554 -0.0691  0.1364 -0.0033
27953W        W44137  12.930  12.387  13.102  0.1718  0.0675  0.0226
27954W        W44138  12.791   4.276  13.081  0.1726 -0.0837  0.1919
27955W        W44139  13.975   0.623  15.303 -0.1374 -0.2577 -0.1453
27956W        W44140   9.407  16.952  14.247  0.1621  0.2230  0.0408
27957W        W44141  12.611   8.034  13.837  0.3159 -0.1391  0.0111
27958W        W44142  13.085   7.074  15.248  0.0454 -0.1386  0.0221
27959W        W44143   0.616   7.099   3.507  0.0819  0.0881  0.1965
27960W        W44144  13.691   1.163  13.776  0.0376 -0.1408  0.2876
27961W        W44145   3.444   6.846   1.093 -0.3013  0.2291  0.4335
27962W        W44146   9.623   5.515   2.448  0.0481  0.1117 -0.0880
27963W        W44147  16.146   2.138   0.868  0.0522  0.0901 -0.0393
27964W        W44148  16.309   2.048  14.942 -0.0890  0.1332 -0.6233
27965W        W44149  16.981   8.657   2.559 -0.2936 -0.2060 -0.0725
27966W        W44150  16.375   9.585  15.909  0.1981  0.0742 -0.0484
27967W        W44151   9.979   9.597   1.725  0.0888  0.1103  0.0318
27968W        W44152  13.903  17.008   5.238 -0.0112  0.1244 -0.1468
27969W        W44153  17.266  13.517  13.438  0.2453  0.0935  0.0061
27970W        W44154  18.149   1.852   3.634 -0.0764  0.2684  0.0124
27971W        W44155   0.252   7.662   4.383  0.0580  0.1287  0.0669
27972W        W44156   3.046  15.164   1.818  0.0935 -0.1667 -0.1202
27973W        W44157   0.522  16.056  13.485 -0.1924  0.0636 -0.1218
27974W        W44158  10.587  16.253   3.605 -0.1695  0.1403 -0.2762
27975W        W44159   9.590  12.115  14.370  0.1151  0.1636 -0.2062
27976W        W44160  16.644   6.245   0.477 -0.3914  0.1310 -0.1602
27977W        W44161   0.901   8.139  13.369  0.1800 -0.2612  0.0765
27978W        W44162  17.082   8.405  12.698  0.1903 -0.3646 -0.2678
27979W        W44163   3.077   9.695  11.778  0.1744 -0.0127  0.0701
27980W        W44164   4.579  15.218   3.681  0.1014 -0.0834  0.0304
27981W        W44165  14.916   9.159  13.332  0.2855 -0.2886  0.2417
27982W        W44166  15.469   4.807  11.697 -0.0516 -0.3539  0.2669
27983W        W44167  16.789  15.869   3.408  0.1162 -0.4444  0.0627
27984W        W44168   3.018   1.253  15.897 -0.1996  0.1157 -0.0533
27985W        W44169  14.155   8.743   0.370 -0.1376  0.4040  0.2650
27986W        W44170  17.648   3.587   3.689  0.1501  0.0543 -0.1910
27987W        W44171  17.053  15.710   1.571  0.4513  0.3054 -0.4774
27988W        W44172   6.815  16.390   5.873 -0.5878 -0.0704 -0.3272
27989W        W44173   5.700  14.122  11.934 -0.1062 -0.1485  0.2648
27990W        W44174   9.809  17.839   2.085 -0.1005  0.0420  0.1347
27991W        W44175   0.874   1.439  12.896 -0.0036  0.0939 -0.0896
27992W        W44176   7.250   5.133   5.897  0.2442 -0.3342 -0.1526
27993W        W44177   4.808  13.969   4.695 -0.0674 -0.1088 -0.0779
27994W        W44178  17.163  10.037   3.352  0.1726 -0.1177  0.1115
27995W        W44179   9.555   9.674   5.101 -0.0971  0.1316  0.0334
27996W        W44180  11.978   7.384   2.936 -0.1817  0.1776 -0.3121
27997W        W44181   4.672   1.892   2.456 -0.1001  0.0615 -0.3186
27998W        W44182  11.648  13.083   0.545  0.1706  0.0250 -0.1103
27999W        W44183  12.292  17.291  13.483 -0.0646 -0.0019  0.0340
28000W        W44184   0.470  14.158   1.910 -0.0703 -0.0123  0.1217
28001W        W44185  11.426   3.068  16.551  0.0646 -0.2230 -0.0606
28002W        W44186  15.122   7.332  14.314  0.0859  0.1879 -0.2490
28003W        W44187   1.367  11.455  13.152  0.0791  0.0747  0.5200
28004W        W44188  18.062  13.463   1.478 -0.0486  0.0604 -0.3819
28005W        W44189  11.490   7.038   0.947  0.1557  0.0351 -0.0820
28006W        W44190  17.294  14.684  14.529  0.0478 -0.2312  0.1878
28007W        W44191   1.913   5.058   5.188  0.0498  0.0699 -0.0826
28008W        W44192  11.201   9.620   2.253 -0.0192 -0.2032  0.0285
28009W        W44193   1.224  10.561  16.655  0.1298  0.1475 -0.1673
28010W        W44194  16.922   6.563   3.062  0.1231 -0.2320 -0.1658
28011W        W44195   8.029  10.671   0.285 -0.0346  0.1789 -0.1662
28012W        W44196  11.139  11.685   5.506 -0.1563  0.0228  0.1864
28013W        W44197  10.327  18.081  15.388 -0.1728  0.1545  0.2319
28014W        W44198   2.256  13.187   0.175  0.0738 -0.2439  0.0246
28015W        W44199   6.070   9.722   1.951 -0.0364  0.1977  0.0277
28016W        W44200   3.366   3.650  12.009  0.1688  0.1787 -0.1632
28017W        W44201   4.025   5.723   2.121 -0.2485  0.2001  0.3104
28018W        W44202   5.311   1.102   3.267  0.0648  0.3821 -0.5103
28019W        W44203   2.949  14.718  16.141  0.1201 -0.3821 -0.1345
28020W        W44204   6.496  11.237  13.259  0.0667 -0.1382  0.1236
28021W        W44205   2.194   9.486   3.145  0.0511 -0.0127 -0.2621
28022W        W44206  11.085   1.778   3.019  0.1559 -0.0004 -0.0886
28023W        W44207   0.769  13.981   2.647 -0.0711 -0.1757  0.3045
28024W        W44208  16.391   3.956  10.615  0.1248 -0.3212  0.2012
28025W        W44209   5.166  18.023   1.934  0.0825 -0.1762  0.3207
28026W        W44210  15.781  12.712  13.945 -0.0652 -0.3329  0.0637
28027W        W44211   2.427   5.089  14.611  0.1180 -0.1763 -0.2602
28028W        W44212  14.642  12.051   3.752 -0.2991  0.0801 -0.1149
28029W        W44213   2.721   4.574  15.715  0.0054 -0.0888 -0.0923
28030W        W44214  15.637  12.860  15.422  0.2700 -0.4467  0.3809
28031W        W44215  16.804   8.538   3.812 -0.1110 -0.1099 -0.2536
28032W        W44216   8.558  10.875   2.747  0.1912  0.1583  0.0039
28033W        W44217  13.002   0.280  10.972 -0.2062  0.2076  0.1097
28034W        W44218   3.917   7.241   0.151 -0.2741  0.0387  0.2272
28035W        W44219  13.666  12.130   1.450  0.4624 -0.1846  0.3343
28036W        W44220   9.233  16.307   2.339 -0.4581  0.0563 -0.0369
28037W        W44221   8.197   0.411   5.231 -0.0547 -0.2312 -0.3811
28038W        W44222   4.445   2.778   2.400 -0.0887  0.0797 -0.0379
28039W        W44223   5.335  13.868  11.830 -0.0409 -0.1486 -0.3157
28040W        W44224   9.295  12.099  13.390  0.3040  0.2114  0.3172
28041W        W44225  10.616   5.366  12.469  0.2686  0.2320 -0.2471
28042W        W44226  10.816  15.566   1.523  0.2780 -0.0447 -0.3643
28043W        W44227  16.246   3.185  12.139  0.1266 -0.3201  0.0520
28044W        W44228  10.030   4.886  12.725  0.1949 -0.2403  0.1877
28045W        W44229   1.153  10.823   1.780  0.1228  0.0415  0.2996
28046W        W44230  13.494  16.997  16.003 -0.0401  0.0817  0.1021
28047W        W44231   2.132  12.552  15.854  0.3619 -0.2008  0.1197
28048W        W44232  14.585   3.171  11.960  0.0329  0.2287  0.1833
28049W        W44233  10.703  14.164   1.829  0.1356 -0.3473 -0.1020
28050W        W44234   3.988   8.174  13.755  0.1319 -0.0425 -0.2997
28051W        W44235   0.268   3.446  12.078 -0.0333  0.3079 -0.1411
28052W        W44236   2.375   8.960   2.884 -0.1404 -0.1175 -0.0992
28053W        W44237   8.816  15.116   6.265  0.0951  0.2240 -0.2510
28054W        W44238   7.859  15.645  15.332  0.2977  0.1424  0.1622
28055W        W44239   5.204  12.004   4.963 -0.4130  0.1884  0.1243
28056W        W44240   5.649   6.436  14.643 -0.3565  0.1173  0.0677
28057W        W44241   6.624   1.456  12.031 -0.3198 -0.1099 -0.1786
28058W        W44242   3.872   9.951  16.365  0.4107 -0.1658  0.2577
28059W        W44243  10.482   1.326   0.936  0.1739  0.1736 -0.2705
28060W        W44244  13.284   3.494   1.938 -0.0724 -0.2255 -0.0161
28061W        W44245  17.953   5.147   0.938  0.2069 -0.0563  0.1708
28062W        W44246   5.417   2.845  14.339  0.1085 -0.1199 -0.3097
28063W        W44247   8.051   6.379   4.627  0.1025 -0.1105  0.1261
28064W        W44248   8.943   3.418  13.999 -0.2155  0.3185 -0.0307
28065W        W44249  17.851  13.206   5.621  0.2663 -0.0211 -0.2696
28066W        W44250   0.134  10.724   5.360 -0.2506  0.1287 -0.0813
28067W        W44251   1.690   5.416   4.944  0.0422 -0.1073 -0.2113
28068W        W44252  14.919   1.144  16.182 -0.2160  0.0055  0.1474
28069W        W44253   0.308   4.272   3.936 -0.2910  0.0117  0.2460
28070W        W44254  14.072   8.406  14.141 -0.2463  0.2945  0.3108
28071W        W44255  14.455   8.555   0.007 -0.0517  0.1108 -0.1290
28072W        W44256   2.785  16.864   0.555 -0.1330 -0.1991 -0.1500
28073W        W44257   9.799   7.436  13.790  0.0567  0.1983  0.1808
28074W        W44258   7.361  11.936  16.208  0.0472  0.1680  0.1510
28075W        W44259  13.796  11.342   2.298  0.0227 -0.1057 -0.0448
28076W        W44260  15.932  13.204  14.991 -0.2022 -0.0800 -0.2529
28077W        W44261   5.107  12.528   4.606  0.1351  0.0494  0.2751
28078W        W44262  14.120   9.635   4.952  0.1381 -0.0673 -0.0293
28079W        W44263   3.044   3.360   2.005  0.1430  0.4284  0.2546
28080W        W44264  11.719  15.017  15.805  0.0107 -0.2839 -0.0647
28081W        W44265  12.801   9.871   0.578  0.3148 -0.2965 -0.1395
28082W        W44266  10.002   0.522  12.653  0.2526 -0.2308  0.0581
28083W        W44267   2.873  11.158  11.899 -0.1044 -0.2373  0.0165
28084W        W44268  17.976  16.573   3.515 -0.0820  0.0175 -0.1839
28085W        W44269  15.626  11.824  13.527 -0.1122 -0.1612  0.0881
28086W        W44270   9.305   8.755  12.437 -0.3085 -0.0585  0.2612
28087W        W44271   8.984   5.417  13.580 -0.0035 -0.1518  0.1462
28088W        W44272  12.855   7.619   1.069 -0.1430 -0.2229  0.1453
28089W        W44273   1.698   4.852  15.035  0.1231 -0.2211  0.1481
28090W        W44274  15.645   0.510   4.724 -0.1723  0.5087 -0.0159
28091W        W44275   2.078  17.601   3.679 -0.1773  0.0482  0.1538
28092W        W44276  12.494   6.036   4.311 -0.1244  0.1992 -0.0054
28093W        W44277   0.139  17.522  14.494  0.2307 -0.1069 -0.1022
28094W        W44278  17.706  13.763  13.149  0.4482  0.2460 -0.1340
28095W        W44279   3.630  16.212   4.600 -0.0038  0.1671  0.1813
28096W        W44280  16.777   4.032   2.612 -0.0970  0.3402  0.1392
28097W        W44281   0.368   0.573   4.770 -0.1703 -0.0274  0.1018
28098W        W44282  18.060   5.492   4.222  0.1481  0.1739 -0.0525
28099W        W44283   1.171  17.326  12.714 -0.0183  0.3032 -0.0001
28100W        W44284  10.064   3.527   4.416  0.2596  0.1377 -0.0027
28101W        W44285   1.538   5.682   4.231  0.0600 -0.3034 -0.1248
28102W        W44286   8.769   1.587   0.349 -0.1400 -0.2857 -0.0188
28103W        W44287   2.578   6.766  15.400 -0.1208  0.5454  0.0862
28104W        W44288   4.927  15.058  15.377  0.1448  0.1236  0.0271
28105W        W44289   8.129  13.991   2.349  0.0966 -0.0822  0.2869
28106W        W44290   3.417  11.760   4.281  0.1175  0.1842 -0.1201
28107W        W44291  10.485   3.683  11.779 -0.0413 -0.0191  0.1392
28108W        W44292  16.167  17.036  12.120  0.0944 -0.2488  0.1970
28109W        W44293  10.716   1.359   3.139 -0.0756 -0.0156 -0.0425
28110W        W44294  13.486  10.521  14.198 -0.1866  0.2120  0.2964
28111W        W44295  14.778   8.619   4.909 -0.1672  0.0457 -0.1708
28112W        W44296  10.459  16.133  16.587 -0.2552  0.1750  0.1930
28113W        W44297   8.995  10.574   4.065 -0.2502 -0.0137 -0.2945
28114W        W44298  15.145   5.057   3.411 -0.1554 -0.0796 -0.0269
28115W        W44299   9.927   5.368   0.119  0.0515 -0.3093  0.1031
28116W        W44300  11.937   8.801   0.956  0.1667  0.0332  0.1365
28117W        W44301   7.721  12.010   5.380 -0.1755 -0.2880 -0.1346
28118W        W44302  14.290  12.694  15.551 -0.0268 -0.0256 -0.2226
28119W        W44303   9.368  13.218  15.463  0.0332  0.0899  0.1610
28120W        W44304  16.450   2.467  13.483 -0.0764 -0.1445  0.1596
28121W        W44305   5.947   7.680  13.984  0.1314 -0.0023 -0.3121
28122W        W44306  10.881  14.429  15.796  0.0299 -0.1917 -0.0596
28123W        W44307   8.543   0.702   0.880  0.0494  0.2782  0.0910
28124W        W44308   8.342   7.953   3.686 -0.0213  0.0369  0.1715
28125W        W44309  16.082  14.364  15.270 -0.0710 -0.0347 -0.0426
28126W        W44310  16.196   5.750  13.539  0.0376  0.2387 -0.2567
28127W        W44311  11.958   8.300   0.142 -0.0291 -0.2276  0.1777
28128W        W44312  16.990  12.068  14.641 -0.0993 -0.0009  0.0253
28129W        W44313   0.431   6.361  16.006 -0.0184 -0.0589  0.1368
28130W        W44314  16.987  15.345  16.320 -0.3574  0.4125  0.0392
28131W        W44315  11.163  17.300  12.121  0.0226  0.0138  0.1169
28132W        W44316  14.277   3.526  11.766 -0.1196 -0.4586 -0.3412
28133W        W44317   2.276  10.792   2.874  0.0408 -0.3351 -0.0836
28134W        W44318  15.222   2.533   2.900  0.1123 -0.0375  0.2306
28135W        W44319   1.749   1.349  15.269  0.2852  0.4025 -0.3697
28136W        W44320  14.422   5.269  15.494 -0.0031  0.2271  0.0027
28137W        W44321   8.284   8.731   4.491  0.1352  0.3922 -0.1682
28138W        W44322   8.639   4.740   3.366 -0.0433  0.1238  0.1260
28139W        W44323   3.192   9.408   3.381  0.0362  0.0631  0.2003
28140W        W44324  13.621  14.327   2.212  0.3170 -0.2099  0.0024
28141W        W44325  11.798   7.673   1.729  0.0112 -0.0191 -0.2021
28142W        W44326  12.198  10.501  15.652  0.0055  0.0037  0.1525
28143W        W44327   0.767   8.225   4.490  0.0065 -0.1248  0.1497
28144W        W44328   6.087  12.856  11.861  0.2675 -0.0749 -0.1660
28145W        W44329   0.428  15.202   4.560 -0.1922  0.1159  0.2939
28146W        W44330  14.364   2.081  11.664 -0.0550  0.1117  0.0519
28147W        W44331   2.049   7.826  15.000 -0.1856  0.1833 -0.0582
28148W        W44332   7.367  17.084  13.718 -0.5075  0.1316 -0.1601
28149W        W44333  14.720  11.661  15.625 -0.3073 -0.0465  0.2245
28150W        W44334   2.878   0.342   2.098 -0.2486  0.0034 -0.1731
28151W        W44335  12.450   1.078   3.363  0.4756 -0.1147 -0.0016
28152W        W44336   3.232  16.341  12.269  0.0057  0.0149  0.2787
28153W        W44337  15.204  17.155  11.514 -0.1808 -0.2656 -0.3893
28154W        W44338  14.103   8.214  15.476 -0.5777  0.1693 -0.0731
28155W        W44339   7.539   2.108   0.056 -0.3135 -0.3281  0.0900
28156W        W44340   7.724  14.972   4.250  0.2974  0.0025 -0.2990
28157W        W44341  14.892   4.960   0.742 -0.0202  0.0039 -0.0485
28158W        W44342  13.204  16.874   2.598  0.2714  0.1513  0.0117
28159W        W44343  14.413   6.655  11.665 -0.2210  0.0062  0.0835
28160W        W44344   1.949   1.880   1.793  0.1289 -0.2261  0.1280
28161W        W44345   7.273  17.682   3.303 -0.1114 -0.0430  0.2412
28162W        W44346  14.948   5.143   1.672  0.0205  0.0675 -0.1381
28163W        W44347   6.810   2.784  16.191 -0.1049 -0.2699 -0.2501
28164W        W44348  12.136  10.305  11.985  0.1134 -0.2046 -0.0427
28165W        W44349   9.474   6.742   2.009  0.0325  0.1055  0.1416
28166W        W44350   8.931  15.859   2.435  0.3267 -0.2102 -0.0898
28167W        W44351   9.411   1.268   1.789 -0.1689  0.0525 -0.0164
28168W        W44352  17.476  14.134  14.391 -0.2618 -0.1549  0.0507
28169W        W44353  12.296   3.322   4.059 -0.0714 -0.1748  0.2465
28170W        W44354  17.823   2.486  10.174  0.2029 -0.1060 -0.1114
28171W        W44355   7.454   0.353   5.337 -0.2593  0.2018  0.0304
28172W        W44356   7.011   2.430   0.427  0.0376  0.0478 -0.1022
28173W        W44357  16.824  18.126   1.834  0.0628  0.4467 -0.0529
28174W        W44358  10.448  10.387  16.110 -0.3084 -0.2212 -0.0066
28175W        W44359  16.912   1.756  15.301 -0.4971 -0.0363 -0.2617
28176W        W44360  10.195  14.269   2.878 -0.1897 -0.1024 -0.2002
28177W        W44361  13.871   5.602  16.116 -0.0268 -0.0578  0.0782
28178W        W44362  17.468  16.568   1.652  0.4826  0.0409 -0.2186
28179W        W44363   0.633   8.634  13.295  0.0480  0.3402 -0.2365
28180W        W44364   8.539   8.445  14.326 -0.2452  0.0689 -0.5309
28181W        W44365   8.487   2.701   4.869 -0.1903  0.1327 -0.2530
28182W        W44366   1.411  11.287   1.754 -0.1026  0.0525  0.1040
28183W        W44367   2.013  14.717   5.281 -0.0206 -0.1118 -0.0333
28184W        W44368   7.457   8.523   3.216 -0.0555 -0.1189 -0.2389
28185W        W44369   7.740   9.828  13.555  0.0501  0.0180 -0.1707
28186W        W44370   7.794   8.160  12.933  0.2036 -0.1557  0.0143
28187W        W44371  13.630  17.860  14.495 -0.2712  0.2732 -0.0749
28188W        W44372   5.310   8.633   0.900  0.0286 -0.0797 -0.0448
28189W        W44373  13.416  14.079  15.564  0.1286  0.1060 -0.0168
28190W        W44374  14.772  16.502  15.053  0.1143 -0.2411  0.1686
28191W        W44375  12.590  15.099   3.679 -0.0537 -0.3968 -0.1622
28192W        W44376  12.341  15.947  14.919 -0.1090  0.1439 -0.0312
28193W        W44377   8.253  15.813   5.317  0.0803  0.0189 -0.1386
28194W        W44378  12.730   4.483  13.764 -0.3248  0.0695  0.0975
28195W        W44379   2.936   6.807   4.820 -0.3026  0.3206  0.0579
28196W        W44380  16.987   5.533  11.084 -0.2929  0.0333  0.0732
28197W        W44381   0.593   0.427  12.621  0.0417  0.0227  0.0338
28198W        W44382  10.137  11.739   4.662 -0.4064 -0.1211  0.5825
28199W        W44383  15.334   0.791   4.345  0.1754  0.1189  0.1114
28200W        W44384  16.639   0.505  11.420  0.0534  0.1268  0.0721
28201W        W44385  15.316   0.441   5.275  0.1086  0.2376  0.0091
28202W        W44386   4.996   7.179  14.329  0.1116 -0.1577 -0.0290
28203W        W44387  15.937   8.943  10.868  0.1572 -0.0256  0.0787
28204W        W44388   9.075  10.715  13.640 -0.1173  0.0009 -0.0650
28205W        W44389  12.810   8.285  15.593 -0.1100  0.1621 -0.0717
28206W        W44390  16.594  17.214  14.490  0.2250 -0.2756 -0.1420
28207W        W44391  18.104  16.543  12.359  0.0770  0.0609  0.1612
28208W        W44392  12.325  13.860  13.234  0.2308  0.2847 -0.0405
28209W        W44393  14.787   9.202   0.584 -0.4156  0.0604  0.0542
28210W        W44394  10.136   7.778   0.041  0.1312  0.2297  0.1058
28211W        W44395   8.973   7.286  11.858 -0.0779  0.2459 -0.0396
28212W        W44396   7.944   1.875   1.562 -0.1681 -0.0768  0.2839
28213W        W44397   5.462   1.533  12.776 -0.1087 -0.0246  0.0796
28214W        W44398  12.892   3.311  12.777  0.0121 -0.3476  0.0613
28215W        W44399   3.159   5.128  14.213  0.2207 -0.2482 -0.2115
28216W        W44400   3.010   6.738  14.990  0.0903 -0.0551 -0.0520
28217W        W44401  15.128  16.334   1.095 -0.2430 -0.0117 -0.0496
28218W        W44402   2.218  13.547   1.586  0.1844 -0.1615 -0.0006
28219W        W44403   8.836   0.795   0.435 -0.1137 -0.1128 -0.0065
28220W        W44404   8.825  11.235   1.065  0.0805  0.1450  0.2430
28221W        W44405  16.865  16.279  12.343  0.0182  0.1328  0.1218
28222W        W44406  14.153   9.546   3.483 -0.0647  0.0064 -0.0338
28223W        W44407  11.458   9.715  13.703  0.0494 -0.1703 -0.0036
28224W        W44408   7.323  17.988   5.274  0.1872  0.0797  0.0456
28225W        W44409   1.283  12.210  14.218  0.2783  0.2961 -0.1264
28226W        W44410   4.832  10.684   2.969  0.0579  0.0376  0.2567
28227W        W44411   2.070   5.729  14.596 -0.2593 -0.1849  0.4139
28228W        W44412   0.863  17.444   2.984 -0.0017 -0.0329 -0.1946
28229W        W44413  12.053   3.659   5.607 -0.2733  0.0068  0.1840
28230W        W44414  11.174   4.164   0.800 -0.1839  0.3917  0.0699
28231W        W44415  13.724  15.581   1.000  0.2239 -0.0738  0.1885
28232W        W44416   2.922   1.301   0.733  0.0488  0.0759 -0.1055
28233W        W44417   4.643  10.941  12.876 -0.1169 -0.0075 -0.0465
28234W        W44418  16.236  18.047   1.921  0.0446  0.2434 -0.0674
28235W        W44419   7.214   9.081  13.632 -0.0754 -0.1311 -0.1826
28236W        W44420   9.552   5.062  12.620  0.2468  0.2289 -0.1955
28237W        W44421   6.279  13.390  14.307 -0.1026 -0.3288 -0.1784
28238W        W44422   0.116   8.239   0.422 -0.2836 -0.1161  0.4651
28239W        W44423   6.897  14.604   3.951 -0.1714  0.2323 -0.0262
28240W        W44424  14.682  11.261  16.434 -0.1161  0.0283 -0.0482
28241W        W44425  14.806  13.365   1.532 -0.1056  0.2208  0.1786
28242W        W44426  10.598   5.560   4.940  0.1602 -0.2015  0.0257
28243W        W44427   2.020   5.324  12.233 -0.4828 -0.0153  0.0138
28244W        W44428   2.789   0.504   2.716 -0.0772 -0.1474  0.0247
28245W        W44429   8.271  14.811  12.118 -0.1003 -0.3004 -0.0869
28246W        W44430   8.664  10.449   5.121 -0.0906  0.1060  0.0979
28247W        W44431   7.280  14.613  14.004 -0.0618  0.0230 -0.0195
28248W        W44432  11.176   6.261  14.883 -0.0882  0.3332  0.0757
28249W        W44433   0.263   8.197  14.750  0.0962  0.2346  0.0951
28250W        W44434   5.571  16.128   4.849  0.1824  0.2580 -0.3485
28251W        W44435   4.104  13.932  14.810  0.2979  0.0757 -0.4656
28252W        W44436   6.918   7.342   4.182 -0.1093  0.2872 -0.0420
28253W        W44437   2.341  10.285   1.171 -0.4049  0.2417  0.1857
28254W        W44438   4.993  13.278  12.665  0.1440  0.0272 -0.0868
28255W        W44439  10.299  13.604   1.657  0.5008  0.0385 -0.1446
28256W        W44440   8.696  14.606   1.005 -0.1418  0.0686 -0.1249
28257W        W44441   4.077   4.574   0.127 -0.1437  0.0264  0.1856
28258W        W44442   1.814  15.324   2.471 -0.0377  0.1382  0.3300
28259W        W44443   5.551  11.899   6.167  0.1242 -0.2223 -0.1174
28260W        W44444  14.974   4.159   0.673  0.3446 -0.0162  0.1702
28261W        W44445   5.122  17.733   2.415  0.1775 -0.1516  0.5322
28262W        W44446   8.974   4.120  14.575  0.0388 -0.0741  0.1445
28263W        W44447  10.035  10.250   1.498 -0.1341  0.0629  0.0913
28264W        W44448  10.293   0.522   4.448  0.2397 -0.5423  0.0480
28265W        W44449  12.893  11.722  12.388  0.0385  0.1231 -0.2228
28266W        W44450   7.531  17.451   4.615  0.1522  0.0046  0.1369
28267W        W44451   6.771  17.975  13.696 -0.0195 -0.0146 -0.1235
28268W        W44452  14.493   8.696  12.794  0.0226 -0.3013  0.1360
28269W        W44453  15.918  14.240   1.489 -0.1478  0.1164 -0.2668
28270W        W44454  16.982   7.423  14.344  0.3252  0.0084 -0.0045
28271W        W44455  12.867   1.357  12.620  0.1675 -0.0504 -0.0605
28272W        W44456  16.074  16.959  13.606 -0.0884  0.0671 -0.0949
28273W        W44457  16.497  16.854  15.417  0.0164 -0.0265 -0.0566
28274W        W44458  16.412  11.487   4.124  0.5155  0.3243  0.2286
28275W        W44459  14.331  10.125   1.824  0.0344  0.2599 -0.0726
28276W        W44460  13.306   8.626   3.895  0.0851  0.1430  0.1763
28277W        W44461  14.706   6.067  16.665  0.2048 -0.0481 -0.1961
28278W        W44462   3.274   6.315   0.790 -0.1076 -0.3121 -0.0043
28279W        W44463   6.857   8.075  16.124  0.3706  0.0901  0.1192
28280W        W44464   7.557   2.354  13.994 -0.1696  0.3286 -0.0204
28281W        W44465  15.902   2.845   0.211 -0.3568  0.3081  0.0093
28282W        W44466   9.231   0.405  16.354 -0.2483  0.1112 -0.1634
28283W        W44467   2.448   0.845  12.526 -0.1734  0.4770 -0.0163
28284W        W44468   1.496  12.794   5.477 -0.1320  0.0044 -0.0853
28285W        W44469   0.354   3.295  16.299 -0.0993  0.4235  0.2189
28286W        W44470   2.980   3.201  13.867  0.3246  0.0808  0.2588
28287W        W44471  11.229   9.277  16.620  0.0657  0.1240  0.0673
28288W        W44472  17.964   2.102   3.228 -0.0451  0.2813 -0.3406
28289W        W44473  13.064   7.881  13.565  0.1041  0.1463  0.1339
28290W        W44474  12.960  18.002  12.407  0.2017  0.0085  0.0817
28291W        W44475   4.583   9.590   6.093 -0.0734 -0.0643  0.0534
28292W        W44476   5.764   6.357   4.951 -0.1920  0.1582 -0.0762
28293W        W44477  18.117   0.283  14.557 -0.0211 -0.1442  0.0536
28294W        W44478  18.084   4.711   2.543  0.0465 -0.2725  0.1637
28295W        W44479  13.238   9.101  14.552 -0.2085  0.1406 -0.0415
28296W        W44480   5.890   9.097   0.410 -0.1976 -0.0508 -0.3550
28297W        W44481   3.856  11.397   6.130 -0.0527  0.4801 -0.1905
28298W        W44482  12.032  17.777   1.123 -0.0745 -0.0006 -0.1028
28299W        W44483   6.193  12.879  13.775 -0.1053  0.1723  0.2428
28300W        W44484  11.128   7.999  13.190  0.1096  0.0967 -0.0298
28301W        W44485   9.910   3.995   3.983 -0.1904 -0.0513 -0.0850
28302W        W44486  15.328   8.647   4.185 -0.2101 -0.1221 -0.0776
28303W        W44487   1.333  17.627   0.795  0.0249 -0.2463 -0.0741
28304W        W44488  13.626   9.370   3.651 -0.1996 -0.0468  0.2455
28305W        W44489  17.655  12.107   1.012 -0.2300  0.0937  0.1427
28306W        W44490   0.368   9.545  15.943  0.2135  0.0677  0.0469
28307W        W44491  14.827   3.986  15.752  0.0898  0.0119 -0.0397
28308W        W44492  17.688   8.008  12.951  0.3482 -0.1860  0.0217
28309W        W44493   8.070  13.195  13.201  0.2411 -0.0986 -0.4210
28310W        W44494  13.078   0.481   2.492 -0.0262  0.1052 -0.3591
28311W        W44495   6.936   4.248   5.514  0.2255  0.0164 -0.2248
28312W        W44496   3.785  11.001  12.838 -0.1181  0.0644 -0.2981
28313W        W44497   4.133  11.567   3.019 -0.2558  0.0070  0.0503
28314W        W44498   1.308   6.596   1.333  0.1326 -0.3350  0.2193
28315W        W44499   0.633  14.635   0.578 -0.1334 -0.0262  0.1252
28316W        W44500   4.826   1.209   0.429 -0.3830  0.0895 -0.1713
28317W        W44501  11.061   5.409   3.434 -0.1584  0.0270 -0.3153
28318W        W44502   8.076  12.873  15.855  0.0442  0.3497 -0.1717
28319W        W44503   9.392   3.386   2.974 -0.0086 -0.0580  0.0772
28320W        W44504  18.087   2.896  11.012 -0.0258  0.0130  0.0309
28321W        W44505   9.930  14.464   2.391 -0.1639 -0.2532 -0.0479
28322W        W44506   7.023   6.484   4.284 -0.5257 -0.1135  0.0754
28323W        W44507   2.890  11.061  14.861  0.1265  0.1055  0.1191
28324W        W44508   5.639   7.765  14.475  0.1838  0.1109 -0.0174
28325W        W44509   7.774  16.074   3.484 -0.1922 -0.1329  0.2895
28326W        W44510  15.542   4.861  10.818 -0.2078  0.0020  0.0656
28327W        W44511   3.448   3.375   4.189  0.0601 -0.0832  0.1553
28328W        W44512  10.228   9.746   2.222 -0.0291  0.4249 -0.0178
28329W        W44513   4.490  10.377   5.343 -0.4084 -0.1819  0.0499
28330W        W44514   7.191  10.201   5.576 -0.1268 -0.1752 -0.1655
28331W        W44515  17.151   8.211   3.634 -0.4185 -0.2010 -0.0390
28332W        W44516   5.273  15.799   0.916 -0.2426 -0.3407  0.2659
28333W        W44517   7.451   8.907   3.976 -0.0723 -0.2444  0.0278
28334W        W44518   7.396  10.234   6.047  0.1996 -0.1437 -0.0397
28335W        W44519   3.275  17.940  14.363 -0.2818  0.0217  0.1398
28336W        W44520  17.017  12.524  13.479 -0.0915 -0.1449  0.2675
28337W        W44521   1.513  14.794  16.085 -0.0551  0.0279  0.1545
28338W        W44522   0.439   5.516  12.587 -0.0032 -0.2402  0.0025
28339W        W44523   7.560  12.833  13.079  0.0172  0.1883 -0.1963
28340W        W44524  10.708   2.989   0.282 -0.0127  0.2357 -0.4629
28341W        W44525   8.834  11.314   3.668 -0.2474  0.2098  0.1188
28342W        W44526   9.868   5.854   0.274  0.0597  0.0764 -0.0658
28343W        W44527   1.442   7.784  13.484  0.0082  0.0495  0.0017
28344W        W44528  13.902  17.146  13.828 -0.0048 -0.2895 -0.1871
28345W        W44529  14.057   4.178   3.593 -0.0163  0.1975  0.0790
28346W        W44530  15.961   5.598  11.545 -0.1517  0.1180  0.0508
28347W        W44531  15.483  13.961  15.507  0.3475  0.0563 -0.3096
28348W        W44532   2.525  13.502  14.363  0.0488 -0.0000  0.0721
28349W        W44533   3.874   4.078  13.798 -0.1623 -0.1144 -0.0190
28350W        W44534  17.147  13.769   6.111 -0.2148  0.0488 -0.4579
28351W        W44535   7.820  13.131   1.822  0.3754 -0.0243 -0.0635
28352W        W44536   1.062   0.225   4.079  0.2318 -0.4047  0.3244
28353W        W44537  13.594   4.455  14.689 -0.1902 -0.0914  0.1229
28354W        W44538  15.008  11.589   1.101 -0.1880  0.3031  0.0071
28355W        W44539   2.724   1.479  16.222 -0.1739  0.1427 -0.2020
28356W        W44540  13.007   3.889  12.539  0.1419  0.0508  0.0078
28357W        W44541   7.250  18.029  11.889  0.1141 -0.0251 -0.1760
28358W        W44542   5.102  12.106  15.687 -0.0281 -0.1388 -0.1773
28359W        W44543   4.763   5.933   5.495  0.2500  0.0733 -0.1136
28360W        W44544   0.975   9.655   0.777 -0.0432  0.0017 -0.1994
28361W        W44545  15.620  17.997   0.045 -0.2670  0.1534  0.2760
28362W        W44546  12.872   7.925   4.079 -0.1084  0.0771  0.2979
28363W        W44547  14.460  14.613  12.978  0.0064 -0.1808 -0.2907
28364W        W44548  16.661  15.670  16.241  0.2193  0.1766  0.0285
28365W        W44549  17.803   7.716   4.921  0.2671  0.0496 -0.1212
28366W        W44550  11.240  17.793  12.363 -0.0280  0.0869  0.2564
28367W        W44551   6.194  12.829   1.266  0.0016 -0.2648  0.1357
28368W        W44552   4.665   0.931   2.673 -0.0005 -0.2595  0.2318
28369W        W44553   2.327   4.656   3.390 -0.4654 -0.2387  0.0077
28370W        W44554   9.323  11.268   3.507  0.0890  0.2913 -0.2402
28371W        W44555   3.293   9.355  14.921 -0.1829 -0.2381 -0.3931
28372W        W44556   8.781  11.731   4.532  0.0806 -0.1272 -0.1211
28373W        W44557  15.451  10.386   5.936  0.0573  0.1675 -0.0448
28374W        W44558  10.599  10.137  12.962  0.1230 -0.0655  0.1100
28375W        W44559  17.407  15.879  12.637 -0.3284  0.0076 -0.0797
28376W        W44560   3.646  10.495   4.827 -0.2987 -0.1103 -0.1688
28377W        W44561   0.444  11.238  15.915  0.1361  0.0435 -0.3209
28378W        W44562   7.521   6.135  16.287 -0.0889 -0.1803 -0.0043
28379W        W44563   1.478  15.772   3.775  0.1855 -0.0689 -0.2018
28380W        W44564   5.793  17.525   3.742  0.0053  0.0649  0.4897
28381W        W44565   4.999   5.936   4.634 -0.1789  0.4430 -0.0297
28382W        W44566  11.128  15.707   4.880  0.1604  0.1096  0.1014
28383W        W44567   6.560  12.264  16.581  0.2920 -0.2860  0.0753
28384W        W44568   4.542   9.233   0.091  0.3703  0.0321 -0.2474
28385W        W44569   7.550  10.180   4.746  0.0203  0.2542  0.0327
28386W        W44570  11.888   3.651  12.471  0.2226  0.2384 -0.2380
28387W        W44571  14.308   9.415  14.560  0.0810 -0.0159 -0.1438
28388W        W44572  16.593   6.537   0.070 -0.1189  0.0584 -0.1664
28389W        W44573   2.863   6.906  15.922 -0.0513 -0.1910 -0.2129
28390W        W44574   4.206   3.498   2.998  0.1661 -0.0932 -0.2145
28391W        W44575  15.028   1.362  15.035 -0.1380  0.0139  0.2153
28392W        W44576   5.732   3.485   4.588 -0.0032  0.2016 -0.2765
28393W        W44577   9.329  11.322   2.483 -0.3016 -0.0496 -0.0575
28394W        W44578   5.576   0.261   3.861  0.1104 -0.0897  0.1490
28395W        W44579  12.995   8.042   1.454  0.2201 -0.2943  0.0839
28396W        W44580  10.632  15.453  13.169  0.1933 -0.2356 -0.1805
28397W        W44581   9.839   4.398   4.810  0.1592 -0.0928 -0.2322
28398W        W44582   9.569  15.072  15.335 -0.3487 -0.1113 -0.2902
28399W        W44583  16.282   1.946   4.122  0.1692 -0.0662 -0.2570
28400W        W44584  13.897  10.030   4.161 -0.3743 -0.0272 -0.1272
28401W        W44585  13.727  15.834  12.474  0.0036  0.1899 -0.0537
28402W        W44586  14.158  10.657  14.608 -0.2300  0.1324 -0.0086
28403W        W44587   1.708   4.732  10.643  0.2347 -0.2023 -0.0528
28404W        W44588   2.815   3.732   2.374 -0.1168  0.0377 -0.0281
28405W        W44589  11.213   3.192   4.819  0.1301 -0.0917 -0.1410
28406W        W44590  14.388  16.489   3.856  0.1605  0.2008 -0.2567
28407W        W44591  10.176   0.397   1.570  0.0518 -0.2002 -0.0570
28408W        W44592  15.964  17.848  12.793 -0.0315 -0.1245 -0.0118
28409W        W44593  15.712  12.618  12.209  0.1766 -0.2700 -0.1257
28410W        W44594  14.955  14.803  11.483  0.1846 -0.1386 -0.3325
28411W        W44595  13.788  13.306  13.821 -0.1505 -0.4303  0.2268
28412W        W44596   1.717  10.578   0.178 -0.1902  0.0271 -0.0096
28413W        W44597   8.897  10.678  15.033  0.0476  0.1666  0.1418
28414W        W44598   3.098  10.460  15.867  0.1265 -0.0960  0.1125
28415W        W44599  15.756  13.200  12.241  0.2157  0.4274  0.3019
28416W        W44600  15.723  15.082  11.947 -0.0496 -0.1327 -0.2082
28417W        W44601   1.166   8.337   2.943 -0.1200 -0.0746  0.0965
28418W        W44602   8.561   0.671   4.683 -0.3147 -0.1971  0.1843
28419W        W44603  13.430   4.679  12.086  0.1481 -0.0586 -0.1860
28420W        W44604   6.400  11.630   3.471  0.0224  0.2479 -0.4578
28421W        W44605  14.332   1.801   0.154  0.2287  0.0188  0.2108
28422W        W44606   6.803  13.523   0.668 -0.0714 -0.2568  0.2489
28423W        W44607  14.049   9.271  12.576 -0.0590  0.0175 -0.1973
28424W        W44608   6.016   6.305   5.374 -0.3775 -0.1079  0.1114
28425W        W44609   5.020  10.273  12.918 -0.0113  0.0707  0.1915
28426W        W44610   9.870   0.769  11.811  0.1897 -0.1439 -0.2170
28427W        W44611   3.764   0.602  14.596  0.4139 -0.3873  0.1041
28428W        W44612   7.706   1.685   3.083  0.1886  0.3303 -0.0343
28429W        W44613   6.843   4.267  16.408  0.1238 -0.1575  0.0557
28430W        W44614  11.501  12.616  11.882  0.1979 -0.2101  0.1647
28431W        W44615   7.857  10.906   6.403 -0.0171  0.3255  0.0829
28432W        W44616  12.035  17.964   1.628 -0.0030 -0.1001 -0.1386
28433W        W44617   6.718   3.438   1.442 -0.1474 -0.0383  0.1770
28434W        W44618   3.441  10.304  15.512 -0.2850 -0.0847  0.2250
28435W        W44619   5.891   4.402   5.749 -0.0439 -0.1910  0.1753
28436W        W44620  13.018   3.964   0.303  0.0603  0.0209 -0.3621
28437W        W44621   4.654  12.321  14.994 -0.1204  0.1918 -0.0357
28438W        W44622  13.939   3.988  15.927 -0.1972 -0.3309  0.0282
28439W        W44623   1.383   1.762  15.285  0.1108 -0.0918  0.0554
28440W        W44624  17.811   0.867  12.527  0.0830  0.0322 -0.1359
28441W        W44625  14.474  10.464   1.072 -0.0381  0.2035 -0.3126
28442W        W44626   3.911  12.861  13.478 -0.3616 -0.0809 -0.2068
28443W        W44627  14.386  11.978   5.785  0.0520 -0.1447  0.3912
28444W        W44628  17.061  10.460  14.839 -0.2413  0.2813  0.1578
28445W        W44629   7.123  13.733  12.210 -0.2265 -0.1195 -0.0800
28446W        W44630   6.587  15.998   4.497  0.2463 -0.0288  0.5151
28447W        W44631  15.821  16.628  10.363 -0.0097  0.2606 -0.0327
28448W        W44632  16.211   9.145  15.806 -0.0261  0.0570  0.1853
28449W        W44633   1.211   3.033  14.738 -0.2239  0.3045 -0.1791
28450W        W44634   2.321   2.513  12.100 -0.0695  0.2646 -0.1141
28451W        W44635  14.467  15.839  11.650 -0.0501 -0.1256  0.1097
28452W        W44636  17.675   8.835   3.432 -0.1459  0.1328  0.0394
28453W        W44637   8.524   4.908  11.594  0.1818  0.1286  0.0118
28454W        W44638  17.848  16.050  15.012 -0.1385  0.0416 -0.1906
28455W        W44639   4.167  10.692   5.556 -0.1177 -0.1561  0.1338
28456W        W44640   1.593  15.900   5.204  0.3459  0.3838  0.2292
28457W        W44641  13.498   6.220   4.696 -0.2138  0.0246 -0.2276
28458W        W44642   6.368   5.127  11.691 -0.0700 -0.1442 -0.0189
28459W        W44643   8.785  10.769  13.195  0.1145 -0.1504  0.0846
28460W        W44644   3.690  15.102  14.391 -0.3921  0.1612 -0.0176
28461W        W44645  14.101  11.404   1.666  0.2829 -0.1826 -0.3450
28462W        W44646  15.105  15.848   3.037 -0.2624  0.0549 -0.1103
28463W        W44647   5.215   8.613   5.595  0.2242  0.0495  0.4320
28464W        W44648  14.079  11.853  14.036 -0.3265 -0.2881  0.3370
28465W        W44649  14.870   6.296   2.357  0.0749  0.4414  0.1273
28466W        W44650  13.555  11.854   5.170  0.0793 -0.0944  0.0767
28467W        W44651   9.228   4.300   5.055  0.2391  0.0459 -0.0970
28468W        W44652  15.350   8.431   3.590 -0.1785  0.1318 -0.2201
28469W        W44653  14.397  13.241  12.895  0.0836  0.1478 -0.1166
28470W        W44654   3.348  12.974   4.907  0.3110 -0.0751  0.3579
28471W        W44655   5.958   7.625  14.886 -0.2926 -0.0629  0.2121
28472W        W44656   0.625  16.289   2.445 -0.0445  0.1007 -0.0890
28473W        W44657   8.498   5.582  15.037  0.1699  0.2905 -0.1288
28474W        W44658  12.810  16.977   4.229  0.0866 -0.1241  0.3264
28475W        W44659   8.221   1.123   1.056  0.1500  0.0857  0.3772
28476W        W44660   3.138   9.978   5.462 -0.4993 -0.0714 -0.1451
28477W        W44661   3.712   6.921  11.687  0.4294  0.0666  0.0061
28478W        W44662   1.392  13.706   3.796  0.0193 -0.0804  0.0494
28479W        W44663   5.569  10.215  13.644 -0.3258  0.1458  0.0733
28480W        W44664  12.632  14.773   3.247 -0.0472 -0.0258 -0.0070
28481W        W44665  16.207  15.383   4.793  0.1851 -0.2269  0.1370
28482W        W44666  13.828  14.551  13.111 -0.0049 -0.1205 -0.0264
28483W        W44667  13.039   1.643   1.844 -0.2075 -0.2505  0.0010
28484W        W44668   5.895  18.054   3.645  0.0221  0.2474 -0.1306
28485W        W44669   4.890  10.199  16.503  0.1857 -0.0427  0.2320
28486W        W44670   1.795  15.701  12.950  0.1974  0.0903 -0.2886
28487W        W44671  11.856  16.630   3.377 -0.2287 -0.0522  0.2484
28488W        W44672   7.838   3.143   0.796  0.2393  0.1756 -0.1002
28489W        W44673  13.823  14.209   5.636 -0.0366 -0.3054 -0.1628
28490W        W44674  15.814   2.791   2.052 -0.0502 -0.3366 -0.1867
28491W        W44675   3.566  16.481  12.960  0.1993  0.3148 -0.1616
28492W        W44676   2.678  13.874  15.849 -0.1040 -0.1130  0.0323
28493W        W44677  11.859  14.806   0.848  0.0412 -0.0293 -0.0893
28494W        W44678   3.989   7.420  13.504 -0.2540  0.0756  0.2029
28495W        W44679  16.801   6.066  11.079  0.1272  0.0694  0.0821
28496W        W44680  11.282  12.898   3.958 -0.2275 -0.1746  0.2810
28497W        W44681  12.272   1.652  14.739  0.1349 -0.0707 -0.1406
28498W        W44682   3.437   1.715  14.971  0.0696 -0.0456  0.5188
28499W        W44683  10.871  12.569  16.497  0.1243  0.0560  0.2234
28500W        W44684  14.541  11.505  13.623 -0.1238 -0.3080 -0.1143
28501W        W44685  14.267   2.789   1.760  0.1287  0.1442 -0.0497
28502W        W44686   7.038   9.792   0.995 -0.0637  0.1517 -0.3521
28503W        W44687   4.889  17.229   3.127  0.0602  0.2656 -0.3116
28504W        W44688  12.274   5.118  11.525  0.3214  0.0968 -0.2435
28505W        W44689  15.675   2.132  16.517 -0.1473  0.2363 -0.4597
28506W        W44690   3.836  12.536   1.142  0.0680 -0.0709  0.1883
28507W        W44691  13.986   3.156   4.753 -0.0020  0.0826 -0.0692
28508W        W44692   9.100  12.265   3.728 -0.1870  0.0395  0.4642
28509W        W44693   1.434   9.322  14.847 -0.4431 -0.1894 -0.2373
28510W        W44694   1.075  17.904  15.939  0.0562 -0.0803  0.1212
28511W        W44695   9.847  11.151   4.792 -0.0384  0.1567  0.2256
28512W        W44696  12.310   0.888   5.451 -0.2644  0.2360  0.0556
28513W        W44697   4.403   2.978  11.683 -0.0268 -0.1952  0.0690
28514W        W44698  11.684  10.325  16.275 -0.0223 -0.2524 -0.0537
28515W        W44699   4.625   8.283  14.084  0.1474 -0.2291  0.0086
28516W        W44700  15.220  10.625   5.049 -0.3082 -0.0650 -0.1891
28517W        W44701  14.250   5.914  10.914 -0.0078  0.1311 -0.2368
28518W        W44702   9.982   1.902  12.906  0.0529  0.1279  0.0395
28519W        W44703   4.735   7.013  13.107  0.0368  0.2074 -0.1384
28520W        W44704  10.069   4.540   2.631  0.1955 -0.1021 -0.0267
28521W        W44705   7.288   6.305   0.710 -0.2864  0.2110  0.2364
28522W        W44706   7.815   3.796   5.402 -0.1446 -0.1143  0.1084
28523W        W44707   2.575  13.058   0.857  0.3540 -0.0216  0.0444
28524W        W44708   7.038   8.441   3.657  0.2867  0.0863 -0.0279
28525W        W44709   7.555  16.273   3.943  0.1020  0.3312 -0.2604
28526W        W44710  15.348   3.246   0.935 -0.1598  0.2035 -0.0375
28527W        W44711   1.731  13.984   3.438 -0.4049 -0.2660 -0.0823
28528W        W44712  15.331  14.809  12.487  0.2002  0.0752  0.0532
28529W        W44713   0.003  16.221  14.625 -0.0201 -0.1197 -0.0757
28530W        W44714  17.006  12.958   4.057  0.0296  0.1244  0.0100
28531W        W44715  16.260   4.408   4.728  0.0269  0.0009  0.0705
28532W        W44716   7.514   1.800   3.679  0.0314  0.0977  0.0044
28533W        W44717  15.986   2.309  14.683 -0.1766  0.2702  0.1281
28534W        W44718   5.875   3.136  12.147  0.4271  0.0572  0.0176
28535W        W44719   7.530   4.478   6.158  0.0928  0.0982  0.1365
28536W        W44720  11.772   2.012   3.238  0.1869 -0.0864  0.0617
28537W        W44721   5.253  10.966   0.274 -0.0951  0.2215  0.1533
28538W        W44722  13.615  15.959  15.242  0.1516 -0.0906  0.0403
28539W        W44723  17.039  17.125  16.495 -0.1822 -0.1132  0.0776
28540W        W44724   4.819   5.978  12.163 -0.1582  0.0876  0.3639
28541W        W44725  13.625   9.241   1.984  0.2685 -0.1650 -0.2061
28542W        W44726   8.052   1.413  14.812 -0.1954  0.0609  0.1664
28543W        W44727  12.185   5.257   1.530 -0.0633  0.1319  0.0560
28544W        W44728   6.515   3.452   5.249  0.0113 -0.0042 -0.0675
28545W        W44729   8.676  16.675  15.010  0.1390  0.0215 -0.3248
28546W        W44730  14.669  17.177  12.304 -0.3797  0.4617  0.0533
28547W        W44731   8.686   6.185   0.344 -0.0327 -0.1277 -0.4051
28548W        W44732   1.044   4.290  16.615  0.0155 -0.1305  0.1400
28549W        W44733   3.379   0.239   0.243  0.1763 -0.1515  0.1825
28550W        W44734   9.218   1.145   0.400  0.0516  0.0568 -0.2308
28551W        W44735  10.696   4.661  15.378  0.1017 -0.2024 -0.0790
28552W        W44736  11.300  10.538  16.044 -0.0112  0.1343  0.0204
28553W        W44737  16.027   0.304  14.580  0.0942  0.0864 -0.1259
28554W        W44738   8.778  11.253   4.719  0.0760 -0.0689 -0.0012
28555W        W44739  17.310  12.535   2.817  0.1333  0.1312 -0.1053
28556W        W44740  14.774   4.600  14.825 -0.0468  0.1376 -0.0459
28557W        W44741  13.278  10.432   4.366 -0.2596 -0.1250 -0.0405
28558W        W44742  16.904   3.322   0.845 -0.0363 -0.0719  0.4428
28559W        W44743  10.676  14.939   5.515 -0.1041 -0.1356  0.0455
28560W        W44744   5.977  11.440   0.002  0.2036  0.0861 -0.0295
28561W        W44745  10.961  12.239  15.465 -0.3740  0.1350  0.2403
28562W        W44746   4.096  17.203   3.678  0.0681  0.0515  0.0360
28563W        W44747   2.391   0.403  11.286 -0.3425 -0.1357  0.1648
28564W        W44748   0.521  12.422   3.294 -0.0404  0.2218 -0.0077
28565W        W44749   3.395   2.614   4.785 -0.1324  0.1941  0.2283
28566W        W44750   5.213   9.320  16.048  0.2248 -0.0195  0.0408
28567W        W44751   7.228   4.808  16.457 -0.1257 -0.2449  0.1229
28568W        W44752   5.448  13.098  16.625  0.2101  0.1582 -0.0461
28569W        W44753   0.014  12.245  16.673  0.0798 -0.0368  0.1139
28570W        W44754  12.102  13.991   2.001  0.0777 -0.1565  0.0362
28571W        W44755   8.256  16.467  13.626 -0.1602 -0.1801  0.1932
28572W        W44756   1.743   5.371   2.464 -0.0306  0.0384 -0.0375
28573W        W44757  12.851   1.582   3.280  0.0499 -0.3960  0.1796
28574W        W44758   0.269  14.579   0.222 -0.3627  0.1747 -0.2099
28575W        W44759   4.358  17.009  14.729  0.0486  0.0455  0.1255
28576W        W44760   6.009  16.873   2.099 -0.1245 -0.0727  0.0414
28577W        W44761   7.096  14.463   4.441 -0.1877 -0.0088 -0.1036
28578W        W44762  10.016  18.121   0.223 -0.0380 -0.0343 -0.2460
28579W        W44763   1.501  16.869   4.532  0.1667 -0.2621 -0.0721
28580W        W44764  10.073  12.309   1.904 -0.3291  0.1188  0.2160
28581W        W44765   7.304   8.009  15.236 -0.0570  0.0271  0.4977
28582W        W44766   1.550  11.326   3.348  0.1894 -0.0968 -0.1775
28583W        W44767   6.290  15.149  11.930 -0.0932  0.3019  0.1209
28584W        W44768   1.473  11.684  14.042 -0.0120  0.0955 -0.1790
28585W        W44769  10.059  11.500  13.986 -0.1264  0.0744 -0.0507
28586W        W44770   5.802  16.307   3.599  0.1546 -0.1180  0.2585
28587W        W44771   5.821  13.579   0.815  0.3157 -0.1340  0.0188
28588W        W44772   9.345  15.882   3.854  0.0343  0.2252 -0.1574
28589W        W44773   0.513  11.551   5.856 -0.2068  0.0297 -0.1844
28590W        W44774  10.260  12.325  13.856  0.2553 -0.0807 -0.2453
28591W        W44775  11.135  13.025   0.637 -0.1147 -0.2586  0.0061
28592W        W44776   4.764   9.372  16.284 -0.0785 -0.2072  0.1618
28593W        W44777  14.517   8.519   5.296  0.0994 -0.1343 -0.1487
28594W        W44778  12.132   6.613  10.535  0.2281 -0.2340 -0.1367
28595W        W44779   8.941   6.552   4.614  0.2949 -0.0880 -0.0104
28596W        W44780   2.533  15.567   2.881 -0.1362  0.2376  0.0689
28597W        W44781   6.618   8.279  11.874 -0.0530 -0.0728 -0.2916
28598W        W44782   3.340  14.426   4.150 -0.2787  0.1216  0.4159
28599W        W44783  13.987   4.313  14.342 -0.0798 -0.1197  0.0739
28600W        W44784   5.070   3.458   5.400 -0.3552 -0.0320 -0.0072
28601W        W44785  15.909   7.565   3.935  0.0605  0.0403 -0.0355
28602W        W44786   0.997  14.283  15.894  0.1434 -0.0217  0.1033
28603W        W44787   4.046   1.490   4.812  0.1361  0.1946  0.0373
28604W        W44788   5.470  14.155   5.114 -0.3047 -0.2134  0.0810
28605W        W44789  12.419  16.152  16.005 -0.2550 -0.1488 -0.0571
28606W        W44790   4.924  15.689   0.077 -0.0369 -0.0831 -0.0538
28607W        W44791  15.189   4.108  10.497  0.1548  0.0477 -0.1405
28608W        W44792  14.348  15.326   0.927  0.2041 -0.0845 -0.0908
28609W        W44793   1.576  10.759   2.616  0.2276 -0.0151  0.0569
28610W        W44794   1.295  17.756   4.210  0.1235 -0.0362  0.1477
28611W        W44795  12.598  16.410   1.438  0.0477 -0.2212  0.1608
28612W        W44796  10.647   7.750  16.033  0.5409  0.2458  0.1464
28613W        W44797   4.341   1.673  12.215  0.0065  0.2351  0.2578
28614W        W44798   7.567  13.828   1.707 -0.2614 -0.0199 -0.2638
28615W        W44799  15.114  11.668   3.775 -0.1049  0.0180  0.2015
28616W        W44800   3.878  15.010   3.161  0.2799  0.0831 -0.3233
28617W        W44801   5.381  12.141  11.344 -0.0695 -0.1017  0.0875
28618W        W44802  13.111   8.168   0.950 -0.0313  0.1870 -0.3007
28619W        W44803  10.576   2.078  12.771  0.0109  0.0788 -0.0673
28620W        W44804  11.854  10.099  11.624  0.2873 -0.1412  0.2373
28621W        W44805   6.608   1.334   1.426 -0.1426  0.1632  0.1636
28622W        W44806   5.437   3.229  13.405  0.0302  0.3740 -0.2858
28623W        W44807  15.486  15.615  14.180 -0.1241 -0.1412  0.1480
28624W        W44808   9.115   6.266  13.170 -0.1774 -0.0116  0.0798
28625W        W44809  13.478   8.201   2.883  0.0789 -0.1016 -0.0106
28626W        W44810   2.053   1.384   1.645 -0.0181  0.2112  0.0669
28627W        W44811  13.187  15.236   0.292 -0.1373  0.3104 -0.3181
28628W        W44812  12.760   0.524   1.424 -0.0456 -0.1782  0.1266
28629W        W44813   3.841   9.907   5.989 -0.3181  0.2134  0.4376
28630W        W44814   4.941  10.170   4.459  0.1239 -0.0581  0.4631
28631W        W44815   7.078  12.075   0.150  0.1658 -0.1900 -0.0422
28632W        W44816   8.906   1.584   2.386 -0.0390  0.0321  0.2467
28633W        W44817   5.717  14.574   4.170  0.1394 -0.1490 -0.0591
28634W        W44818  12.496  16.914  12.417 -0.0871 -0.1781 -0.3560
28635W        W44819  11.386   6.996  14.753  0.0662 -0.1570  0.3025
28636W        W44820  16.470   3.817  12.866 -0.0844  0.3179  0.2718
28637W        W44821   9.134   5.172  13.991  0.2642  0.0907  0.1713
28638W        W44822  15.876  10.698  12.917  0.1391  0.4662  0.1305
28639W        W44823   1.439   5.416   0.907  0.3014 -0.2918 -0.0822
28640W        W44824  10.609   5.621   5.458  0.0412  0.1189  0.3257
28641W        W44825  11.147   2.598  14.802 -0.4523 -0.0181  0.1568
28642W        W44826   7.171  12.409   3.650 -0.2195  0.3068 -0.1065
28643W        W44827  17.969   1.815   4.951  0.1124 -0.1206  0.0133
28644W        W44828   6.424   0.373   5.454  0.1606 -0.2270 -0.2402
28645W        W44829  11.315  12.786  16.413  0.2882  0.1177 -0.0897
28646W        W44830   1.550  14.230  15.103  0.0376  0.2864  0.0177
28647W        W44831  16.857  10.286   0.868 -0.0351 -0.0119  0.0152
28648W        W44832   9.440   6.538   0.258  0.2208  0.3060  0.0139
28649W        W44833   3.918  16.481   5.324 -0.0306  0.2327  0.1214
28650W        W44834  14.726  10.201  13.964  0.1784 -0.0405 -0.0754
28651W        W44835  15.052  16.195  16.346 -0.0502 -0.1903 -0.1198
28652W        W44836  11.060   1.295  14.353 -0.3002  0.3805 -0.1513
28653W        W44837  11.508  11.255   4.640 -0.2161  0.1074 -0.0975
28654W        W44838   9.066   8.393   2.329 -0.2368 -0.3344  0.1444
28655W        W44839  17.352   9.646  15.213 -0.1997 -0.2197 -0.0397
28656W        W44840  17.597   9.930  16.442 -0.2622 -0.3093  0.1419
28657W        W44841  12.618  13.463   3.126  0.0208  0.0517  0.2235
28658W        W44842   6.289  11.734  13.171 -0.3542  0.1801  0.0122
28659W        W44843  11.076  14.402   3.092 -0.3576  0.0406  0.1304
28660W        W44844  16.184  17.987   5.303  0.0074  0.1617 -0.2544
28661W        W44845  12.929   6.343   1.901 -0.1813 -0.2925 -0.0844
28662W        W44846   1.218   2.690  14.391  0.1600 -0.0791  0.0158
28663W        W44847  10.735  17.172  11.889  0.0447  0.0945 -0.0941
28664W        W44848   6.359   3.259   2.292 -0.0890  0.1269 -0.1180
28665W        W44849   7.419   3.465  15.620 -0.0319 -0.0950 -0.0299
28666W        W44850  16.105  15.976  13.567  0.1981  0.1636 -0.1792
28667W        W44851   3.286  15.229  12.359 -0.0932  0.0290 -0.0989
28668W        W44852   2.926   5.356  11.890  0.1349  0.1518 -0.0322
28669W        W44853  13.124   4.914  12.390  0.2986 -0.0926 -0.1911
28670W        W44854  10.290   3.504  14.923  0.1463 -0.1466 -0.0404
28671W        W44855  17.097   7.253  14.842  0.1196  0.1799 -0.2203
28672W        W44856  12.029  11.284   0.971  0.0208 -0.4189  0.2651
28673W        W44857  17.368  10.261   1.069  0.1211  0.3417  0.0077
28674W        W44858  17.942  13.108   0.944  0.1310 -0.0335  0.2500
28675W        W44859  13.550   4.454  13.766  0.0899  0.0055 -0.2429
28676W        W44860  16.315   2.582   0.495 -0.1973 -0.1031 -0.1813
28677W        W44861   0.746  16.532   1.476  0.1636 -0.2667  0.1037
28678W        W44862  17.529  11.024  13.960 -0.2021  0.5572  0.3549
28679W        W44863  16.759   2.932  14.540  0.1223  0.2061  0.2004
28680W        W44864   9.402   4.186   0.301 -0.2886  0.3644  0.1823
28681W        W44865  15.488   3.033  16.637 -0.1043 -0.0439 -0.2197
28682W        W44866  14.573  11.197  11.814  0.0421 -0.0625  0.1486
28683W        W44867   9.532   1.398  14.450  0.1888  0.0921  0.0428
28684W        W44868   5.696   3.081  14.647 -0.0980 -0.0057  0.1353
28685W        W44869   3.904   8.294   1.288  0.0315 -0.1635 -0.0682
28686W        W44870   3.793   8.525  12.083 -0.2443  0.1072  0.0500
28687W        W44871   1.235   8.216   5.876 -0.1072  0.1105 -0.2229
28688W        W44872  10.753   2.017   2.134 -0.3060 -0.2065 -0.1005
28689W        W44873   9.408   3.673   1.694  0.0148 -0.2722  0.0168
28690W        W44874  17.937  14.300   5.815 -0.2100  0.1132  0.0229
28691W        W44875  11.556  11.484   2.970 -0.0119  0.2075 -0.0177
28692W        W44876   0.351   2.685   4.577  0.1908 -0.0709  0.0802
28693W        W44877   4.010  16.724   1.842 -0.0401  0.0448 -0.2521
28694W        W44878   4.432   1.505   5.204  0.0286  0.1922 -0.1448
28695W        W44879   0.473   5.886   2.840 -0.3433  0.1312 -0.1632
28696W        W44880   8.510   7.557   5.529 -0.0620  0.1925  0.0740
28697W        W44881  17.919  14.379  14.381 -0.2037  0.1877 -0.0521
28698W        W44882   7.071   4.691  14.386  0.1679 -0.0097 -0.2033
28699W        W44883  11.480  15.731  13.673  0.0920  0.0499  0.2344
28700W        W44884  15.819   7.543   1.438 -0.2631  0.0307 -0.1480
28701W        W44885  13.650   5.560  16.556 -0.0416  0.0431  0.0858
28702W        W44886   9.966   2.092   0.862 -0.1784 -0.0289  0.1264
28703W        W44887   8.862   2.982  12.372 -0.1421 -0.0009 -0.0190
28704W        W44888  15.363   9.009   2.389 -0.0201  0.3447 -0.1653
28705W        W44889  16.368   3.472   1.151 -0.0092 -0.1308  0.3269
28706W        W44890   9.993   4.058   3.429  0.2007 -0.0732  0.0494
28707W        W44891   0.426   7.541  14.324 -0.2046 -0.0886 -0.0115
28708W        W44892  11.616   8.972   2.942  0.1020  0.0771  0.1658
28709W        W44893   0.502  13.080   1.092 -0.1867  0.1186  0.1114
28710W        W44894   4.969   7.240   1.046  0.0612  0.2410  0.0267
28711W        W44895  11.236  15.774   4.335  0.2254 -0.0791  0.0129
28712W        W44896   6.288   8.234   2.037  0.1768  0.0561 -0.1257
28713W        W44897   4.931   5.966  15.020 -0.1500 -0.0323 -0.0412
28714W        W44898  16.965  15.819   3.956 -0.0516 -0.1264 -0.1814
28715W        W44899   5.611   2.085  14.654 -0.0905  0.0993 -0.0796
28716W        W44900   4.713   7.490   0.696  0.0217 -0.3127  0.0139
28717W        W44901   2.854  13.398  12.420 -0.4108  0.1848 -0.0160
28718W        W44902   5.252   9.853  15.627 -0.2630  0.1989 -0.0336
28719W        W44903  10.416   0.915   2.585  0.1167 -0.3325  0.0437
28720W        W44904   4.600   3.821  16.114  0.2594  0.1174  0.0083
28721W        W44905   7.602   6.354   2.315  0.1166 -0.0168 -0.1528
28722W        W44906   6.289   0.857  16.178 -0.1096 -0.1265  0.1136
28723W        W44907  16.078   6.066   5.400  0.1218 -0.4321  0.0843
28724W        W44908   4.002  16.505   0.910  0.0619 -0.0376 -0.2289
28725W        W44909   9.821  17.577  13.450  0.2305  0.3232 -0.0894
28726W        W44910   4.086  10.445   5.091 -0.2555  0.1437 -0.1443
28727W        W44911   1.255  11.018   2.293 -0.0957 -0.2101 -0.0458
28728W        W44912  16.531  15.662  13.913  0.2665 -0.0266 -0.2312
28729W        W44913  13.589  15.295  16.623 -0.2164  0.2649 -0.1155
28730W        W44914   5.093   2.241   6.195  0.1063 -0.1468 -0.2582
28731W        W44915  12.380   8.562   3.608 -0.0234 -0.2661  0.0596
28732W        W44916   8.681  13.604  14.784 -0.2422 -0.0991  0.2401
28733W        W44917   0.641  14.413   2.508 -0.0868  0.2584 -0.2505
28734W        W44918  10.524   6.854   6.417 -0.2259 -0.1141  0.0182
28735W        W44919  17.932   3.226  10.647 -0.1683 -0.4392  0.3304
28736W        W44920   2.087  17.132   0.381  0.3473 -0.0153 -0.0816
28737W        W44921  10.362   4.830  12.324  0.1633 -0.3794 -0.0520
28738W        W44922  11.918   8.023   4.532 -0.0167  0.1470  0.0690
28739W        W44923   3.604  13.170   0.358 -0.0787 -0.2217 -0.0719
28740W        W44924   2.685   6.620   0.182  0.0812  0.6180 -0.1099
28741W        W44925   2.817   4.497  12.454 -0.0352 -0.0870  0.0541
28742W        W44926   5.524   7.767   0.384 -0.0813  0.1810 -0.0054
28743W        W44927  15.102   4.862   4.013  0.0819 -0.4835  0.0841
28744W        W44928  12.349  16.975   5.646 -0.2562 -0.4003 -0.2742
28745W        W44929  15.233  10.496   1.478  0.0979 -0.2626  0.0497
28746W        W44930  16.424   6.438   5.315  0.0793  0.4696  0.3835
28747W        W44931  18.107   7.426  15.021  0.0501 -0.0321  0.1589
28748W        W44932   9.043  14.395   3.588 -0.3452  0.0454  0.0660
28749W        W44933  14.007  16.274  16.087  0.1722  0.2288 -0.2195
28750W        W44934   8.103  13.865  12.046 -0.0549  0.4862  0.0000
28751W        W44935  13.988   4.898   2.447  0.0423 -0.0021 -0.0802
28752W        W44936   3.790   7.554   2.061 -0.0794  0.0692 -0.0519
28753W        W44937  15.625   8.710   3.310 -0.3085 -0.0036  0.1137
28754W        W44938   7.598   8.916   0.633 -0.2765  0.1938  0.1600
28755W        W44939   3.778   0.670   5.821 -0.0400  0.0927  0.2992
28756W        W44940   8.081   3.209   0.259  0.0341  0.3662 -0.0916
28757W        W44941   2.114  13.431  12.043 -0.1954  0.3722 -0.1028
28758W        W44942   4.950   7.457  13.223 -0.1490  0.0071 -0.1349
28759W        W44943  13.183   5.034   0.827 -0.0953  0.2465  0.1377
28760W        W44944  10.442  16.460  13.149  0.0141 -0.0231  0.0636
28761W        W44945  16.486  12.115  14.608  0.1070  0.0138  0.6539
28762W        W44946  16.654   5.687   4.888  0.0457  0.1958  0.0314
28763W        W44947  13.849  14.189  15.303  0.2601 -0.2842 -0.1947
28764W        W44948   6.967   0.263  14.241 -0.0103  0.2735 -0.0636
28765W        W44949   6.663  16.577   6.358  0.1003 -0.1758 -0.3201
28766W        W44950   5.372  17.778  13.200 -0.1179 -0.1223 -0.2458
28767W        W44951   2.062  10.280  13.618  0.0031  0.1336 -0.3892
28768W        W44952  12.550  15.116   0.467  0.0868  0.1237 -0.4043
28769W        W44953  15.869   5.690   1.091 -0.0021  0.0787 -0.1295
28770W        W44954  10.562   0.921   1.692 -0.4222 -0.1168 -0.2250
28771W        W44955  13.747  15.469  15.580 -0.2469 -0.0336  0.0201
28772W        W44956   5.500   0.094  13.130 -0.2600  0.0263 -0.1902
28773W        W44957   2.917   8.195   3.246 -0.1647 -0.1608  0.3992
28774W        W44958   1.477  16.247   3.984 -0.3612 -0.1699 -0.2211
28775W        W44959  17.040   7.146   2.867  0.0882 -0.2525  0.1527
28776W        W44960  12.133  13.656   3.409 -0.0460  0.1834  0.0820
28777W        W44961  15.281   3.416  12.550  0.3282 -0.3604  0.0875
28778W        W44962  14.773  13.727  12.258  0.1637  0.1035 -0.1719
28779W        W44963   8.837   7.017   2.542 -0.0751  0.0486  0.1917
28780W        W44964  13.057  12.796   1.678 -0.0717  0.0179 -0.1954
28781W        W44965   9.997   9.301   2.147  0.2101 -0.0356  0.2648
28782W        W44966   0.220   0.517   3.042  0.3394 -0.1964 -0.2713
28783W        W44967   2.590   0.681   3.237  0.0073  0.1423  0.2522
28784W        W44968  12.862  12.846   1.127 -0.1842 -0.1784 -0.1880
28785W        W44969   9.527  15.535  11.451  0.0818 -0.2687 -0.4173
28786W        W44970  10.013   0.927   1.595 -0.3215  0.3495 -0.1389
28787W        W44971  15.061  12.284   4.019 -0.1217  0.2715 -0.0225
28788W        W44972  13.481  12.995   4.536 -0.2780  0.2263 -0.1323
28789W        W44973   8.523  15.405  14.650 -0.2666 -0.1007  0.2857
28790W        W44974   7.707  17.618  13.960 -0.2442  0.0714  0.1018
28791W        W44975   2.913   5.097   4.219  0.1299  0.0171  0.0238
28792W        W44976  10.009   7.957   4.290 -0.0016  0.2044  0.1930
28793W        W44977  17.339  13.689  15.989 -0.2658  0.1972 -0.1329
28794W        W44978   7.351   4.139   3.525  0.1307  0.0082  0.0312
28795W        W44979  17.560   1.207   4.636  0.0451  0.1139 -0.3083
28796W        W44980   5.111   0.117   4.248 -0.0765  0.2172  0.1763
28797W        W44981   5.272  13.054   4.316 -0.2085 -0.2042 -0.4416
28798W        W44982   1.726  15.217  12.733  0.0884 -0.4037  0.2860
28799W        W44983   1.975   9.997   1.368 -0.1525  0.1063 -0.2880
28800W        W44984   5.003   7.956  11.968 -0.2293  0.0340 -0.0510
28801W        W44985   4.045   0.154  15.533  0.1222  0.0235  0.5183
28802W        W44986   5.188   7.901  14.590  0.1803  0.1555  0.0067
28803W        W44987  18.156  11.889  12.755 -0.2661 -0.1789 -0.0184
28804W        W44988   4.457   5.949  15.186  0.1268  0.0877 -0.0382
28805W        W44989   3.408  10.164  16.675 -0.1531  0.1620 -0.1642
28806W        W44990   8.993   5.755  14.057 -0.1095 -0.1579 -0.1703
28807W        W44991   3.596  13.659   2.696  0.0039  0.0887 -0.1616
28808W        W44992  15.901  15.812   4.808 -0.0579 -0.1230  0.3308
28809W        W44993   4.118  18.101   2.760  0.1115  0.0739  0.0674
28810W        W44994   7.052   3.685   4.560 -0.0016 -0.1650 -0.2453
28811W        W44995  13.488   1.205  14.281 -0.3123 -0.2580 -0.1598
28812W        W44996  18.105  17.464  13.208 -0.0367  0.1431  0.1047
28813W        W44997  17.468   0.019  12.802  0.0002  0.2193  0.1212
28814W        W44998  17.635   3.271  14.371 -0.1277  0.0252 -0.2632
28815W        W44999   1.294  16.164  10.969 -0.1454  0.0535 -0.0307
28816W        W45000   0.830   4.203   4.010 -0.1544  0.1440  0.0339
28817W        W45001   8.489  17.449   4.914  0.1174 -0.2124  0.0626
28818W        W45002   0.564  16.970   2.604  0.0528  0.2516 -0.0118
28819W        W45003   1.532   6.564  11.096 -0.1339  0.0626 -0.1149
28820W        W45004  10.711  17.710  15.512 -0.1243  0.2350  0.3365
28821W        W45005  10.094  13.644   4.164  0.0718 -0.0825  0.2736
28822W        W45006   7.785  15.633  13.091 -0.2314 -0.2935 -0.2208
28823W        W45007  15.894  15.312  12.853  0.1961 -0.0561  0.1704
28824W        W45008   1.197   3.379   1.532  0.3474  0.2898 -0.3354
28825W        W45009  17.515  13.431   0.488 -0.2859  0.2691 -0.2888
28826W        W45010   7.956   7.324   4.236  0.2229  0.3020 -0.1942
28827W        W45011   6.440   7.585   4.921  0.0791  0.0978 -0.0419
28828W        W45012  12.429   5.512  16.667 -0.3746  0.1700  0.0191
28829W        W45013   8.902   3.102   4.922  0.1059 -0.1372  0.0491
28830W        W45014   1.028  15.286   0.523  0.3482 -0.2303  0.2964
28831W        W45015   9.287  11.183  16.330  0.1361  0.1636  0.0499
28832W        W45016  11.260  13.015  11.601  0.0146 -0.2082  0.0135
28833W        W45017  12.332   1.872  16.304  0.0568 -0.1638  0.1957
28834W        W45018   7.817  12.820   2.959  0.6877  0.0679  0.1905
28835W        W45019  15.677   9.137  16.390 -0.1249  0.0097  0.2048
28836W        W45020  12.732  17.919  11.780  0.0138  0.0603  0.0981
28837W        W45021   3.772  10.181  15.919  0.3475  0.1695  0.0273
28838W        W45022   7.177  17.364   2.370  0.0574  0.0467 -0.0051
28839W        W45023   9.501   0.477  12.821  0.0790 -0.2806  0.0886
28840W        W45024  10.633   1.781  14.626  0.1233 -0.0368 -0.0687
28841W        W45025   0.805   8.253  13.887  0.1314  0.1622 -0.3280
28842W        W45026  11.578  15.362   6.080 -0.2174  0.1280  0.2381
28843W        W45027   7.524   1.473   0.715  0.2011 -0.1371 -0.2655
28844W        W45028   1.924   3.463  12.480 -0.5396  0.3260  0.1251
28845W        W45029  11.966   2.300  16.484 -0.0369  0.2572 -0.3015
28846W        W45030  14.070   0.856  16.049  0.1911 -0.1418  0.0086
28847W        W45031   4.879   2.464   4.331 -0.3627 -0.0548 -0.3697
28848W        W45032   4.083   3.713  14.154 -0.1920 -0.0951 -0.0250
28849W        W45033  13.696   9.540  15.358 -0.1058 -0.0624 -0.0798
28850W        W45034   9.631  10.273   2.640 -0.1235 -0.0476  0.1856
28851W        W45035   3.563   6.074  12.390  0.2371  0.0722  0.2889
28852W        W45036  15.304  12.236   5.609 -0.0838  0.2458  0.2280
28853W        W45037   6.745   0.899   6.077  0.2147 -0.2508  0.2285
28854W        W45038   7.100   2.247  12.283  0.2646  0.1288 -0.3478
28855W        W45039   2.078  13.931   4.752  0.0353 -0.0440  0.1835
28856W        W45040  14.840   7.975   4.541  0.0882 -0.3319 -0.0242
28857W        W45041  17.234   8.792   3.073  0.2945  0.2001 -0.0149
28858W        W45042  17.290  13.906   1.287 -0.0118 -0.0650  0.0719
28859W        W45043  10.026  10.482  13.583  0.0269 -0.2859  0.1471
28860W        W45044   7.266   1.965  11.902  0.1728 -0.0032 -0.1217
28861W        W45045   2.834  10.370  12.196  0.4762 -0.2534  0.2458
28862W        W45046  13.941  12.102   4.327 -0.1471 -0.1820 -0.0850
28863W        W45047  11.555  13.722  13.747 -0.0245 -0.1648 -0.0213
28864W        W45048   1.551  10.280   1.227 -0.0832  0.2105  0.2294
28865W        W45049   7.637  17.336  12.543  0.1812  0.0371  0.1924
28866W        W45050   6.118  12.635   5.915  0.1581 -0.0686  0.0977
28867W        W45051  17.389  11.618   5.586  0.0975  0.2389 -0.2889
28868W        W45052  15.033   9.770  15.416 -0.1352  0.0247  0.0655
28869W        W45053   3.210   3.971   2.178  0.2699  0.1220 -0.0633
28870W        W45054   7.804   7.233  15.787  0.2226  0.4280 -0.0416
28871W        W45055   3.745  12.214   0.766 -0.1278  0.1413  0.2664
28872W        W45056   6.144  15.741  13.540 -0.1990 -0.0152 -0.1356
28873W        W45057   1.556   4.436  13.651  0.2422 -0.1637 -0.0390
28874W        W45058   5.475  10.192   2.163 -0.0536  0.0557  0.2303
28875W        W45059   2.209   1.138   3.205 -0.2215 -0.0756 -0.1107
28876W        W45060   6.140   6.824  16.306  0.0473  0.0145  0.1981
28877W        W45061   5.023  10.764  14.717  0.0238 -0.0207  0.0580
28878W        W45062  18.020  16.623  14.350  0.3074  0.5452  0.3320
28879W        W45063  18.009  13.307  14.574 -0.0601 -0.3621 -0.2113
28880W        W45064   9.448  15.015  14.838 -0.0423 -0.1448  0.1586
28881W        W45065   7.089   5.679  12.538 -0.4701  0.3678 -0.1418
28882W        W45066  11.700  12.590   1.673  0.1379 -0.0002 -0.3555
28883W        W45067  17.544  11.519   3.098 -0.2566 -0.1061  0.2634
28884W        W45068  10.748   8.233  14.675 -0.2891 -0.0902 -0.2719
28885W        W45069  10.231  15.996   5.158 -0.0982  0.1133 -0.2982
28886W        W45070   6.943  13.933  16.192  0.2011 -0.0994  0.1114
28887W        W45071  14.497  13.346   4.541 -0.3536 -0.0398 -0.0405
28888W        W45072   4.052   9.410   6.144 -0.3308  0.1249 -0.0173
28889W        W45073   1.296  12.248   2.106 -0.2441  0.1865 -0.1063
28890W        W45074   8.902   3.122  15.049  0.2047 -0.2149 -0.1831
28891W        W45075   1.454   6.274  13.400 -0.1430  0.1631  0.1315
28892W        W45076   7.011  16.477  16.282  0.3502  0.0384 -0.0949
28893W        W45077   5.849  14.603   5.792 -0.2508  0.3419 -0.0775
28894W        W45078   6.971   7.532   1.678  0.1328  0.2340 -0.2602
28895W        W45079   8.905  16.314   3.609 -0.3599  0.0957 -0.1396
28896W        W45080   0.774   8.550   3.507 -0.1807  0.1703 -0.0003
28897W        W45081   3.243   6.284  14.922 -0.0955 -0.1288 -0.0940
28898W        W45082   2.813  18.023  13.255  0.1331 -0.3193 -0.2705
28899W        W45083  12.163   4.333  12.611 -0.1238  0.0097 -0.2796
28900W        W45084  14.617   7.989  14.665  0.0305 -0.0151 -0.1583
28901W        W45085   9.379   9.634  12.942  0.0890  0.1007 -0.3508
28902W        W45086   2.194   0.875  13.912 -0.0114 -0.3179 -0.2137
28903W        W45087  12.237   4.738   3.496 -0.4027 -0.0250 -0.0863
28904W        W45088  12.594  13.136   2.164  0.3958 -0.2713 -0.1220
28905W        W45089   5.236  14.223   2.165  0.2547 -0.1125  0.4978
28906W        W45090  14.471   7.827  12.652  0.0720 -0.1445  0.0275
28907W        W45091   8.643   7.797  15.593  0.3019 -0.2644  0.2221
28908W        W45092   8.291  17.495   4.502  0.2514  0.2131  0.3685
28909W        W45093  16.362  13.599   0.494  0.2813  0.1122 -0.0689
28910W        W45094   4.441  12.616  12.369 -0.2466 -0.1051 -0.1085
28911W        W45095  10.579   0.506  16.539 -0.0671  0.0568 -0.3079
28912W        W45096   7.656   5.430   2.648 -0.1184 -0.1549 -0.3696
28913W        W45097   4.129   3.115  14.939  0.3046 -0.2415 -0.0865
28914W        W45098  12.163  10.272  16.630  0.0231 -0.1636  0.1375
28915W        W45099   1.001   5.451   3.260 -0.0910  0.0756  0.1328
28916W        W45100   7.609  12.573  15.964 -0.0325  0.1932 -0.0483
28917W        W45101  12.780  12.578   4.972  0.0468  0.0224 -0.0239
28918W        W45102  11.507   2.278   5.700  0.0719 -0.0139  0.3638
28919W        W45103   9.189   8.918   2.107  0.0308  0.1274 -0.1811
28920W        W45104   3.067  15.621   4.499 -0.3111 -0.2150  0.0773
28921W        W45105  16.733   4.807  12.640  0.1383 -0.1299  0.4703
28922W        W45106  11.089  15.950   1.367  0.2577 -0.0650  0.0196
28923W        W45107  16.513  11.017   5.605  0.0890 -0.2208 -0.3245
28924W        W45108   6.530   5.166   2.068  0.0503  0.0071  0.0399
28925W        W45109   3.579  12.353  14.511 -0.1006 -0.0629  0.4085
28926W        W45110   4.678  13.240  13.351 -0.1522  0.0857  0.1517
28927W        W45111   5.239  12.054   4.455 -0.1492  0.0559 -0.0815
28928W        W45112   8.130   5.440   3.525  0.2093 -0.2639 -0.2229
28929W        W45113   8.825  11.420   1.532  0.2704  0.0729 -0.1741
28930W        W45114  13.606   7.356   3.243  0.0346 -0.0732  0.1898
28931W        W45115   4.848   5.451  11.045 -0.1440  0.0572 -0.0928
28932W        W45116   0.540  10.407  15.808 -0.0908 -0.1177 -0.2320
28933W        W45117  17.568  18.007   3.386  0.3049  0.0385  0.1933
28934W        W45118  10.460   0.030   2.820 -0.1561 -0.1788  0.0588
28935W        W45119  16.724  13.809  14.270 -0.1097  0.0048  0.1128
28936W        W45120  16.487   6.141  10.186 -0.2323 -0.1604 -0.1713
28937W        W45121   8.807   7.913   4.881  0.0380  0.1414  0.1086
28938W        W45122  16.725   6.863   6.161 -0.0173 -0.3329  0.0175
28939W        W45123   8.243   7.164   4.669  0.0904 -0.3026 -0.0308
28940W        W45124  16.670  10.987  15.991 -0.1801 -0.0136  0.0248
28941W        W45125   3.731   2.797   5.053 -0.1805 -0.2938 -0.2342
28942W        W45126   1.799  12.446   0.709 -0.3357  0.0736  0.1763
28943W        W45127   3.861   3.805  15.943 -0.0310 -0.1546  0.0139
28944W        W45128   6.854   1.217  13.384  0.1809  0.1880  0.1822
28945W        W45129   7.995  16.580   0.003  0.0700  0.0899 -0.2357
28946W        W45130  11.553   9.032   4.507  0.3940  0.0673 -0.2819
28947W        W45131  17.166  16.638  13.950  0.2479 -0.1482  0.2487
28948W        W45132  17.150   3.894  16.488 -0.1014  0.0053  0.1362
28949W        W45133   5.362  16.390   4.334 -0.0898 -0.1274 -0.1756
28950W        W45134  14.068   5.661  15.648 -0.1234 -0.0901  0.2132
28951W        W45135   4.654  11.760   1.283  0.1837 -0.0944 -0.1686
28952W        W45136  11.121  12.983  14.902  0.2211  0.0231  0.1981
28953W        W45137  12.067   3.360  14.775 -0.1508  0.1497 -0.2890
28954W        W45138   7.268  10.351  11.846 -0.2661  0.1050 -0.2378
28955W        W45139   7.751   5.160  12.821 -0.3776 -0.0113 -0.1067
28956W        W45140  13.181   6.305   0.427 -0.0770 -0.1266  0.1877
28957W        W45141  17.139   7.492   0.525 -0.0342  0.3228  0.0149
28958W        W45142  15.577  16.020  12.398 -0.0358 -0.2837 -0.0849
28959W        W45143  14.442   2.591  15.998  0.0912  0.0786 -0.0329
28960W        W45144   0.765   1.669  15.317 -0.2397  0.1944  0.0607
28961W        W45145   4.983   0.145  15.216  0.2357  0.0720 -0.0353
28962W        W45146  16.863   8.524  15.670 -0.2037 -0.0499 -0.3374
28963W        W45147   6.760   2.736  13.168  0.1482 -0.0569  0.1103
28964W        W45148  16.810   5.205  15.419 -0.2929  0.1874 -0.1431
28965W        W45149   7.705  18.125  15.607  0.0286  0.0100  0.2592
28966W        W45150  16.209  15.014  13.166 -0.2395  0.0124  0.1719
28967W        W45151   1.737   8.442   2.055 -0.1390 -0.0975  0.1727
28968W        W45152   7.145   1.408  14.412  0.0072 -0.0461 -0.2619
28969W        W45153  15.357  10.281  12.076  0.1356  0.3847 -0.1117
28970W        W45154   2.197  13.988  13.781  0.1169 -0.1320  0.1070
28971W        W45155   8.156   9.501   5.044  0.0059  0.2031  0.0593
28972W        W45156  18.025  17.671   2.208  0.0158 -0.0158 -0.1495
28973W        W45157  15.201   1.712  13.529 -0.3111 -0.0835  0.1077
28974W        W45158  14.463  16.713  13.729  0.0407  0.1594 -0.1634
28975W        W45159   9.042   9.474  11.544 -0.1667 -0.2228  0.1144
28976W        W45160   7.181  13.881   5.625  0.2003  0.3022  0.1633
28977W        W45161   3.892   6.524  13.444 -0.3669  0.4758 -0.3430
28978W        W45162  10.887   7.262   4.609  0.0316  0.0940  0.1466
28979W        W45163  17.494   0.141   1.689 -0.3020  0.3671  0.2514
28980W        W45164  13.118  16.618  14.395  0.4767  0.0143 -0.0015
28981W        W45165   1.100  13.711   4.771 -0.0753 -0.0961  0.1951
28982W        W45166   4.242  14.557  12.228 -0.0939  0.5140 -0.3075
28983W        W45167   8.035   8.931  13.504 -0.3902  0.2751 -0.3575
28984W        W45168   7.147   1.514  14.929  0.1150 -0.1228  0.2721
28985W        W45169   2.372   4.114  10.500 -0.0183 -0.0186  0.0009
28986W        W45170  15.614  12.873   1.324 -0.0946  0.0583 -0.0195
28987W        W45171  13.412   3.803  13.304  0.1686  0.1717 -0.0190
28988W        W45172   1.782  15.694  14.521 -0.0702  0.1778 -0.1599
28989W        W45173   1.216  11.006  15.589  0.2593 -0.1175  0.1406
28990W        W45174   2.105   5.326  14.290 -0.1637 -0.0097 -0.0832
28991W        W45175   3.766  13.415   3.616  0.3031  0.0381  0.1352
28992W        W45176  14.466  15.867   6.489 -0.2652  0.2130 -0.0103
28993W        W45177   9.354  10.858   2.080  0.0427 -0.3388 -0.0128
28994W        W45178   5.685  12.648  14.130  0.1011  0.1188  0.0849
28995W        W45179  12.853   4.212   0.874 -0.0328 -0.0106 -0.2099
28996W        W45180   5.916  15.931   2.495  0.2831  0.1835 -0.1272
28997W        W45181  12.866   9.574  15.863  0.3471  0.0352  0.0762
28998W        W45182   4.511   5.026  15.205 -0.1644 -0.2826  0.1083
28999W        W45183   1.399  15.985  16.490 -0.0541 -0.2664  0.0187
29000W        W45184   1.276   5.324   0.251 -0.1412  0.0819  0.1810
29001W        W45185   0.840   7.322  14.666  0.0739  0.2236 -0.0157
29002W        W45186   8.125   4.635  16.239  0.0985 -0.0712  0.1376
29003W        W45187   7.224  11.879   1.967  0.2691 -0.0079  0.0004
29004W        W45188   2.417  13.786  12.350  0.0151 -0.0500  0.0528
29005W        W45189   2.518   2.363  15.064  0.1068  0.2184 -0.3580
29006W        W45190  16.032  15.816  15.469  0.2916  0.1516  0.0252
29007W        W45191  14.948  15.382   2.861 -0.0748  0.3734 -0.1348
29008W        W45192  17.142   2.424  12.119 -0.2248  0.0010  0.1622
29009W        W45193  11.389   4.418   5.397 -0.0310  0.0531  0.0134
29010W        W45194   5.494  10.141   3.203 -0.2244  0.2865  0.1015
29011W        W45195   7.680  16.705  16.088 -0.0007  0.0484  0.3794
29012W        W45196  10.482  11.361   0.422 -0.4115  0.0520  0.0898
29013W        W45197   4.625   6.392  12.936  0.1107  0.1046  0.0444
29014W        W45198  17.392  11.988  15.634 -0.0321  0.0660 -0.4321
29015W        W45199   7.784  13.615   0.198 -0.2962  0.2250 -0.1500
29016W        W45200  14.868  17.226   1.972  0.3149  0.1171  0.2105
29017W        W45201   1.156  12.231   0.912  0.0857  0.0576 -0.4882
29018W        W45202   3.192   7.770   1.139 -0.1567 -0.0857 -0.1781
29019W        W45203   9.932   4.083   2.888 -0.0584 -0.1046 -0.1332
29020W        W45204   9.967  14.042  12.294  0.0605 -0.0441 -0.2133
29021W        W45205  10.951   4.841  12.448 -0.1108 -0.0254  0.2598
29022W        W45206  10.751   2.209  12.120 -0.2015 -0.1670 -0.1049
29023W        W45207  13.515  17.294   1.641 -0.3354 -0.2713  0.1829
29024W        W45208   7.034   6.778   5.792  0.2785  0.5748  0.4674
29025W        W45209   3.354   0.554  11.126  0.1314  0.0105  0.0504
29026W        W45210  12.027   3.564   0.110 -0.1932 -0.2612 -0.0122
29027W        W45211  10.492  10.886   0.567 -0.1252 -0.3090  0.2403
29028W        W45212   7.001   3.482   5.110  0.0499 -0.3178  0.0010
29029W        W45213   6.628  17.571   4.562  0.4329  0.2434  0.0860
29030W        W45214   8.890  17.491   1.514  0.0103 -0.2133 -0.1062
29031W        W45215   0.681   5.492   3.712  0.0271  0.1411  0.0543
29032W        W45216  17.904   2.279  15.811 -0.0432  0.2017 -0.1933
29033W        W45217   3.630   8.074   4.174 -0.0761 -0.2025  0.0965
29034W        W45218  15.628   0.761  15.847 -0.3541  0.1600  0.1375
29035W        W45219  10.711  12.649   6.656 -0.0864 -0.2099  0.0460
29036W        W45220  14.245  11.327  13.986  0.0300 -0.0928  0.3284
29037W        W45221   3.958   9.310  12.483  0.0059 -0.1185 -0.3394
29038W        W45222  14.974   7.085  15.412  0.0267 -0.1014 -0.1549
29039W        W45223   1.466  11.314   5.956 -0.1754 -0.0368 -0.1436
29040W        W45224  13.108   2.497  11.719 -0.4178 -0.2646 -0.2184
29041W        W45225  17.574   2.737   2.180  0.1468  0.0711 -0.3838
29042W        W45226   1.515  17.751  11.472  0.3913  0.1913  0.2286
29043W        W45227   4.093  10.634   4.624  0.1399  0.3209 -0.0495
29044W        W45228   7.208   8.891   3.434  0.0111  0.0672 -0.0833
29045W        W45229   5.767  15.672  13.908  0.4587  0.2122 -0.0058
29046W        W45230  11.130  14.573   4.684  0.4463 -0.0989 -0.3184
29047W        W45231   3.456   7.287  14.676 -0.0385 -0.3524  0.1435
29048W        W45232  16.629  17.328   0.038  0.3270  0.1811  0.0880
29049W        W45233  14.286   4.886   4.337  0.4725 -0.1158  0.1449
29050W        W45234  16.691  17.822  12.374  0.0070  0.0984  0.1863
29051W        W45235   8.043   7.349  12.166 -0.1942  0.1904 -0.1860
29052W        W45236   6.366  17.357   3.028 -0.2309 -0.1558  0.0737
29053W        W45237  10.032   9.789  11.806  0.0972 -0.1418  0.4325
29054W        W45238  11.384   9.682   1.189  0.1631 -0.2176 -0.0020
29055W        W45239  12.097   4.691  11.678  0.4835 -0.2753 -0.1107
29056W        W45240   7.818   4.723  15.668 -0.2491 -0.0638  0.0866
29057W        W45241   2.418   1.474   5.595 -0.0880 -0.4923 -0.2253
29058W        W45242   0.009  14.353  12.670  0.1316  0.2528  0.3202
29059W        W45243  12.333   1.862   5.655 -0.0857 -0.2740 -0.4060
29060W        W45244   6.404   4.998  13.458  0.1144 -0.0758  0.0559
29061W        W45245   4.697  17.856  13.860  0.0926 -0.2939 -0.5110
29062W        W45246  11.865   9.717   3.237 -0.3022  0.1107 -0.1751
29063W        W45247   1.261  17.167   4.837  0.2582  0.2029 -0.3035
29064W        W45248  11.823   4.468   3.541 -0.1030  0.1235  0.1418
29065W        W45249  15.306   9.688  14.478 -0.0184  0.0334 -0.1773
29066W        W45250   6.196   1.435  16.095 -0.4394  0.0678 -0.2170
29067W        W45251  15.292   6.818   4.397  0.1163 -0.1113  0.0154
29068W        W45252   1.865   8.805   4.089 -0.0744 -0.2601 -0.2247
29069W        W45253   7.159   3.330  13.781 -0.1722 -0.1311 -0.1083
29070W        W45254   4.285   5.853  11.329  0.1499  0.1485 -0.0151
29071W        W45255   0.358   3.353  11.398  0.0222  0.1048  0.1478
29072W        W45256  15.868   4.035  14.676 -0.1027  0.1236  0.1803
29073W        W45257   0.375   9.982  16.551  0.1865 -0.0670  0.3374
29074W        W45258   3.646   2.983  14.776 -0.1378 -0.0197  0.1132
29075W        W45259  15.924   7.812  11.177  0.1200 -0.1057 -0.1937
29076W        W45260  11.470   2.774  15.653 -0.4370 -0.2571 -0.0215
29077W        W45261   9.465  17.563   3.762 -0.0732  0.2501 -0.0354
29078W        W45262  17.364  17.405   1.928 -0.0448 -0.1904  0.0726
29079W        W45263  10.412   4.425   2.160 -0.3120 -0.1989 -0.1153
29080W        W45264  13.946  13.734   1.693 -0.1485 -0.0808  0.4239
29081W        W45265   7.979  10.592   4.105 -0.1393  0.0437 -0.0019
29082W        W45266   4.675   9.992   4.804  0.2545  0.1232  0.1926
29083W        W45267   6.864   2.949   5.954 -0.2202  0.0850 -0.0088
29084W        W45268   4.261   7.826  13.379 -0.1734  0.0791 -0.0474
29085W        W45269   2.480   8.150  12.204 -0.1923  0.1330 -0.1786
29086W        W45270  11.137   8.490   5.532  0.1148 -0.2628  0.1450
29087W        W45271   1.217  14.977  11.934  0.0810  0.3648 -0.0770
29088W        W45272   9.213  11.885   4.316  0.1638  0.0170 -0.1951
29089W        W45273   0.576  10.798   3.350  0.1911 -0.1990  0.1455
29090W        W45274  18.021  11.177   0.666 -0.0597  0.0080  0.2365
29091W        W45275   5.718  12.715  16.395  0.0032 -0.0041 -0.1828
29092W        W45276   4.973  10.184   2.057 -0.2106  0.2817  0.0714
29093W        W45277  17.157   1.961   2.275  0.0381  0.0876 -0.0834
29094W        W45278   6.150  10.860   5.870 -0.0020  0.2819 -0.0805
29095W        W45279  14.078  17.808  11.716 -0.2494  0.0494  0.0248
29096W        W45280   2.950   5.209   2.051  0.2456  0.1142  0.1091
29097W        W45281   2.363  11.147  13.324 -0.0356  0.0090  0.0699
29098W        W45282   9.415  16.797   1.359  0.0163  0.1221  0.0428
29099W        W45283   4.084  16.341  12.786  0.3139 -0.3340 -0.0791
29100W        W45284   3.059   1.453   6.011 -0.1692  0.2216 -0.1206
29101W        W45285   2.737  12.603   3.312  0.2701 -0.0047  0.1056
29102W        W45286   0.960  12.019  14.595 -0.3215  0.0296 -0.2190
29103W        W45287   2.558   6.719   1.431 -0.0766  0.2528 -0.0672
29104W        W45288   0.310   9.368   4.124 -0.0994  0.2977  0.0887
29105W        W45289   1.141   6.368  11.335 -0.0510  0.1057 -0.0206
29106W        W45290  14.272   1.382   4.243 -0.1508 -0.0485 -0.0738
29107W        W45291   8.774   2.926  14.050  0.0018 -0.5171 -0.0786
29108W        W45292   1.200   4.585  13.074 -0.3552  0.1975  0.0329
29109W        W45293  11.567   1.817   2.218  0.0280 -0.2805 -0.2005
29110W        W45294  11.961  10.920   1.656 -0.2315  0.2948 -0.2918
29111W        W45295   1.803   5.525  13.992 -0.1140 -0.0901  0.2977
29112W        W45296   4.810  17.232   0.215 -0.0842 -0.2207 -0.0155
29113W        W45297  13.453   9.886  11.104  0.1117 -0.1592 -0.0562
29114W        W45298  12.702   3.759  11.923 -0.1015 -0.1101  0.0697
29115W        W45299  12.842   3.981   5.570 -0.1572 -0.0428  0.2724
29116W        W45300   6.205   2.321  14.197 -0.3073  0.1297  0.0352
29117W        W45301   6.095   7.525   3.006  0.1154 -0.0326 -0.3062
29118W        W45302   8.369   1.549  15.954  0.1415  0.0692  0.1957
29119W        W45303   1.986  11.273   0.856 -0.4269  0.1846  0.1655
29120W        W45304  12.422  16.829   1.284 -0.0523  0.1818 -0.0488
29121W        W45305  11.190   5.612   2.988 -0.2886  0.2109 -0.1984
29122W        W45306   9.864  14.500   6.298 -0.1309 -0.0297  0.0149
29123W        W45307   6.390  13.180   2.974  0.2388 -0.3016 -0.1977
29124W        W45308   5.586  16.781   5.585 -0.0879 -0.2824 -0.0702
29125W        W45309   2.664   9.507   4.660 -0.0042 -0.4186  0.2720
29126W        W45310  16.391   9.142  12.179  0.0474 -0.1664  0.2852
29127W        W45311  13.316   9.901   4.388 -0.2016  0.1131 -0.1745
29128W        W45312  11.919  10.662   3.552 -0.1524  0.0867  0.1622
29129W        W45313   7.547  13.144   6.323  0.1809 -0.0039  0.0084
29130W        W45314  14.260  15.808   2.175 -0.0486  0.1739 -0.0278
29131W        W45315   9.848  13.553   0.725  0.1955  0.3635  0.1105
29132W        W45316  11.982   4.938  13.827 -0.0661  0.2006  0.0193
29133W        W45317   5.735   2.833   3.871  0.0446  0.0431  0.2579
29134W        W45318   0.091  10.802   1.407 -0.1766  0.3707 -0.2294
29135W        W45319   4.363   5.439   2.369 -0.0492  0.1998  0.1189
29136W        W45320  14.357   0.126   3.820  0.0881  0.3785  0.2494
29137W        W45321  16.355   6.516   2.905  0.0240  0.1551  0.2510
29138W        W45322  16.357   4.666  16.137  0.2362  0.2075  0.0752
29139W        W45323  14.418  13.908   2.919  0.0590 -0.0607 -0.1255
29140W        W45324   8.092   1.336  15.585 -0.5521  0.1754 -0.0171
29141W        W45325   8.169   3.389   4.323 -0.4898  0.2729 -0.0036
29142W        W45326  12.347   9.272   5.566  0.3337 -0.0461  0.2168
29143W        W45327   8.112   5.624   3.993 -0.1324 -0.1308 -0.1001
29144W        W45328  13.367  10.521  11.857  0.1528 -0.0881  0.0820
29145W        W45329  15.012  14.968   5.447  0.2691  0.5235  0.1763
29146W        W45330   3.698   0.969   1.751  0.2376 -0.0926  0.2859
29147W        W45331   9.712   7.978  12.300  0.2299  0.1311 -0.4123
29148W        W45332   4.958  13.815   5.649 -0.1488  0.1287 -0.0485
29149W        W45333  14.579   5.829   0.980 -0.2894  0.0641  0.1191
29150W        W45334   5.764   6.046  16.372  0.5902  0.1652  0.2282
29151W        W45335   7.481  11.577  15.249 -0.0432 -0.0237 -0.1004
29152W        W45336  10.064  10.223   1.001  0.1733  0.3102  0.0620
29153W        W45337   7.122   2.598  13.649 -0.2858 -0.4497  0.1310
29154W        W45338  17.012   5.703  14.111  0.0894  0.2209 -0.2528
29155W        W45339   0.625   3.209  13.209 -0.0278 -0.0436 -0.2205
29156W        W45340   5.590  11.306  14.275 -0.1042 -0.0512  0.0175
29157W        W45341   4.920  15.215  14.858  0.3159 -0.1400 -0.0441
29158W        W45342  14.169  18.144   1.471 -0.1626  0.1452  0.0356
29159W        W45343  14.167  13.624   5.489  0.1273  0.0989  0.1003
29160W        W45344  16.250   0.599  13.203  0.2093  0.0207  0.1288
29161W        W45345  11.176  15.925   0.838  0.1664 -0.2090  0.3155
29162W        W45346  11.704   9.876   3.676  0.0127  0.1610  0.4322
29163W        W45347   0.963  17.673   5.640 -0.1104 -0.3082 -0.1202
29164W        W45348   1.388   9.099  12.838 -0.1109  0.1197 -0.0830
29165W        W45349  15.063   3.144   3.657 -0.2724 -0.0685 -0.0466
29166W        W45350  17.773   0.204   2.408 -0.1487  0.0375 -0.1147
29167W        W45351  12.538  10.186  13.839  0.2161 -0.0345 -0.1721
29168W        W45352  12.563   3.999  15.234 -0.2436  0.2616 -0.1142
29169W        W45353   0.327   3.147   2.966  0.0271 -0.2875  0.0790
29170W        W45354  11.367  17.082  14.936 -0.0447 -0.1660  0.0767
29171W        W45355   3.656   3.254   1.138  0.1146  0.1209  0.0584
29172W        W45356   3.726  16.959  14.730  0.2632  0.0968  0.0313
29173W        W45357   1.820   5.405  11.340 -0.0316  0.0265  0.2093
29174W        W45358   8.657  16.904   4.243 -0.3450 -0.2406 -0.0454
29175W        W45359  13.072   5.434  11.396  0.1779  0.3110  0.1757
29176W        W45360   1.687  17.690   3.173  0.0718 -0.2678  0.3370
29177W        W45361  10.582   2.638   1.050 -0.2960  0.0599  0.1088
29178W        W45362   6.172   6.983   2.716 -0.3156 -0.1567 -0.0708
29179W        W45363   9.083  12.010  14.301  0.2739  0.1839 -0.0331
29180W        W45364   3.182   5.685  10.819 -0.2620  0.3284  0.1714
29181W        W45365  16.373   9.017  11.676 -0.0407  0.0484 -0.0122
29182W        W45366   3.835   6.855   6.200  0.1635 -0.2356  0.1371
29183W        W45367   7.043  16.257   5.476 -0.0727  0.0100  0.1940
29184W        W45368   1.324  10.391  14.619  0.0329 -0.3539  0.0058
29185W        W45369   3.331  15.019  11.913  0.1202  0.0578  0.0479
29186W        W45370   9.776  16.903   2.670  0.2717 -0.0712 -0.1475
29187W        W45371  16.982  13.795   1.956 -0.2030  0.2657 -0.1770
29188W        W45372   2.061   9.292  13.510 -0.1611  0.1698 -0.0544
29189W        W45373  14.735   4.587  15.398 -0.0031 -0.1460  0.1875
29190W        W45374   8.110   6.357   0.982  0.0608 -0.1007  0.2424
29191W        W45375  17.279   7.070  12.773  0.1080 -0.2081  0.0460
29192W        W45376  11.077  11.339   2.854  0.3184  0.0550  0.2414
29193W        W45377  14.572   4.751  14.033 -0.1392 -0.1648  0.4443
29194W        W45378   9.311   8.585   3.564  0.1540 -0.0418  0.1780
29195W        W45379  11.660  14.599  14.721  0.2035 -0.0613 -0.0746
29196W        W45380  17.819   6.197  12.576 -0.1737 -0.0834  0.0854
29197W        W45381   0.148   7.745  13.660  0.3818 -0.0970 -0.2361
29198W        W45382   5.336   2.199  15.608  0.0916 -0.1763  0.0883
29199W        W45383   5.651  15.624  13.383 -0.2757  0.0466  0.1375
29200W        W45384  15.675  11.634   2.405 -0.1125  0.1255 -0.1933
29201W        W45385  12.202  13.536  11.839 -0.6263 -0.0297 -0.1510
29202W        W45386  18.164   5.620  11.736  0.0703 -0.1798  0.3295
29203W        W45387   4.743   6.295  15.354 -0.0683 -0.0510  0.3030
29204W        W45388   0.367  13.767   5.740 -0.2912 -0.0683  0.1142
29205W        W45389   3.291   3.064   5.110  0.1140 -0.0747  0.1189
29206W        W45390  10.670  11.205   2.567 -0.1016 -0.1987  0.2097
29207W        W45391  14.819   8.187  13.785  0.2568  0.0771 -0.1220
29208W        W45392   1.774   8.899   2.292  0.2330  0.3622  0.2304
29209W        W45393   5.375  11.087   4.124  0.1729 -0.0904 -0.2894
29210W        W45394   5.256  16.003   5.939  0.2893 -0.0072  0.0548
29211W        W45395   9.231  16.899   2.993  0.2405 -0.1590  0.1381
29212W        W45396   1.566   7.908   3.668 -0.0775 -0.2290 -0.0569
29213W        W45397  13.298   8.678  14.252  0.3226  0.1874  0.1737
29214W        W45398  11.445  10.821  12.166  0.1753 -0.0733 -0.1174
29215W        W45399   2.875  14.688   4.062 -0.0290  0.2761 -0.1521
29216W        W45400  12.841  15.971  15.298  0.2184 -0.1256  0.0755
29217W        W45401  18.152   1.355  11.914  0.2929  0.1012 -0.2992
29218W        W45402   2.122  10.253  15.935  0.0545  0.1597  0.4187
29219W        W45403  10.915  12.910  13.002 -0.1795  0.2445  0.0141
29220W        W45404   3.416   6.881   5.700  0.0612  0.1301 -0.2923
29221W        W45405   0.759   8.432  15.269  0.0178 -0.1839 -0.0185
29222W        W45406   7.425   4.632   3.221  0.0747 -0.2030  0.1650
29223W        W45407   6.208   1.970  15.255 -0.0774  0.1380 -0.1752
29224W        W45408  10.430  11.630  16.665  0.0861  0.0006  0.0942
29225W        W45409   8.405   8.832   3.123  0.2357 -0.1675 -0.0557
29226W        W45410  10.803   2.874   4.586  0.1075  0.1894  0.1211
29227W        W45411   9.581   8.806  13.401  0.0328  0.0945  0.0237
29228W        W45412   7.644   4.761  14.003  0.0632  0.0134 -0.0551
29229W        W45413   5.080  11.815   3.590  0.5485  0.1419  0.0057
29230W        W45414  12.722  16.916   3.575  0.2763  0.3451 -0.1304
29231W        W45415  14.689   8.723   0.428  0.1069  0.0912  0.0722
29232W        W45416  10.724   0.550  15.596  0.0261  0.0968 -0.1915
29233W        W45417   5.343   0.493  14.163  0.2186 -0.0649  0.0823
29234W        W45418  11.705   4.101   0.847 -0.1435  0.0887  0.2275
29235W        W45419   6.239   1.896   0.727  0.1490 -0.0859 -0.0200
29236W        W45420  11.558   4.279  14.856  0.0053  0.0463  0.1073
29237W        W45421   0.898   5.909  11.278  0.1097 -0.0738 -0.0943
29238W        W45422  11.152   1.155  12.085  0.1073  0.0516 -0.1199
29239W        W45423   4.592   5.946  13.195  0.3542 -0.2267 -0.1610
29240W        W45424  12.276  10.959   1.221 -0.3479  0.5499 -0.2546
29241W        W45425  10.525  15.822  10.724  0.1474 -0.0266  0.1863
29242W        W45426  11.825  14.562   2.925 -0.2033 -0.0427  0.2084
29243W        W45427   2.442  12.723  16.186 -0.1304 -0.2639  0.2867
29244W        W45428   6.735   2.259  13.105  0.0346 -0.0159 -0.1578
29245W        W45429  14.585   1.552   0.556  0.0646  0.0031  0.0731
29246W        W45430   1.910  16.688  16.338 -0.2956 -0.0204  0.2169
29247W        W45431   3.491   0.133   3.778 -0.0701  0.0445 -0.2058
29248W        W45432   4.604  15.252   5.192 -0.0450 -0.2222  0.1634
29249W        W45433   9.551  17.715  14.829  0.3057 -0.1444  0.3105
29250W        W45434  17.501   9.251   1.843  0.0683  0.1468 -0.2918
29251W        W45435  10.281   6.710   3.550  0.1396 -0.0841 -0.2324
29252W        W45436  17.249   2.840   0.184  0.2740 -0.2635  0.0138
29253W        W45437  10.460  18.163  14.700 -0.1819 -0.2164 -0.0888
29254W        W45438   6.675  17.092   3.237 -0.0507  0.2946 -0.0325
29255W        W45439  12.678   6.309   0.436 -0.1330  0.0997 -0.0944
29256W        W45440   2.328  13.337  12.557  0.0228  0.0808  0.0415
29257W        W45441  13.146   5.824  13.718 -0.1420  0.1093  0.0064
29258W        W45442   1.338  18.052   3.808 -0.0562 -0.0713 -0.0006
29259W        W45443  12.004   9.734   4.095  0.1054 -0.0713 -0.0842
29260W        W45444  10.306   7.335   5.302  0.0614 -0.3939  0.1266
29261W        W45445   2.636  12.814   0.369  0.2533 -0.2132 -0.0561
29262W        W45446   2.415   4.964  13.063 -0.0438 -0.0129 -0.1151
29263W        W45447   4.009  11.292   0.542  0.1409  0.2079  0.1436
29264W        W45448  17.057   3.381  14.011  0.0108  0.1294 -0.1577
29265W        W45449   2.972   7.371   0.199 -0.2492  0.0754  0.2988
29266W        W45450  17.338  14.212  15.786 -0.0569 -0.1051 -0.0896
29267W        W45451  14.358   6.172   1.969  0.0947 -0.1434 -0.1250
29268W        W45452   4.699   0.300  12.558 -0.2328  0.2291 -0.1453
29269W        W45453   5.985   8.098   3.036 -0.0489 -0.1984  0.0020
29270W        W45454   9.585  15.960  12.430 -0.0732  0.0744  0.2959
29271W        W45455   6.694   6.967   3.913  0.1614 -0.0946 -0.0821
29272W        W45456   5.753  13.012   4.146  0.0181 -0.1330  0.1904
29273W        W45457   9.317  16.318  12.589  0.5148  0.2741 -0.0501
29274W        W45458   7.385  11.160  11.954  0.0387  0.2109  0.0783
29275W        W45459   7.997  13.646   1.971  0.1804  0.1083 -0.1019
29276W        W45460   4.386   5.492  15.421 -0.2177 -0.3678  0.0376
29277W        W45461  13.721   0.550   2.304 -0.0426 -0.1247 -0.4247
29278W        W45462  15.684   6.530   2.843  0.2570 -0.0490 -0.0355
29279W        W45463   3.425  12.002   5.944  0.2050 -0.0112  0.0185
29280W        W45464   4.552   9.386  12.554 -0.2160 -0.1453  0.1530
29281W        W45465  11.968   0.999  12.947 -0.1519  0.4029  0.3232
29282W        W45466   2.092   8.151   4.403 -0.0875 -0.1700  0.1074
29283W        W45467   0.737  15.649   3.320  0.0086 -0.0808  0.1770
29284W        W45468   3.886  16.855  12.671  0.1901  0.2930  0.1944
29285W        W45469   9.651  11.037   5.726 -0.1100  0.1374 -0.1452
29286W        W45470  12.720   8.615  16.028 -0.1340 -0.1115  0.4317
29287W        W45471   2.067   3.369  11.466 -0.0869  0.0309 -0.1398
29288W        W45472  12.334  11.142   2.853 -0.2772 -0.1592  0.1334
29289W        W45473  12.133  15.410   0.545 -0.0002  0.2001  0.1689
29290W        W45474   9.633  14.296   0.935 -0.0571  0.1371  0.0118
29291W        W45475   1.783  15.764   1.293  0.0056 -0.1481  0.1843
29292W        W45476  11.862  12.917  12.455 -0.4066 -0.0495 -0.0970
29293W        W45477  16.152   3.486   5.216 -0.0828  0.0265 -0.0988
29294W        W45478   8.839  15.837   3.795 -0.1223 -0.0146  0.3724
29295W        W45479   5.562  10.736   1.129 -0.2540 -0.1653  0.0603
29296W        W45480   8.884  10.746   4.506 -0.1937  0.0104 -0.2954
29297W        W45481   5.421   4.391   4.543  0.0475  0.2527  0.1268
29298W        W45482   7.073   8.759  13.223 -0.1697 -0.2891  0.1430
29299W        W45483  12.833   4.869  15.061  0.1748  0.3047  0.1082
29300W        W45484  12.823  13.577   0.337  0.1075  0.0921 -0.0091
29301W        W45485   7.931  15.176  14.081  0.2328 -0.3441 -0.0064
29302W        W45486  15.262   6.973  15.850 -0.2151 -0.1238  0.1621
29303W        W45487  12.667   8.800  12.779 -0.0463 -0.1066  0.1408
29304W        W45488  12.053  17.078  14.718 -0.1020 -0.0026 -0.1834
29305W        W45489   5.410   6.094  14.924 -0.0710 -0.3424  0.1607
29306W        W45490   7.134   4.455  12.750 -0.0463  0.0101  0.3803
29307W        W45491   2.053  11.710   3.959 -0.0091  0.3821 -0.1225
29308W        W45492  16.560   3.653  12.278 -0.0159  0.0833 -0.1510
29309W        W45493   5.503   6.094   0.485  0.3675 -0.1263  0.1957
29310W        W45494   2.120  11.888   4.456 -0.0680  0.2848  0.0298
29311W        W45495   4.690   2.240  13.934  0.1068  0.0072  0.0947
29312W        W45496   8.245  16.438   2.340  0.0724 -0.1420  0.1330
29313W        W45497   3.000  10.126   4.067 -0.0728  0.0408  0.3730
29314W        W45498  10.389   7.439  11.823 -0.2552  0.1383 -0.1522
29315W        W45499   2.001   1.813  15.366 -0.2957 -0.0270  0.1554
29316W        W45500  15.747  13.963  14.141  0.0594 -0.0132  0.0629
29317W        W45501   6.025   9.647   3.964 -0.1143 -0.3313  0.1229
29318W        W45502  12.499   7.669  16.249  0.1997  0.0915 -0.0820
29319W        W45503  11.245   9.166  14.830  0.0918  0.0512  0.0993
29320W        W45504  11.282   5.964   4.325  0.3107 -0.0895 -0.2349
29321W        W45505  11.082  16.917  14.508  0.1315  0.0465 -0.1625
29322W        W45506   2.456   4.932  12.488 -0.1447  0.1594  0.1655
29323W        W45507  14.691   0.001  12.207 -0.0089  0.1747 -0.5045
29324W        W45508  13.026   4.779  15.490 -0.0192 -0.1172 -0.0852
29325W        W45509   5.060  12.138  13.898 -0.2719 -0.0727  0.0490
29326W        W45510   7.519  13.406  13.370  0.1769 -0.0000  0.0045
29327W        W45511   6.359   7.743   2.380 -0.4061  0.0505 -0.2692
29328W        W45512   3.833   7.375   5.598 -0.0720 -0.0078 -0.0682
29329W        W45513   3.371  13.001   2.876  0.0543 -0.4040  0.0421
29330W        W45514  16.824   9.245   3.878  0.1708  0.3751  0.1055
29331W        W45515  11.408   4.291   1.765  0.2228 -0.0834 -0.2687
29332W        W45516   7.869   5.707   1.208  0.0531 -0.0108 -0.0801
29333W        W45517   2.283  10.205   2.546 -0.2766 -0.0650  0.0251
29334W        W45518  11.108   6.939   3.075  0.1450  0.0196 -0.0263
29335W        W45519  17.462   3.383   4.094  0.1810  0.0536  0.4961
29336W        W45520   3.132   6.891   5.318  0.0221  0.2215  0.1476
29337W        W45521  13.084   9.022   2.728  0.2323  0.6026  0.2172
29338W        W45522  17.200   8.541   1.404 -0.0755 -0.1644  0.2086
29339W        W45523   6.839   6.782  16.653 -0.0902 -0.0207 -0.0968
29340W        W45524   9.803   8.701   3.647  0.0519 -0.2472 -0.1653
29341W        W45525   8.622  12.899  15.310 -0.2015 -0.0061 -0.2352
29342W        W45526  13.760   5.334  14.335 -0.1088  0.1441  0.2105
29343W        W45527  14.636   5.960   1.481 -0.0269  0.4599  0.1123
29344W        W45528   8.057   8.476  14.302 -0.1152  0.1989  0.1693
29345W        W45529  16.692  14.816   3.055  0.1801 -0.2505  0.0488
29346W        W45530   8.244  15.811  16.245  0.2156 -0.3203  0.0916
29347W        W45531  16.101   2.884   4.458  0.0712 -0.1653  0.4132
29348W        W45532  13.783  10.842  11.999 -0.1875  0.0203  0.0206
29349W        W45533   9.387   5.151   1.169  0.3930  0.0095  0.0840
29350W        W45534  10.864  16.872  13.279 -0.3143  0.1869  0.0934
29351W        W45535  10.891  13.039   1.759 -0.4250 -0.1473 -0.0634
29352W        W45536   6.311  16.578   3.630 -0.1806 -0.1744 -0.1145
29353W        W45537   2.090   4.708  12.134 -0.0958 -0.1238  0.1337
29354W        W45538   2.157   9.417   4.728 -0.1641 -0.0152  0.1621
29355W        W45539  17.220   4.810  11.816  0.0415  0.0524  0.0550
29356W        W45540   2.550  10.405   2.161  0.2347  0.0207  0.4894
29357W        W45541   9.791  13.379  15.270 -0.0445  0.1003  0.1650
29358W        W45542   2.343  16.074   0.925  0.2123  0.0411  0.1109
29359W        W45543   9.105   0.850  14.507  0.1916  0.0083 -0.2297
29360W        W45544  10.131   0.150  13.818  0.0807 -0.2375 -0.1065
29361W        W45545  11.736  15.560   2.385 -0.2851 -0.1183 -0.2951
29362W        W45546   9.832   0.579   4.275 -0.0258 -0.2198 -0.0376
29363W        W45547  15.370   3.730  14.889 -0.2353 -0.0294 -0.0859
29364W        W45548  10.751  15.939  16.163  0.3007 -0.3867  0.0722
29365W        W45549  18.014  10.249   3.089  0.1908 -0.1232  0.1827
29366W        W45550  14.517  16.230  13.901 -0.0531 -0.0181  0.2185
29367W        W45551  13.488  11.384  16.428 -0.1533  0.0236  0.3235
29368W        W45552   1.227  11.018   0.824 -0.4267 -0.0249  0.7145
29369W        W45553   5.412  16.757  16.411 -0.2067  0.0476  0.2014
29370W        W45554   7.116  12.458  11.863  0.0224 -0.1471  0.0932
29371W        W45555   3.290  14.836  16.679 -0.2606 -0.1822 -0.1919
29372W        W45556  15.357   0.909  16.209  0.0186 -0.1045  0.0053
29373W        W45557  13.656  14.203   2.691  0.1143  0.2923  0.2376
29374W        W45558  14.923  11.409   1.571  0.0220  0.2394 -0.0521
29375W        W45559   6.509  16.503   3.136 -0.0112 -0.0818  0.2904
29376W        W45560   6.990   4.117  13.450 -0.0522 -0.0890  0.0652
29377W        W45561   3.368   1.519   5.372 -0.1740 -0.0656 -0.2669
29378W        W45562   0.499  13.281   2.599 -0.0570 -0.0256 -0.1509
29379W        W45563  13.077  13.017  14.431 -0.1482 -0.1125 -0.1109
29380W        W45564   2.560   7.256  14.172  0.1084  0.1462 -0.0360
29381W        W45565  11.951  16.494   1.441  0.2942 -0.0252  0.1327
29382W        W45566   1.728  11.289   2.193  0.1650 -0.3664 -0.1847
29383W        W45567   8.501  17.535  14.155  0.0198  0.0603  0.0285
29384W        W45568   3.301   9.451   4.531  0.0678  0.1988  0.2159
29385W        W45569   0.811   0.527   4.439  0.0703 -0.0140  0.0534
29386W        W45570   3.345   6.351  11.585  0.1699  0.3237 -0.0812
29387W        W45571  13.565  11.755   3.461  0.1081 -0.0983 -0.2106
29388W        W45572   0.673  15.052   5.578  0.1658 -0.0436  0.0679
29389W        W45573   9.704  15.037  14.048  0.3036 -0.1403  0.1068
29390W        W45574   6.351   5.766   0.405  0.3093 -0.0873 -0.0091
29391W        W45575   6.716  15.945   3.974  0.0439 -0.3223 -0.2006
29392W        W45576  15.581   1.739   2.553 -0.0411  0.1843 -0.0687
29393W        W45577  12.442   9.870   4.637 -0.1303 -0.1942  0.3506
29394W        W45578   8.987  15.168   1.552 -0.0154 -0.1951 -0.3622
29395W        W45579   9.213  12.677  13.057  0.1597 -0.2312  0.2371
29396W        W45580  11.090   0.120   5.743 -0.1243  0.0426  0.0718
29397W        W45581   7.546   2.358   3.707  0.0867  0.0215 -0.2444
29398W        W45582  16.217  14.603   3.955  0.0146 -0.2156 -0.0428
29399W        W45583   2.086   8.057  16.124  0.1781 -0.1454  0.2265
29400W        W45584   9.518   5.902  15.960  0.0531 -0.0095 -0.1682
29401W        W45585  11.375  17.848  13.176 -0.1756  0.1357  0.1499
29402W        W45586   5.384  12.332   6.517  0.2688  0.1112  0.4605
29403W        W45587   3.357   9.147   3.917  0.1810 -0.3011  0.2610
29404W        W45588   8.218  14.315  16.405  0.0050  0.2148  0.0513
29405W        W45589   0.901   4.897  14.359  0.4788  0.2950  0.3652
29406W        W45590   6.964   8.711   5.472 -0.0235 -0.0916  0.0620
29407W        W45591   0.715  15.542   1.131 -0.2827 -0.0636  0.4439
29408W        W45592   1.316   8.793   0.643 -0.3063 -0.1008  0.1525
29409W        W45593   2.058  11.154  15.266  0.1860  0.0516  0.3107
29410W        W45594   8.027  17.387   2.653 -0.2353  0.2541  0.0855
29411W        W45595   5.596   2.824  12.435  0.2124  0.1548  0.1360
29412W        W45596  13.741   6.097  10.813 -0.0964 -0.2290  0.0216
29413W        W45597   7.238   0.827  12.828 -0.0305  0.1561  0.1595
29414W        W45598   9.840  17.555   2.535  0.0060  0.1553  0.0293
29415W        W45599  14.583   2.876  12.769  0.4477  0.1218  0.2054
29416W        W45600   6.489  11.419   1.985 -0.1038  0.1668 -0.1315
29417W        W45601  11.721  17.195   3.492 -0.0710  0.0571 -0.1142
29418W        W45602   8.420   1.115  12.540 -0.3109  0.1756 -0.0965
29419W        W45603  12.555  17.767  16.503  0.2156  0.0724  0.0998
29420W        W45604  12.444   2.077   4.183 -0.1579 -0.0202  0.2052
29421W        W45605   1.241  11.184   4.763 -0.0411  0.2938 -0.1566
29422W        W45606   5.527  17.536  16.445  0.1293 -0.2420  0.1422
29423W        W45607   4.750  11.983   5.935 -0.0639  0.1139 -0.3056
29424W        W45608  13.854  13.794   1.157 -0.1505  0.0286 -0.0602
29425W        W45609   3.971   3.643   0.111 -0.2507  0.3066  0.3151
29426W        W45610   9.323   2.398   4.464 -0.1043  0.0209 -0.1964
29427W        W45611   0.846   3.279  14.407 -0.1123  0.2161 -0.0103
29428W        W45612  16.688  15.438  14.346 -0.2032 -0.0326  0.0179
29429W        W45613  13.750   8.608   2.984  0.3721 -0.0573  0.1050
29430W        W45614  10.174   7.692  12.216 -0.1629 -0.2925 -0.1146
29431W        W45615  11.337   8.892  16.310 -0.1119 -0.0831 -0.1741
29432W        W45616   6.689  12.385   1.908 -0.0207  0.4034  0.0644
29433W        W45617  17.022   3.321  10.777  0.0437 -0.2885  0.0473
29434W        W45618  11.387   7.182   2.338 -0.0052  0.1145 -0.0767
29435W        W45619   6.704  15.197   0.308 -0.0483 -0.0995  0.1408
29436W        W45620  15.434   7.263   2.363 -0.1487  0.1751 -0.0335
29437W        W45621   2.218   9.628  11.971 -0.0009  0.1171 -0.0723
29438W        W45622   5.396  17.544   4.940  0.0390  0.4358 -0.1522
29439W        W45623   8.333   8.633   0.317  0.2762  0.0206  0.0097
29440W        W45624  13.762   0.660   5.133 -0.1175  0.2125 -0.0990
29441W        W45625   9.354  13.685   2.769  0.1029 -0.1584  0.1593
29442W        W45626  15.851  12.669   3.574  0.1536  0.0846  0.4154
29443W        W45627   2.910   4.445  13.209  0.2621  0.1448 -0.2814
29444W        W45628   0.409   2.229  14.787  0.3794  0.0843  0.2900
29445W        W45629  12.442  13.888   6.037 -0.4576  0.0536  0.2940
29446W        W45630   7.399  13.861  15.275  0.0680  0.1843 -0.2904
29447W        W45631  15.046  11.018  13.830  0.3514  0.3160  0.3927
29448W        W45632   0.551   3.659  14.699 -0.0272  0.1882  0.0773
29449W        W45633   6.742  17.932  15.364 -0.1692 -0.1263  0.1746
29450W        W45634  10.140   8.925   1.749 -0.3077 -0.0576  0.0872
29451W        W45635  17.537   3.198   5.125  0.2552 -0.1244  0.0135
29452W        W45636  16.838   8.238  16.179 -0.1585 -0.0253  0.0296
29453W        W45637  18.082   3.729   4.496  0.1703  0.1570  0.0050
29454W        W45638   6.498   1.252   5.219  0.0053  0.1697  0.2188
29455W        W45639   4.842  14.603   1.214  0.1927  0.2546  0.0223
29456W        W45640  10.193   0.664  12.226 -0.0729 -0.2696 -0.1855
29457W        W45641  10.726  13.083   4.323  0.4599  0.1602 -0.0168
29458W        W45642  13.575  14.468   5.933  0.1392 -0.0064 -0.2576
29459W        W45643  18.161  15.894  12.340 -0.1202  0.1563  0.1813
29460W        W45644  15.208   1.800   4.126  0.1259 -0.0743 -0.1595
29461W        W45645  10.944   4.911   5.615 -0.1154 -0.0403 -0.3289
29462W        W45646   2.465   6.765   0.858  0.3512  0.2303 -0.0362
29463W        W45647   8.043   0.640   4.467  0.0287 -0.1928 -0.1158
29464W        W45648   9.734   0.400  15.244 -0.0732  0.0137  0.0184
29465W        W45649  10.165   4.847   3.525 -0.1420 -0.1710  0.0357
29466W        W45650  17.572  14.991   4.151  0.0094  0.1713  0.1736
29467W        W45651   8.323  10.663  16.111  0.2034  0.2588 -0.0669
29468W        W45652  16.222  14.573   0.530  0.2276 -0.0726 -0.1543
29469W        W45653   3.619  17.173   4.678  0.0442 -0.0325 -0.1590
29470W        W45654  18.077   6.289  14.669  0.1293  0.3016 -0.0495
29471W        W45655  10.783   5.008  14.016 -0.1869 -0.1122  0.1802
29472W        W45656  15.513  17.001  15.450  0.0467  0.0043  0.2357
29473W        W45657  13.231   6.231  15.632 -0.1630  0.3807 -0.0298
29474W        W45658  10.849   3.631  14.296  0.0389  0.3651  0.0000
29475W        W45659   0.157  14.675   3.797 -0.1662 -0.1870 -0.1728
29476W        W45660  11.208  15.477   0.660  0.1773  0.0805 -0.3145
29477W        W45661   0.470   1.599  12.051 -0.2840 -0.0662  0.2822
29478W        W45662   6.447   8.068  14.853  0.2393 -0.3643 -0.0245
29479W        W45663   7.636   9.267   2.670  0.0932 -0.0013  0.0953
29480W        W45664  10.387  11.053   6.263  0.2010 -0.0098  0.0609
29481W        W45665   6.810   9.446  13.652 -0.1204  0.0336 -0.1272
29482W        W45666  14.000  13.283   4.637 -0.2741  0.1780  0.2192
29483W        W45667   1.441  17.729   1.569  0.1645 -0.0593 -0.2940
29484W        W45668   8.407   5.041   3.924 -0.0608  0.1619  0.2035
29485W        W45669  12.564   0.843   2.369 -0.4041 -0.0210  0.2057
29486W        W45670   1.588   1.996  10.373  0.0315 -0.0814 -0.0680
29487W        W45671  11.600  16.733  11.469 -0.1580 -0.0657  0.1545
29488W        W45672   5.706   1.597  14.589 -0.1657  0.2826 -0.3029
29489W        W45673   0.095   9.839   0.944 -0.3430  0.1324 -0.0367
29490W        W45674  10.286  16.201   3.236  0.0841  0.2664 -0.2751
29491W        W45675   0.109   3.941  12.057  0.0947 -0.0054  0.3372
29492W        W45676   1.202   2.217   1.830 -0.1519  0.0270  0.2529
29493W        W45677   6.464   7.910   3.020  0.0230 -0.0402  0.1252
29494W        W45678   4.627   8.077   4.304  0.5258 -0.0098 -0.0526
29495W        W45679  11.955   3.477  13.937 -0.3222  0.2645 -0.1942
29496W        W45680  11.019   7.419  16.386  0.1540 -0.0015  0.2626
29497W        W45681   4.768   1.699  13.020 -0.2783  0.0013  0.0046
29498W        W45682   8.444   8.794  12.286 -0.2160  0.2122  0.2308
29499W        W45683   7.022  15.107  14.049 -0.0653  0.1471  0.4164
29500W        W45684  10.012  15.935  14.918  0.1353  0.0583 -0.0502
29501W        W45685   6.641   1.671  15.393 -0.4597  0.3750  0.0929
29502W        W45686  12.635  17.569  15.524 -0.0517 -0.2479  0.4756
29503W        W45687  11.784  14.138  16.180  0.4323  0.3552  0.0714
29504W        W45688  15.099  12.848  14.046 -0.1775 -0.1949 -0.0149
29505W        W45689  14.787   1.081   0.458  0.1541  0.0227 -0.1907
29506W        W45690   1.358  11.015  13.356 -0.1966 -0.0470  0.1982
29507W        W45691   2.233  16.134  12.896 -0.1849 -0.1280  0.0802
29508W        W45692  13.614   5.044   4.567  0.0473 -0.0427 -0.1106
29509W        W45693  15.449   1.875   3.151  0.2420  0.0492 -0.1222
29510W        W45694  10.954  11.193   4.764  0.2068 -0.1798 -0.1448
29511W        W45695   5.156  15.822  12.055  0.0774 -0.2843 -0.0799
29512W        W45696   0.005   0.110   3.039  0.4124  0.2608 -0.0187
29513W        W45697  10.899  12.908   1.235 -0.0934  0.2876  0.0984
29514W        W45698  17.713   8.258  14.562 -0.0128 -0.3165  0.3321
29515W        W45699  12.273  14.153  15.160 -0.2855  0.0418 -0.2244
29516W        W45700  16.964   1.936   0.293 -0.0490 -0.2140  0.1855
29517W        W45701  11.400  14.814   2.891 -0.1709 -0.0471  0.4923
29518W        W45702   1.622  16.417   2.560  0.1026  0.0518 -0.0292
29519W        W45703  15.202  10.120   2.343 -0.0499  0.2094  0.1682
29520W        W45704   7.241   8.344   2.799  0.0230 -0.0817  0.0942
29521W        W45705   1.357   6.624  11.906  0.3695 -0.0082 -0.2399
29522W        W45706  15.144   8.881  14.914 -0.0818 -0.0528 -0.0537
29523W        W45707   7.514   0.314   4.575  0.0241 -0.0722  0.0250
29524W        W45708   6.102   0.193  15.953 -0.1232  0.0553  0.2759
29525W        W45709  11.472   4.383  16.110 -0.2602 -0.1781 -0.0459
29526W        W45710   1.398   6.617   4.230  0.2392  0.2034  0.4042
29527W        W45711  10.077  16.504   3.544 -0.1984 -0.1570 -0.0612
29528W        W45712   4.194   0.051   0.260 -0.0649 -0.1982 -0.0316
29529W        W45713  17.430   3.209  13.255  0.4890 -0.3915 -0.0029
29530W        W45714  11.601   8.593  12.824  0.1205  0.0618  0.1046
29531W        W45715  17.808   9.587  13.659 -0.0145 -0.0269 -0.1395
29532W        W45716  17.629   8.350  12.561  0.1870  0.3184  0.1793
29533W        W45717  17.754  16.665  12.860  0.2438  0.0933  0.0562
29534W        W45718  12.420   9.547   0.455  0.4574 -0.1428 -0.0289
29535W        W45719  13.535   7.209  13.806 -0.1569  0.0076  0.3120
29536W        W45720  15.304   3.520   0.068  0.3457  0.0270  0.0188
29537W        W45721  13.481   8.448   3.436  0.2716  0.0757 -0.3302
29538W        W45722  16.755   1.215   1.312  0.0063  0.0588  0.0040
29539W        W45723   6.186   4.049  11.892  0.0597  0.2744 -0.1204
29540W        W45724  17.495   7.493   1.515  0.3848  0.2101 -0.0732
29541W        W45725   2.675  16.332  15.324 -0.1055  0.1101  0.3121
29542W        W45726  16.888  16.026   2.853  0.2253 -0.1353 -0.1151
29543W        W45727  14.052   4.311  13.709 -0.0693 -0.0198 -0.0285
29544W        W45728  14.658   3.223  11.326 -0.0877 -0.1040  0.1130
29545W        W45729  13.757   1.607   0.248  0.1762 -0.0832  0.0469
29546W        W45730  17.738  12.181   5.979  0.2689  0.1022 -0.3070
29547W        W45731  12.925  17.381  15.174 -0.2540 -0.0453  0.1387
29548W        W45732  14.523   1.789  12.158 -0.3436  0.1088 -0.1087
29549W        W45733  15.001  12.144  14.228 -0.1521 -0.2341 -0.4005
29550W        W45734  10.610   9.207  13.436  0.0673  0.3721 -0.0128
29551W        W45735   2.331   3.769  16.199 -0.0048 -0.0786 -0.0987
29552W        W45736   7.364   1.364   2.020  0.0294 -0.3111  0.0433
29553W        W45737  10.910   7.318   2.483  0.0313 -0.0602  0.1659
29554W        W45738  15.611   7.133  12.857 -0.4795  0.3352  0.3401
29555W        W45739   3.678   1.523   3.817  0.1600  0.1587 -0.0122
29556W        W45740   9.222  15.944   4.841  0.1092 -0.1618 -0.3986
29557W        W45741   6.877   7.500   3.157 -0.2314 -0.0690 -0.3494
29558W        W45742  10.054  15.148   1.794 -0.2924  0.0818  0.0799
29559W        W45743   9.414  12.206   2.372  0.1511 -0.0643 -0.0969
29560W        W45744  18.096   8.138   5.152  0.1271  0.1921  0.2402
29561W        W45745  13.552  14.720  12.535  0.0834 -0.1628 -0.0170
29562W        W45746   4.112  17.617   2.023  0.1023  0.0612 -0.1520
29563W        W45747  18.168   8.978   3.353 -0.1987  0.3061 -0.0334
29564W        W45748  12.102  13.419   3.828  0.1775  0.1226  0.0962
29565W        W45749   7.140   9.133  14.599 -0.2761 -0.2043 -0.2808
29566W        W45750  10.994  10.429   1.210 -0.3077 -0.0448  0.1960
29567W        W45751   4.214   1.323  16.666 -0.4114 -0.0397 -0.0491
29568W        W45752  17.972   7.059   3.096 -0.0597  0.1449  0.3728
29569W        W45753   3.161   7.358   2.725  0.2166 -0.0852  0.1739
29570W        W45754   8.772  15.538   3.418  0.0058  0.2708  0.3573
29571W        W45755  12.482  13.758   1.538 -0.0001  0.1720 -0.1009
29572W        W45756  10.388   5.877  13.771 -0.0225  0.1002  0.0719
29573W        W45757  15.708   1.775  16.106 -0.1718 -0.0427 -0.1250
29574W        W45758   0.084  10.758  13.057  0.3161  0.1624  0.0643
29575W        W45759  13.348  14.393  14.415  0.1086  0.0226  0.2159
29576W        W45760  13.522  16.757  15.552  0.2259  0.1680  0.0917
29577W        W45761  17.889   0.497   2.846 -0.2225  0.0753  0.2916
29578W        W45762   4.634   6.780  16.288 -0.0727  0.0127 -0.0953
29579W        W45763   4.512  12.843  15.489 -0.1282 -0.0943 -0.2948
29580W        W45764   5.040   4.971   2.274  0.3777  0.0586  0.1096
29581W        W45765   6.549  12.100   3.551  0.0475 -0.2782  0.2726
29582W        W45766  16.299  16.833  16.650  0.0141  0.4006 -0.2716
29583W        W45767   0.247  15.096   0.211  0.0826 -0.2488 -0.2462
29584W        W45768   0.570  12.662  11.535 -0.2010  0.0029 -0.1704
29585W        W45769   3.401   1.797   4.216 -0.2547 -0.1115 -0.3633
29586W        W45770  13.889  13.546  14.611  0.1806 -0.0581  0.1976
29587W        W45771   7.916  16.063  15.012 -0.2265 -0.3534 -0.0313
29588W        W45772   4.043  15.963   4.688 -0.2962 -0.1202 -0.2650
29589W        W45773   6.867  10.815   3.092  0.2923  0.1493  0.0296
29590W        W45774  12.780   8.349   5.043  0.1850  0.0254 -0.0162
29591W        W45775   6.079  16.110  14.448 -0.0350  0.1305 -0.0200
29592W        W45776  17.776   7.859   1.259 -0.0287 -0.2313 -0.0459
29593W        W45777   2.383   5.504  14.881 -0.2962 -0.3474 -0.0524
29594W        W45778   7.631  10.945   4.221 -0.0519  0.0822 -0.0955
29595W        W45779  17.448  10.215   1.641 -0.0499 -0.1777  0.0016
29596W        W45780  13.540   4.532  12.665 -0.1851  0.4534  0.3140
29597W        W45781  10.567  15.605  11.514  0.0884  0.2380 -0.0781
29598W        W45782  12.973   9.910   1.112 -0.3586  0.0030 -0.0467
29599W        W45783  11.642  14.014   0.916 -0.0558  0.3158 -0.1123
29600W        W45784   2.854   8.121  14.012  0.2991 -0.0216 -0.1715
29601W        W45785   6.287   2.878   1.960  0.2819  0.1609 -0.0851
29602W        W45786  10.083  16.891   0.893 -0.1953 -0.2549  0.3302
29603W        W45787  12.761   4.696   5.189 -0.1405  0.0781  0.1814
29604W        W45788  11.892   4.002  15.468 -0.0665  0.1480  0.0603
29605W        W45789  13.602   0.486   4.463  0.1494  0.0459  0.3377
29606W        W45790  17.914   0.105  15.923 -0.2429  0.0447  0.0975
29607W        W45791  12.823   6.842  14.569  0.1166 -0.1230  0.1364
29608W        W45792  15.733  15.856  15.922 -0.0406 -0.3800  0.2232
29609W        W45793   3.054  15.173  16.410 -0.0952 -0.0238  0.0869
29610W        W45794  13.030  11.383   1.677  0.0604 -0.1418 -0.0104
29611W        W45795   5.922  12.751   2.090 -0.1733  0.3987  0.2819
29612W        W45796  10.936  14.828   0.249  0.1245  0.0300 -0.0218
29613W        W45797   3.827  14.372   1.984 -0.4490  0.1375 -0.1908
29614W        W45798   1.401   7.893  15.931  0.0904 -0.0090 -0.1177
29615W        W45799  11.495   7.939   1.368  0.0585  0.1649  0.0148
29616W        W45800   7.616   0.823   3.386 -0.2982  0.0905 -0.0126
29617W        W45801   4.912  15.233   2.920 -0.0337  0.1587 -0.0911
29618W        W45802  14.136   1.759  16.398 -0.1939 -0.0511  0.2881
29619W        W45803   2.523   2.404  16.235  0.1372 -0.2053  0.0591
29620W        W45804   3.082  11.664   0.207  0.1783 -0.1901 -0.1412
29621W        W45805   6.961   8.631   4.122 -0.0563  0.1897  0.2240
29622W        W45806   7.492   6.616   3.655 -0.0315 -0.0820  0.0657
29623W        W45807  12.044   6.275  14.998  0.0072 -0.1947 -0.0661
29624W        W45808   0.636  15.045   1.821  0.2239  0.0417 -0.0105
29625W        W45809  12.818   2.258   5.221 -0.0155  0.1444 -0.2189
29626W        W45810  17.279   7.971   0.766  0.0017 -0.0861 -0.2610
29627W        W45811   7.276  16.795  13.302 -0.1691  0.0580 -0.1223
29628W        W45812   3.723   5.955   5.470  0.1945  0.1239  0.0635
29629W        W45813  16.231   2.897   3.056  0.2240 -0.1648 -0.1658
29630W        W45814   3.972  17.290   3.151  0.2510  0.0225 -0.1322
29631W        W45815  17.603  12.558   0.827  0.1035  0.1997  0.1690
29632W        W45816   2.000  17.456   4.170  0.0039  0.0190 -0.2314
29633W        W45817   6.135   6.291   0.365 -0.0908 -0.1036  0.2152
29634W        W45818  15.943  17.876  14.987 -0.1627 -0.0688 -0.1760
29635W        W45819   2.241   2.264   1.865  0.2688  0.1056 -0.2299
29636W        W45820  14.791   1.444  11.824  0.2288 -0.1004 -0.2642
29637W        W45821   2.482   3.922   3.484  0.2920  0.1186 -0.1864
29638W        W45822   9.592   4.971   4.339 -0.0032  0.0460 -0.0605
29639W        W45823  13.747   5.111  13.831 -0.5099  0.1846 -0.0956
29640W        W45824   5.142   5.469   1.433  0.1303  0.3645  0.0398
29641W        W45825  16.745   9.491   2.593  0.0681 -0.1076  0.1665
29642W        W45826   0.238   4.196  15.910  0.0091  0.3109  0.1544
29643W        W45827   5.795  17.562  11.971 -0.0155  0.2785 -0.0321
29644W        W45828   3.008   1.979   1.363  0.0396 -0.2352  0.1243
29645W        W45829   8.593   5.914  11.898  0.0485 -0.1009  0.1845
29646W        W45830  11.797  16.377  14.324 -0.1405  0.1392 -0.2532
29647W        W45831   9.394  16.181   5.414  0.0465  0.1056 -0.2521
29648W        W45832  14.642   2.363  13.011  0.0621  0.0531  0.5029
29649W        W45833   3.510   2.712  12.726  0.0076 -0.3094 -0.0526
29650W        W45834  15.860  12.467  15.226  0.5168 -0.0329  0.0381
29651W        W45835  16.268   2.881  10.643  0.1949  0.2945 -0.1344
29652W        W45836   3.129  16.539  12.707  0.0992  0.1747 -0.2605
29653W        W45837  17.981  15.227  16.311  0.1139 -0.3595 -0.0215
29654W        W45838  11.478  15.495  15.037 -0.2516  0.2422 -0.0240
29655W        W45839  14.328  15.021   1.498  0.5579 -0.0334 -0.0623
29656W        W45840   1.911   4.316  10.793 -0.2590 -0.0325  0.1710
29657W        W45841  15.597   4.858   4.197  0.2112  0.0133 -0.0403
29658W        W45842  10.812  14.627   4.041 -0.1017  0.0103 -0.3442
29659W        W45843   2.521   2.747  13.073  0.1777  0.0259 -0.1873
29660W        W45844   6.381  10.701  13.445 -0.3015  0.0266  0.0178
29661W        W45845  11.202   6.668   1.197  0.0044 -0.1590 -0.0935
29662W        W45846  17.446   6.054   4.303 -0.1311 -0.2517 -0.0614
29663W        W45847   7.154  12.081  12.801  0.0215 -0.1786 -0.4457
29664W        W45848   0.346  11.666  13.037  0.1313  0.1299 -0.0754
29665W        W45849   6.545  12.682   5.648  0.0959 -0.0133 -0.1732
29666W        W45850  18.144  10.935  16.519  0.2360  0.1678  0.0228
29667W        W45851   7.131  13.596  13.739 -0.0410 -0.1355  0.1567
29668W        W45852  10.433   4.775  16.659 -0.1721 -0.1412 -0.1191
29669W        W45853   8.957   0.286  12.736 -0.2376 -0.0352 -0.1963
29670W        W45854  18.032   4.313  15.497 -0.1725 -0.2130 -0.0414
29671W        W45855   6.162  14.774   4.422 -0.0601 -0.0696 -0.0737
29672W        W45856  10.419   9.557  13.784  0.3231  0.3833  0.0824
29673W        W45857   5.520   2.336   2.503  0.1705  0.0180 -0.0018
29674W        W45858  17.952   5.356  12.078  0.1896  0.1108 -0.1102
29675W        W45859   8.952  13.265  11.748 -0.2038  0.1918  0.0639
29676W        W45860   6.527   0.502   5.948 -0.0541 -0.0125 -0.1366
29677W        W45861   2.053  18.156  12.510 -0.4290 -0.3698  0.0087
29678W        W45862  13.031  16.303  16.364 -0.2964 -0.0567  0.0587
29679W        W45863  17.075   1.103  11.053 -0.0238 -0.2519 -0.0168
29680W        W45864   3.460  17.079   3.274  0.1111 -0.1827  0.0532
29681W        W45865   6.105   9.360  15.317  0.1561 -0.1617  0.3525
29682W        W45866  13.990  13.175   5.238  0.1078  0.0140 -0.0140
29683W        W45867   2.596   5.117  13.522 -0.3221  0.0004  0.3348
29684W        W45868  16.857  18.121  11.994  0.1689 -0.2073  0.0641
29685W        W45869  11.741  11.688   4.857 -0.1376 -0.0894 -0.0444
29686W        W45870   7.676   7.110   0.113 -0.2462 -0.2838 -0.2957
29687W        W45871   3.468  13.921  11.987  0.0843  0.0574  0.0578
29688W        W45872  13.949  15.001  12.995  0.1353  0.1355 -0.0386
29689W        W45873  17.715  12.842   1.285 -0.1107  0.0785 -0.3337
29690W        W45874   9.685  13.591   0.159 -0.0292  0.2434  0.1039
29691W        W45875   6.928   1.972   2.861  0.2036 -0.2264  0.0369
29692W        W45876  11.379   5.252   0.749 -0.1390  0.0732  0.2160
29693W        W45877   3.878   4.356   3.432 -0.1158 -0.2969  0.0001
29694W        W45878  11.461   4.614  16.566 -0.0748  0.3107  0.0157
29695W        W45879   0.120   3.243   1.475 -0.2170  0.5195 -0.1586
29696W        W45880  16.657   6.799   1.724  0.2190 -0.4129 -0.3217
29697W        W45881  17.626   1.442  15.604 -0.1489 -0.3460 -0.0449
29698W        W45882   5.465  12.642   2.344  0.1982  0.0017  0.2819
29699W        W45883   9.418   6.608   0.770 -0.0284 -0.0975  0.3977
29700W        W45884  10.350   4.481   0.364  0.1788 -0.1045 -0.1409
29701W        W45885   8.068  17.697   2.236 -0.3664 -0.0982  0.0541
29702W        W45886   3.807   6.707   3.618  0.1441  0.1528 -0.1419
29703W        W45887  12.291  12.992  13.688 -0.1162 -0.1494  0.2134
29704W        W45888   1.943  17.910   1.468  0.0268  0.1050  0.2715
29705W        W45889   0.721   4.694  13.018 -0.2349 -0.1471 -0.1280
29706W        W45890  14.716   9.884  11.432  0.0832 -0.2029 -0.0891
29707W        W45891   7.622  17.831   2.868  0.0980  0.7109 -0.0706
29708W        W45892  13.162   4.389  16.005 -0.0590  0.2526 -0.1862
29709W        W45893   6.769   4.566   2.849  0.2850 -0.2065  0.2994
29710W        W45894   7.871  17.491  12.077 -0.0556 -0.2077 -0.0234
29711W        W45895  14.292  13.423   1.453  0.0330  0.0393  0.2504
29712W        W45896  14.059   4.513  15.744  0.0294 -0.0192 -0.0015
29713W        W45897  12.735  10.226   4.951 -0.1139  0.3164  0.1712
29714W        W45898  11.917  15.095  15.351  0.0919  0.0862  0.0115
29715W        W45899   6.756   0.013  12.860  0.0573  0.0854 -0.1092
29716W        W45900   2.552   0.576   0.399  0.1479  0.0438 -0.0281
29717W        W45901   6.250  14.658  15.160  0.1722  0.5092 -0.1194
29718W        W45902   2.485   5.037  16.485 -0.2323 -0.1824 -0.3470
29719W        W45903  12.802  12.983  13.959  0.2235  0.0501  0.0412
29720W        W45904  16.138  14.530  12.373  0.0275  0.0342 -0.0249
29721W        W45905  16.125   3.418   4.640  0.1559 -0.0280 -0.0736
29722W        W45906   6.602   0.880   1.073 -0.1399 -0.1055  0.1336
29723W        W45907  17.106  17.357   1.474  0.1929 -0.0042  0.2368
29724W        W45908   6.574   4.655   3.437  0.1386  0.2277  0.1229
29725W        W45909   9.408  16.337   4.156  0.2734 -0.1049 -0.0699
29726W        W45910   6.917   3.991   3.777 -0.1954 -0.0514 -0.0495
29727W        W45911   0.018  14.660   4.797 -0.3902 -0.2208 -0.0020
29728W        W45912  16.555  17.911   2.243 -0.0614 -0.2226 -0.1756
29729W        W45913  15.586   1.594   0.692  0.0385  0.0694 -0.2847
29730W        W45914   0.011   8.294  14.343 -0.0252  0.1296  0.0118
29731W        W45915   1.325   7.248   0.923  0.0769  0.2185  0.1244
29732W        W45916  12.462   5.550   3.985 -0.1337  0.1928 -0.0495
29733W        W45917   4.548   0.071   2.960 -0.0570 -0.0796 -0.0740
29734W        W45918  10.387   0.389   5.601  0.1404 -0.0142  0.0860
29735W        W45919   3.144   4.272   4.328  0.0079 -0.0450  0.0140
29736W        W45920  16.435  15.389  12.965 -0.2674 -0.1797 -0.4640
29737W        W45921   2.928   0.730   0.099 -0.0094 -0.2047  0.0306
29738W        W45922   6.758  12.046   3.048 -0.2577  0.1976  0.0468
29739W        W45923  13.649   1.689   5.282 -0.2778  0.2547 -0.1214
29740W        W45924  15.288  12.743   5.621 -0.4025 -0.3185 -0.0871
29741W        W45925  16.876  10.693   4.764  0.0560 -0.1919  0.0629
29742W        W45926  15.757   5.636   2.572 -0.0520  0.0490  0.3300
29743W        W45927   0.297  10.251   5.675 -0.1232  0.0442 -0.1711
29744W        W45928  13.506   4.039  16.192  0.0347 -0.0389 -0.2990
29745W        W45929  14.960  11.435  10.723  0.0630 -0.3598  0.2438
29746W        W45930  13.498  14.265  13.513  0.0076  0.2112  0.0596
29747W        W45931  14.808   3.241   4.173  0.0339  0.0035  0.0187
29748W        W45932   1.741   4.448  16.307  0.2033 -0.0974  0.1328
29749W        W45933   1.245  17.288  13.293  0.0836  0.2582  0.1912
29750W        W45934   7.888   3.438  12.116 -0.1809  0.2661  0.3970
29751W        W45935   7.674  18.012   2.186 -0.1429  0.0197  0.0085
29752W        W45936   0.793  15.825  15.918  0.3268 -0.0369  0.2217
29753W        W45937   9.699  13.286  13.423  0.2655 -0.1438 -0.1655
29754W        W45938   9.731  12.863  10.883 -0.2577  0.0738  0.1563
29755W        W45939   2.005  17.518  15.460  0.1303 -0.5549 -0.2092
29756W        W45940   6.441  14.587   1.792  0.1450 -0.2907 -0.1024
29757W        W45941  17.633   2.636  11.096 -0.2667  0.2022  0.0607
29758W        W45942  10.184  14.581  12.282 -0.1075  0.0843  0.1084
29759W        W45943  11.302   6.267   5.269 -0.0138 -0.0420  0.1432
29760W        W45944   0.490   1.935   2.509  0.1441  0.2974  0.0876
29761W        W45945   4.819  16.346   6.001 -0.1750  0.3457 -0.0279
29762W        W45946  15.928   0.188   3.823 -0.2162  0.0755 -0.1151
29763W        W45947  12.634  16.018  12.341  0.0932  0.0928 -0.2674
29764W        W45948   5.547  15.053   5.680 -0.2123  0.0002  0.3700
29765W        W45949  15.343  17.964   3.046 -0.1873  0.0516  0.1786
29766W        W45950   7.446   9.883  16.128  0.0964 -0.0807  0.1420
29767W        W45951   6.379  11.058  15.069  0.0713  0.2058 -0.0815
29768W        W45952   2.204   1.277  14.248  0.1611 -0.2010 -0.2610
29769W        W45953  14.923  14.728  12.795 -0.2846  0.1969 -0.4150
29770W        W45954   3.568  16.697  12.330  0.0171  0.1389 -0.1048
29771W        W45955  14.341  11.055   4.709 -0.0587  0.1725 -0.0299
29772W        W45956  13.443  15.998   2.394 -0.0892 -0.0121 -0.1053
29773W        W45957  17.186   9.988  15.605 -0.0387  0.0061  0.0799
29774W        W45958   4.823   4.128  14.083 -0.2770  0.0690 -0.2009
29775W        W45959  17.126   7.061   4.475  0.1637 -0.1679 -0.2997
29776W        W45960   0.859  11.228   2.576 -0.0561  0.2091 -0.1269
29777W        W45961   9.550   0.836  15.491 -0.1000  0.1256 -0.1679
29778W        W45962  15.461   8.110   1.337 -0.1269  0.0140  0.0250
29779W        W45963   7.127   4.993   4.171 -0.0451 -0.4132  0.2797
29780W        W45964  13.226  18.116  12.894  0.0527 -0.0430 -0.0691
29781W        W45965  17.082  16.599  16.198  0.0116 -0.0429 -0.2780
29782W        W45966  12.964  13.867  12.807  0.0400 -0.4311 -0.0817
29783W        W45967  15.506   8.705   0.877  0.2617 -0.4718  0.1206
29784W        W45968   2.777  14.826   2.573  0.2222 -0.1189 -0.1600
29785W        W45969  10.060  16.793  10.593 -0.0419 -0.2053 -0.2142
29786W        W45970  18.037  10.050  16.250  0.1476 -0.2818 -0.2282
29787W        W45971   0.074  16.982   5.885  0.0186 -0.3165  0.3174
29788W        W45972   7.452  12.621  13.496  0.2367  0.1021 -0.1573
29789W        W45973   5.342  12.393   5.426 -0.0433  0.1620 -0.0056
29790W        W45974  10.873  17.753   1.408  0.2095  0.1291 -0.2413
29791W        W45975   5.250   3.023  14.799 -0.0478  0.0215  0.0288
29792W        W45976   7.485  12.784   4.818 -0.0013  0.1053  0.1197
29793W        W45977   5.039   0.134  15.906  0.0803 -0.0226 -0.4365
29794W        W45978   8.140   5.899  11.674 -0.2598 -0.3044  0.0451
29795W        W45979   7.180   9.891  13.528  0.0971 -0.0086 -0.0352
29796W        W45980   7.785  15.754   1.109 -0.4079  0.0470 -0.0677
29797W        W45981   6.826   6.933   5.265  0.0563  0.0778  0.0982
29798W        W45982   5.618  12.716   5.133 -0.2145  0.1738  0.0340
29799W        W45983   0.460   3.882   2.469  0.1439 -0.1444 -0.1130
29800W        W45984   8.016  14.808   1.605  0.2788 -0.1291  0.1279
29801W        W45985   5.882  10.745  11.744 -0.3750  0.0715 -0.0491
29802W        W45986  18.087   4.953   1.652  0.0766  0.3191  0.0598
29803W        W45987   2.727  17.058   3.209  0.2279 -0.0350 -0.1030
29804W        W45988   7.788  17.544  16.423 -0.0508  0.3567  0.0501
29805W        W45989   4.506   0.068  14.189  0.0183  0.0084  0.0401
29806W        W45990   3.953  14.605  13.848 -0.1627  0.2116 -0.3006
29807W        W45991   2.948   7.522   3.659  0.0174 -0.1816 -0.1577
29808W        W45992   9.354  17.478   5.163 -0.1152 -0.1902  0.1234
29809W        W45993   2.882  13.881   2.601  0.0916 -0.1071  0.0385
29810W        W45994   2.095  11.355   4.958 -0.0643  0.0656  0.0447
29811W        W45995  15.194  13.990   4.565 -0.0635  0.0109 -0.1283
29812W        W45996  11.134  14.219   5.208  0.1471  0.0816 -0.1589
29813W        W45997   5.110  15.219   3.662 -0.1161 -0.2587 -0.0003
29814W        W45998   5.644  16.743  13.529 -0.2982  0.0423  0.0785
29815W        W45999  11.129   1.679   1.777 -0.1128  0.0196 -0.1929
29816W        W46000  13.862   4.106  11.014  0.1046 -0.2167  0.0019
29817W        W46001  11.627   4.972  15.415 -0.1175  0.3272 -0.0267
29818W        W46002  10.849  16.774  11.334  0.0890 -0.1099  0.2912
29819W        W46003   7.819   8.674   2.817  0.0473  0.1803 -0.1041
29820W        W46004   1.947  15.634   5.499  0.0251  0.2351 -0.0712
29821W        W46005   1.122   2.074  15.730 -0.2013  0.0333 -0.0428
29822W        W46006  16.464  10.155  12.957  0.0793 -0.2039 -0.0543
29823W        W46007   0.393  13.409   5.320  0.0574  0.3425  0.1132
29824W        W46008   2.179   9.800   1.831 -0.2045 -0.2713  0.0754
29825W        W46009   7.196   5.510  10.866  0.2024 -0.1642 -0.0258
29826W        W46010  11.854   0.418   4.697 -0.1095  0.1150  0.2201
29827W        W46011   9.881   9.103   2.991 -0.2413 -0.1059 -0.1932
29828W        W46012  11.418  12.928  15.300 -0.0888 -0.1354  0.2457
29829W        W46013  13.360  12.713  13.348 -0.0107 -0.1425 -0.1472
29830W        W46014   8.897   1.941   2.780 -0.1289  0.0074 -0.0081
29831W        W46015  11.860   0.447   3.640  0.1980 -0.1139  0.1198
29832W        W46016  14.119   7.250  13.036 -0.0652  0.1359 -0.1089
29833W        W46017   7.145  13.410   3.354  0.2241  0.4991  0.0966
29834W        W46018   3.638  17.489  16.508  0.0282 -0.2024 -0.1585
29835W        W46019  16.632  16.182   1.215 -0.0544  0.0953  0.3843
29836W        W46020   3.664   7.824   0.520  0.0736 -0.0697  0.0053
29837W        W46021   6.454  17.145   0.536  0.1779  0.2790  0.1340
29838W        W46022  15.416  13.797   4.954 -0.1148  0.0688 -0.1659
29839W        W46023   8.538  13.437   6.253 -0.0046 -0.0062  0.0098
29840W        W46024   0.032   9.636  12.529  0.0229  0.1014  0.0622
29841W        W46025   4.930   3.308  11.783 -0.0343  0.2321 -0.0956
29842W        W46026  11.039   2.048  12.528  0.0230 -0.1425  0.0406
29843W        W46027  15.681  10.638  14.586  0.1159 -0.0950  0.0650
29844W        W46028  17.387   7.474   2.972  0.1254  0.2206 -0.1195
29845W        W46029   3.539   9.372  16.391  0.0394  0.3009 -0.1483
29846W        W46030   1.658   6.681  13.980  0.2307  0.1958 -0.1539
29847W        W46031  12.362   8.310   5.337  0.3212 -0.1466  0.1757
29848W        W46032   6.502   4.832   2.533 -0.0820  0.0577  0.0215
29849W        W46033   2.671   6.546  16.317 -0.2365  0.2619  0.2681
29850W        W46034   0.381  17.445   5.084  0.0289  0.1121 -0.3231
29851W        W46035   7.864   3.540  15.344  0.1715  0.0554 -0.0661
29852W        W46036   6.255   8.134  15.928  0.2550  0.1379  0.2239
29853W        W46037   6.448   7.066   4.779 -0.2333 -0.0559 -0.3267
29854W        W46038   9.638  17.189  12.843 -0.0735  0.4638 -0.2482
29855W        W46039   6.456   3.306  11.818  0.0326  0.0502 -0.0447
29856W        W46040  16.154   4.332   0.273 -0.2614 -0.2039  0.0973
29857W        W46041  16.419   8.083  11.236  0.1986 -0.1238  0.1134
29858W        W46042   2.677  13.534   2.884  0.2739 -0.2200  0.1007
29859W        W46043  14.643   2.456  13.519 -0.1879 -0.1803 -0.0862
29860W        W46044   7.062  10.673   0.594  0.1112 -0.1654 -0.1851
29861W        W46045   6.430   6.709  15.898  0.3428  0.1627 -0.0198
29862W        W46046   0.305   2.337  13.321 -0.1131 -0.0589  0.0192
29863W        W46047  12.053   0.448  14.193 -0.0658 -0.2497  0.0169
29864W        W46048   9.270  12.622   4.855  0.0142 -0.0637  0.1282
29865W        W46049   8.838  13.171  16.163 -0.2291 -0.0955 -0.0430
29866W        W46050   5.024   3.683  16.661 -0.0786 -0.1393 -0.2505
29867W        W46051  12.500  18.095  12.587  0.1736  0.1384 -0.5421
29868W        W46052   2.742  10.644  16.213 -0.1818 -0.0927  0.0401
29869W        W46053  11.677   9.843  14.653  0.2392 -0.1888 -0.1438
29870W        W46054   6.104  13.865  13.985 -0.1644  0.1036 -0.1092
29871W        W46055   5.877   8.530  13.019  0.1515  0.1449  0.1283
29872W        W46056   4.254   3.241   2.604  0.1477  0.3752 -0.1244
29873W        W46057   1.083   3.844   3.815 -0.1067 -0.3033  0.1384
29874W        W46058  16.347  15.127  16.239  0.2605 -0.0677  0.0279
29875W        W46059   1.694   4.954   1.054  0.1232  0.0654 -0.0120
29876W        W46060   8.874   7.000   5.365  0.1194  0.1024  0.2010
29877W        W46061  13.430   4.910   2.244 -0.2264  0.1409 -0.0093
29878W        W46062   2.151   1.128  11.543  0.2389  0.1350 -0.3108
29879W        W46063  16.287   1.251  12.109  0.4383  0.1422  0.0953
29880W        W46064  17.013   2.404  12.832 -0.1501  0.1973 -0.2975
29881W        W46065  13.934  14.275   4.160 -0.1551 -0.3540 -0.0152
29882W        W46066  13.570   6.098  15.201 -0.2662  0.2472  0.1077
29883W        W46067  14.034   9.753  12.820  0.1191  0.3114  0.3111
29884W        W46068   0.140   6.379  11.172  0.2299 -0.2369 -0.0797
29885W        W46069  11.616  13.803   2.570  0.0970  0.0415 -0.1815
29886W        W46070   6.340   4.879   1.641 -0.0288  0.0176 -0.1427
29887W        W46071   1.584  16.365  10.617  0.0988  0.2994  0.1907
29888W        W46072   8.932   1.991  16.299  0.2684 -0.2811 -0.1652
29889W        W46073   7.158   6.116   4.819  0.0521  0.2691  0.0734
29890W        W46074   0.079   9.570  16.383  0.1837  0.1309  0.1746
29891W        W46075   2.949   9.047  15.155 -0.1519  0.1785  0.1084
29892W        W46076   7.878   7.179  15.245  0.0593 -0.2532 -0.1552
29893W        W46077   0.847   8.172  16.612  0.2538 -0.0648  0.0301
29894W        W46078   3.587  11.729   1.631  0.0389  0.0812  0.2619
29895W        W46079   1.339   7.852  11.543 -0.0808 -0.1628  0.0452
29896W        W46080  11.408   6.306   2.597  0.0997 -0.1839 -0.2758
29897W        W46081   4.258  13.853  12.404 -0.2041  0.1728 -0.1023
29898W        W46082   9.633   8.836   0.620  0.2337  0.3456  0.2473
29899W        W46083   7.712  17.965  12.672 -0.1341 -0.1343 -0.1664
29900W        W46084   1.152  14.194  15.406  0.3909 -0.0240 -0.0437
29901W        W46085   5.737  16.157  13.402 -0.0398  0.0693 -0.0870
29902W        W46086   4.727   5.105   0.486 -0.2226  0.1436  0.1303
29903W        W46087   4.350   1.161   0.474  0.4014  0.2131  0.1268
29904W        W46088  10.425   3.039   1.710 -0.4220  0.0466  0.0774
29905W        W46089  14.798   7.726  11.830 -0.1832  0.0762  0.0779
29906W        W46090  16.649   0.036  14.348 -0.0771  0.4402 -0.0440
29907W        W46091   5.270  13.389  11.786 -0.0553  0.2503 -0.0719
29908W        W46092   6.510  12.377  12.051  0.1726 -0.0012  0.3970
29909W        W46093  12.219   8.033  14.230 -0.2540 -0.0840 -0.2413
29910W        W46094  16.280   3.039  15.334  0.1359 -0.0866 -0.0198
29911W        W46095   7.348  15.037  12.023 -0.1532 -0.0748 -0.3051
29912W        W46096  15.533  15.732   5.099 -0.1988  0.1123 -0.0050
29913W        W46097  10.737   0.893   6.554 -0.0811  0.0385  0.1111
29914W        W46098  16.936   9.334   1.875  0.0332  0.1064  0.0695
29915W        W46099   2.339   1.917  14.997  0.2081  0.3179 -0.0819
29916W        W46100  17.304   9.152   4.093  0.0420 -0.5699  0.1496
29917W        W46101   7.278  14.403   0.667 -0.0564  0.0324 -0.0298
29918W        W46102   4.571  17.886   3.415  0.2720  0.2452  0.1650
29919W        W46103  15.944   2.793   3.638 -0.0616 -0.0378  0.0555
29920W        W46104   8.099   9.094   4.798 -0.1663  0.1131  0.4326
29921W        W46105  10.133   0.331   3.980 -0.0736  0.2584 -0.0808
29922W        W46106   0.324  15.481   5.168 -0.1518 -0.2389 -0.2392
29923W        W46107  13.327  16.719   5.801  0.4782 -0.1459 -0.1312
29924W        W46108  11.669   5.595  13.819 -0.0620 -0.0207 -0.0135
29925W        W46109   7.600   9.898   4.328  0.1732 -0.5701  0.2047
29926W        W46110   2.865   8.723  13.639  0.0589  0.0482 -0.1518
29927W        W46111   3.045   3.453  11.112 -0.1080 -0.1905  0.0660
29928W        W46112  11.173  12.601   3.598 -0.1420  0.5063  0.0401
29929W        W46113   4.201   7.881   3.504  0.0998  0.2347  0.0169
29930W        W46114   1.634  18.093   0.579  0.1148  0.2691  0.1851
29931W        W46115  11.315   9.480  12.364 -0.1716 -0.1765 -0.2523
29932W        W46116   9.836  17.555   5.018 -0.0203  0.1933 -0.1003
29933W        W46117   2.160  12.833  12.537 -0.0330 -0.0449 -0.0395
29934W        W46118  17.987  14.593   6.224  0.0038  0.0331 -0.0451
29935W        W46119  14.434  14.743  14.643 -0.1512  0.1044 -0.1201
29936W        W46120   3.224  15.281   5.557  0.1822 -0.3324 -0.2342
29937W        W46121  17.522   3.708  15.224  0.0172 -0.1404  0.2243
29938W        W46122  13.134   1.851  16.282  0.1265 -0.1880 -0.2283
29939W        W46123   2.189  13.505   2.990  0.2706 -0.3362 -0.1490
29940W        W46124   8.374  13.363  14.116  0.3233  0.0525 -0.0641
29941W        W46125   4.397  11.830   4.348  0.0222 -0.1544 -0.2032
29942W        W46126   2.170   8.670  13.031 -0.2750  0.0348  0.1949
29943W        W46127   2.194   0.936   5.115 -0.1225  0.0275 -0.1692
29944W        W46128   2.752   7.591  15.361  0.0625 -0.0605 -0.2150
29945W        W46129   4.119   4.271  11.685  0.3075  0.0840 -0.2799
29946W        W46130  14.414  13.255   1.894  0.1119 -0.1528 -0.0411
29947W        W46131   9.480  16.295   4.679  0.2027  0.2060 -0.2625
29948W        W46132  11.660   6.782   5.263  0.3151  0.2375  0.1893
29949W        W46133  11.345  17.946   1.513  0.0560  0.1667 -0.0684
29950W        W46134  10.834   1.483   2.116  0.0824 -0.0107  0.0223
29951W        W46135   4.787  14.026   6.104 -0.0683  0.1388  0.1959
29952W        W46136   7.978  15.968  13.997  0.2483 -0.1236 -0.0253
29953W        W46137  13.513   6.389  12.064 -0.3519 -0.0000 -0.1192
29954W        W46138   4.672   2.356  15.806 -0.0167 -0.0596 -0.2463
29955W        W46139  15.959   8.313   1.980 -0.0461 -0.1026  0.1354
29956W        W46140   4.786  11.334   0.417  0.0897 -0.3038 -0.1007
29957W        W46141  11.212  13.762   3.965 -0.1001  0.1859  0.2743
29958W        W46142  12.558   4.568  11.567 -0.1614 -0.1600  0.0495
29959W        W46143  10.695  14.517   2.241 -0.1382 -0.6149  0.0452
29960W        W46144  13.577  16.478  15.056  0.0336 -0.3480  0.0652
29961W        W46145  10.407  16.732  15.822 -0.2524  0.3471 -0.1967
29962W        W46146   7.635   3.864  13.076  0.0995 -0.3178  0.5782
29963W        W46147  11.851   4.571   2.040  0.0291  0.3427  0.3712
29964W        W46148   3.064   6.523   1.279  0.1430 -0.0668 -0.1587
29965W        W46149   0.863  17.904   3.782  0.1230 -0.3198 -0.1370
29966W        W46150   1.112   9.270  12.451  0.3506 -0.0229  0.0180
29967W        W46151  12.884  15.829  11.955 -0.0069  0.0513  0.0199
29968W        W46152   1.356   0.937   1.059 -0.2210 -0.0770 -0.2472
29969W        W46153   5.684   7.108  14.895 -0.1803  0.0318  0.3211
29970W        W46154  15.260  17.727   4.619 -0.1701  0.2973 -0.0489
29971W        W46155   6.661  17.713   2.207  0.2939  0.0556 -0.2677
29972W        W46156   1.471   6.147   1.545 -0.1139  0.0786 -0.0083
29973W        W46157  14.562   7.957   1.236 -0.1663  0.0054  0.0718
29974W        W46158   5.567   6.506  15.646 -0.1711 -0.1715  0.0004
29975W        W46159   2.605  17.287   0.922  0.1472 -0.1231 -0.1477
29976W        W46160  16.893  11.893   1.788 -0.0847 -0.2504  0.0331
29977W        W46161  15.345   7.966  13.809 -0.3720 -0.1050  0.0996
29978W        W46162  15.965   1.091   1.833  0.1074 -0.2033  0.1319
29979W        W46163  15.219  16.953   0.835 -0.1460  0.2464 -0.0526
29980W        W46164   6.373  15.512   0.030  0.2869 -0.2776  0.0270
29981W        W46165  16.235  15.388   2.491 -0.1591  0.2155 -0.0098
29982W        W46166   8.094  15.766   0.558 -0.0415 -0.2277 -0.0832
29983W        W46167   2.444   7.292  14.629 -0.1949  0.3649 -0.1470
29984W        W46168   5.643   6.395   5.817 -0.2491 -0.0951  0.0655
29985W        W46169  13.858  10.845   4.638  0.0792  0.0947  0.0224
29986W        W46170  10.983  16.495   0.739  0.0418 -0.2264  0.1653
29987W        W46171  14.842   0.856  14.344 -0.0834  0.0653  0.0192
29988W        W46172   9.630  13.079   0.437 -0.0417  0.1949 -0.0726
29989W        W46173  16.238  13.176  13.167  0.0175 -0.0102 -0.0955
29990W        W46174   4.097  11.648  15.868  0.0359 -0.1501 -0.2216
29991W        W46175   6.120   9.018   3.268 -0.1693 -0.0761 -0.0783
29992W        W46176   3.364  12.818   2.454 -0.1053 -0.1561 -0.1464
29993W        W46177  14.139  15.161   4.940  0.1133 -0.1775 -0.2849
29994W        W46178   7.442  17.599  11.828  0.1335  0.0209  0.0686
29995W        W46179   8.420   2.438   2.198 -0.2038  0.1491  0.0751
29996W        W46180  12.875  11.606  14.326 -0.0528 -0.0280 -0.1668
29997W        W46181   1.357  15.896   0.997 -0.1543  0.1148 -0.0680
29998W        W46182  14.984   2.696  10.530  0.2345  0.0240  0.1252
29999W        W46183  17.495  12.909  12.641  0.0305  0.2679 -0.1468
30000W        W46184   5.153   1.810  16.359  0.1470  0.3144 -0.2577
30001W        W46185  14.369  13.779   1.975 -0.0448 -0.1804  0.0150
30002W        W46186  10.379   8.743  13.622  0.0590  0.0919 -0.1803
30003W        W46187  17.566   7.047   0.942 -0.0159  0.0702 -0.1711
30004W        W46188   4.074   6.245   4.646  0.1603  0.0380 -0.0367
30005W        W46189  16.856  10.239   2.888 -0.0705  0.3119 -0.0098
30006W        W46190  15.432   7.307   5.169  0.1836 -0.0393  0.0788
30007W        W46191   4.628   3.351  12.661 -0.1111  0.4468 -0.1408
30008W        W46192   0.917  17.293  14.818  0.2671 -0.1726  0.2765
30009W        W46193  14.266   0.140  12.577 -0.4982  0.0157 -0.1412
30010W        W46194   2.991  16.406  16.096 -0.3070  0.4062 -0.2702
30011W        W46195   9.399   8.289  15.259  0.0299  0.0338  0.0905
30012W        W46196  13.257  12.226   2.295  0.3573  0.2737  0.1255
30013W        W46197   0.835  13.057  10.712 -0.0175 -0.0569 -0.3900
30014W        W46198   4.145  16.759  16.560 -0.3667  0.0098  0.1389
30015W        W46199   9.965   7.909  14.071  0.1201 -0.2471  0.0654
30016W        W46200   5.710  11.877   4.784  0.1637  0.2010  0.2506
30017W        W46201  11.121  15.477   3.128  0.1920 -0.5346  0.1211
30018W        W46202   1.565  12.936   2.435  0.0853  0.0427 -0.0787
30019W        W46203   3.876   1.958   4.578  0.1287  0.1130  0.1413
30020W        W46204  16.505  10.243   1.739 -0.2112 -0.0186  0.1896
30021W        W46205   3.651  10.773   4.212 -0.1045  0.1993  0.1439
30022W        W46206   8.626  14.205   2.814  0.0623  0.0992  0.2140
30023W        W46207  13.423  12.499  14.786 -0.0374  0.5611  0.2017
30024W        W46208  14.650  17.294   4.491 -0.0225 -0.0149 -0.1437
30025W        W46209  14.511  10.424  16.046  0.0221  0.3408 -0.0356
30026W        W46210   0.769  17.844   2.691 -0.0203  0.0548 -0.1013
30027W        W46211   0.508   0.660  11.742 -0.3499 -0.0018 -0.0474
30028W        W46212  13.120   2.339  12.599  0.2216  0.0798 -0.0210
30029W        W46213   2.282   0.341   2.696 -0.3779  0.0848  0.0405
30030W        W46214  10.723  17.541   0.066  0.2972  0.2371 -0.1671
30031W        W46215   9.424   0.709   3.442 -0.0904 -0.3324 -0.1593
30032W        W46216   6.924   1.247   3.329  0.0401 -0.2385  0.3636
30033W        W46217   1.495   7.421  11.906  0.2256 -0.2474  0.1003
30034W        W46218  16.203   7.615  11.995  0.0084  0.2721 -0.0418
30035W        W46219  16.168  11.852  11.764 -0.0919  0.2750  0.1055
30036W        W46220  17.398   4.174   0.342 -0.1868  0.1773 -0.0313
30037W        W46221   7.295  11.021   0.951 -0.0946  0.1503 -0.0747
30038W        W46222  11.577  14.803   3.925  0.1696  0.0016  0.3085
30039W        W46223   9.982   4.719  13.554  0.1121 -0.3280 -0.1036
30040W        W46224  13.595  15.194   3.856  0.0895  0.2320 -0.2886
30041W        W46225  11.821  14.516   0.304 -0.2161  0.1864  0.1322
30042W        W46226  18.109  17.525  15.103 -0.0065 -0.0407 -0.1969
30043W        W46227   2.687  13.318  12.914 -0.0399 -0.1730  0.1476
30044W        W46228   9.840  16.733  14.340  0.3255  0.4191 -0.0523
30045W        W46229   4.657   3.083  14.887 -0.1228  0.0314  0.1419
30046W        W46230  11.147   0.188  15.611  0.3401 -0.0503  0.1093
30047W        W46231   4.432  13.277  15.151 -0.2330 -0.2344 -0.1096
30048W        W46232   1.849  10.623   4.450  0.1280 -0.1014  0.0834
30049W        W46233   4.789  13.239   2.526  0.0078 -0.1489  0.0009
30050W        W46234  11.470   0.220   3.319  0.2413  0.2173  0.0310
30051W        W46235  15.269  12.888  13.073 -0.0448 -0.0522  0.1895
30052W        W46236  16.098   4.831   4.895  0.2820  0.1180  0.1779
30053W        W46237   2.915  10.220  11.711 -0.0933 -0.1121 -0.0603
30054W        W46238   5.404  14.893   3.886 -0.0006  0.3191  0.2403
30055W        W46239   0.509  12.746  14.201  0.2272 -0.4085 -0.0298
30056W        W46240   0.205   3.120   0.569  0.0866 -0.1099  0.0852
30057W        W46241   1.228  10.319   2.766 -0.0176 -0.1316  0.1092
30058W        W46242  14.550  14.527  15.369  0.0801  0.1056 -0.1239
30059W        W46243  14.977  10.505  12.668  0.1047  0.0622 -0.1769
30060W        W46244  18.073   0.021   3.641 -0.0091  0.0020  0.0075
30061W        W46245  16.299   7.591   0.641  0.0320 -0.3323 -0.1596
30062W        W46246   1.167  13.878  16.149 -0.0049  0.0444  0.0474
30063W        W46247   1.517  13.223   3.699  0.1892  0.1916  0.2207
30064W        W46248   2.838  11.717   1.886  0.0171  0.3004 -0.1888
30065W        W46249   3.186  14.927   4.421  0.1343  0.1191  0.0501
30066W        W46250   2.631  15.596   0.620 -0.0486  0.1105  0.3290
30067W        W46251  12.912   1.122   3.048  0.1918  0.0096  0.0282
30068W        W46252   7.324  11.766   5.288  0.0493  0.0638 -0.3405
30069W        W46253   4.368   0.539  14.008 -0.1564 -0.1982  0.0708
30070W        W46254  10.793  17.591   3.538  0.0808  0.2192 -0.2116
30071W        W46255   9.663  11.286   2.046 -0.1047 -0.2650  0.1797
30072W        W46256  12.761   8.374  11.997  0.2216  0.1335  0.0925
30073W        W46257  11.571   5.841   1.644 -0.1858  0.2030 -0.2860
30074W        W46258   0.188   4.907   2.150  0.0108 -0.1263 -0.1259
30075W        W46259  15.128  12.422  11.591 -0.0020  0.2102  0.2966
30076W        W46260  11.840  11.297   2.080  0.4028 -0.4658  0.2300
30077W        W46261   1.912   9.925   3.736  0.0910 -0.0469 -0.2354
30078W        W46262   5.331  15.316   0.118 -0.2095  0.1214 -0.2095
30079W        W46263  17.707  14.413  13.412 -0.1488  0.1372  0.0206
30080W        W46264   2.229   8.920  11.310 -0.0254 -0.2074 -0.0538
30081W        W46265   6.923   3.647  15.731  0.0796 -0.3320  0.0924
30082W        W46266   3.321  16.521   4.908 -0.0799 -0.1084 -0.1721
30083W        W46267   9.796  13.229   4.212 -0.1275 -0.2035 -0.0638
30084W        W46268  14.715   3.690  11.758 -0.0428  0.1944 -0.4023
30085W        W46269  10.918   9.913   2.847 -0.1501 -0.0463  0.2836
30086W        W46270   2.646   6.215  14.113  0.0671 -0.2930  0.1516
30087W        W46271  11.249   9.079   2.402  0.3485 -0.2075 -0.0290
30088W        W46272   2.015  17.063   4.414 -0.0734  0.0076 -0.2207
30089W        W46273  14.309  13.384  14.232  0.0513  0.1627  0.1733
30090W        W46274   8.874   9.480   1.417 -0.0348 -0.1482 -0.2392
30091W        W46275   8.003   0.057  13.501 -0.2446  0.2324  0.0828
30092W        W46276  14.518   8.967   1.292 -0.0602  0.0430 -0.0603
30093W        W46277  16.633  12.874   3.411  0.2440 -0.2029  0.0380
30094W        W46278   7.150  12.008  15.525 -0.0763  0.5453  0.0679
30095W        W46279   2.942   3.600  14.562 -0.3933  0.1142  0.1869
30096W        W46280   6.870   1.343   2.131  0.3525 -0.0716 -0.2083
30097W        W46281  13.727   5.976  15.742  0.1524 -0.1564 -0.2965
30098W        W46282  14.145   9.418  15.115 -0.3465  0.2890  0.1396
30099W        W46283   2.088   5.170  15.275 -0.0614  0.2433 -0.2077
30100W        W46284   9.983   1.914   0.392 -0.0089  0.0538 -0.3060
30101W        W46285  11.127   9.480  13.322  0.0368  0.1472  0.2206
30102W        W46286   3.329  11.365  11.914 -0.1060 -0.1094  0.3489
30103W        W46287  16.441  12.078   4.195 -0.1804  0.0045  0.0003
30104W        W46288  10.802  11.762   3.902  0.1531 -0.1396 -0.0846
30105W        W46289   9.634   9.770  12.143  0.2454 -0.1990  0.0303
30106W        W46290  14.935   4.392  13.747 -0.1142 -0.1286 -0.1421
30107W        W46291  15.108  11.500  16.618 -0.3099 -0.3387 -0.2137
30108W        W46292   2.847  15.737  11.837  0.1388  0.0338 -0.0172
30109W        W46293   1.572  17.379  12.364 -0.3442 -0.2980  0.0745
30110W        W46294   9.324   1.483   3.607  0.2610  0.0864 -0.2100
30111W        W46295  11.319   3.216   1.189 -0.1173  0.0635 -0.1566
30112W        W46296   1.590  10.465   1.748  0.2779 -0.2862 -0.2824
30113W        W46297   7.030   2.038  13.374 -0.3416 -0.1008 -0.0558
30114W        W46298  12.582  14.178   1.758  0.1347 -0.0014  0.0308
30115W        W46299   7.883  17.081   0.093 -0.1073  0.0049  0.0674
30116W        W46300  15.101   1.642  14.157 -0.1749 -0.2731  0.1250
30117W        W46301  14.012  13.610   0.168 -0.0899 -0.1366 -0.0614
30118W        W46302  14.142   2.033   2.942 -0.1324  0.1214 -0.2490
30119W        W46303   4.952   2.618  14.861 -0.0310 -0.1945 -0.1229
30120W        W46304  12.979  11.821  15.400  0.0700 -0.0890 -0.2053
30121W        W46305   0.670   2.656  15.080  0.3095 -0.0004  0.1972
30122W        W46306   3.588  17.373   6.157  0.0009 -0.2793  0.0400
30123W        W46307  10.056   3.313   1.931  0.3279  0.1616  0.0775
30124W        W46308   1.610   9.464   2.457  0.0614 -0.1496  0.0084
30125W        W46309  15.361   5.158  14.355 -0.2831  0.0002 -0.2439
30126W        W46310   8.055  16.003   3.909  0.1094  0.2382  0.1825
30127W        W46311   8.499   4.835   4.336  0.2894  0.4388 -0.2109
30128W        W46312   9.383   4.893   0.794  0.0318 -0.0413  0.4716
30129W        W46313   5.333   1.260   5.639  0.1717 -0.5532  0.0611
30130W        W46314   6.341   6.169   2.160 -0.2286 -0.0768  0.0698
30131W        W46315   3.899  14.241   5.774  0.2226 -0.0284  0.3364
30132W        W46316  10.967   3.104   6.036  0.0892 -0.2046 -0.0357
30133W        W46317  17.050   5.984   5.007 -0.4647  0.3503  0.2551
30134W        W46318   1.197   2.232  13.570 -0.1712 -0.0448 -0.1880
30135W        W46319  10.160  15.285  13.026 -0.1796 -0.1334 -0.1116
30136W        W46320  15.575  10.078  14.774 -0.3845  0.2317  0.2618
30137W        W46321  17.633   2.144   0.947 -0.0742 -0.0049  0.1498
30138W        W46322  17.715  13.141  12.150 -0.2670 -0.0623 -0.1020
30139W        W46323   3.878  17.386  15.022 -0.4651 -0.0357  0.0536
30140W        W46324  17.241   4.966   5.062 -0.4010  0.1731  0.2727
30141W        W46325   0.679   0.744  15.347  0.1673  0.0577 -0.0524
30142W        W46326   0.730   9.728  15.090 -0.0575 -0.1909  0.0984
30143W        W46327   7.633  11.867  14.357  0.1005  0.2822  0.0833
30144W        W46328   2.766   8.730  16.574  0.0038 -0.0704 -0.1261
30145W        W46329   7.429  16.838   3.939 -0.0937 -0.1647  0.1327
30146W        W46330   2.289  17.214   1.857 -0.2685 -0.1711  0.1576
30147W        W46331  17.740   7.231  15.576  0.0642 -0.2480  0.1819
30148W        W46332   2.195   6.538  15.040  0.1178 -0.1133  0.0660
30149W        W46333  10.799   0.304  13.260 -0.1101 -0.2553 -0.0326
30150W        W46334  12.864   1.740   3.944 -0.0520  0.2970  0.1299
30151W        W46335  15.795   4.800  12.338 -0.0846 -0.0988 -0.1873
30152W        W46336   4.258   6.467  15.151 -0.2713 -0.2538 -0.1617
30153W        W46337   7.192   6.936   4.080  0.5257  0.1808 -0.0018
30154W        W46338  15.214   8.615   3.017  0.1311  0.0412  0.2171
30155W        W46339  15.069  17.613   5.222  0.3015  0.0239 -0.2335
30156W        W46340  11.410   6.273   5.906 -0.0037  0.2166 -0.0777
30157W        W46341   6.450   6.147   0.816  0.0811 -0.0712 -0.0743
30158W        W46342   3.036   0.818  12.997 -0.1849 -0.1817  0.0563
30159W        W46343   7.197  14.732   5.504 -0.2100  0.0846 -0.1711
30160W        W46344  11.427  12.134  14.756  0.1961  0.0527 -0.1294
30161W        W46345   6.317   1.382   4.002 -0.1208  0.0518 -0.2664
30162W        W46346  14.531  11.730   2.857  0.0342  0.1973  0.0065
30163W        W46347   2.668  16.857   4.659 -0.1076 -0.1650 -0.1464
30164W        W46348  10.577  14.423   3.121 -0.2132 -0.0453 -0.2159
30165W        W46349  14.876  16.666  15.609  0.0849  0.0084  0.1698
30166W        W46350   9.595  17.936  13.136 -0.2020 -0.5266  0.1565
30167W        W46351   1.186   7.363   5.760  0.1123 -0.1450  0.1148
30168W        W46352   5.753   7.485  15.280 -0.4745 -0.1687  0.1155
30169W        W46353  13.676   6.439   5.275  0.3881 -0.1459 -0.2465
30170W        W46354  15.850   7.418   0.693  0.1497 -0.0662 -0.0194
30171W        W46355  11.948   4.725  14.591  0.1396 -0.0102  0.1510
30172W        W46356  12.934   1.830   4.927  0.0005  0.4134  0.0520
30173W        W46357  14.437  15.230   2.949  0.0777 -0.1731 -0.1089
30174W        W46358  12.336  14.582  13.200  0.2486  0.0177 -0.2140
30175W        W46359  17.627  15.436   1.562  0.1927  0.1033 -0.2708
30176W        W46360   3.234   1.360  14.544  0.1921  0.0089 -0.0507
30177W        W46361  16.860  10.662   6.346 -0.0812 -0.0739 -0.0394
30178W        W46362  13.194   8.499   0.417  0.0288  0.1167 -0.1143
30179W        W46363   9.683   8.937   2.069  0.0522 -0.1067  0.1597
30180W        W46364  16.114  10.336   4.009  0.0289 -0.0595  0.1181
30181W        W46365   0.686  11.009  14.085 -0.0620 -0.0657  0.2852
30182W        W46366   3.384   5.660  11.304  0.2262  0.1045 -0.2198
30183W        W46367   2.083   2.151  14.178 -0.0075  0.4001 -0.0377
30184W        W46368  14.773   8.334   1.976 -0.0352  0.0719 -0.0415
30185W        W46369   6.063  15.762   0.291 -0.0973 -0.0892 -0.0016
30186W        W46370  12.712   0.991   0.397 -0.1711  0.0786 -0.0162
30187W        W46371   6.585   6.457  12.166  0.1212 -0.1610  0.0359
30188W        W46372  10.144  14.177   4.977  0.1296  0.0066 -0.1177
30189W        W46373   1.686  10.620  12.077  0.0595 -0.2451  0.0199
30190W        W46374   1.718  17.510   0.447  0.0497  0.0260 -0.1529
30191W        W46375  11.568   9.458   0.197 -0.1895  0.1749 -0.0873
30192W        W46376   3.481   5.506  11.766 -0.0299 -0.0097 -0.0024
30193W        W46377   9.388  12.854  12.418 -0.1286 -0.2657 -0.1889
30194W        W46378   9.930  15.676  11.699 -0.2271 -0.2690  0.1925
30195W        W46379   8.583  14.903   5.242 -0.1617 -0.0023  0.3063
30196W        W46380  15.775  17.092  16.620  0.0630 -0.1538 -0.0086
30197W        W46381  16.615   1.365  12.494 -0.1527 -0.3251  0.2705
30198W        W46382   1.480   1.505  13.953  0.2658 -0.1689  0.3117
30199W        W46383   4.262  15.307  16.111 -0.0099 -0.2027  0.1097
30200W        W46384   5.091  10.010   0.422  0.3310 -0.1542 -0.1406
30201W        W46385  15.690  10.902  15.270 -0.0682  0.2995  0.2979
30202W        W46386   1.126  11.592   4.458  0.0841  0.1826 -0.0865
30203W        W46387  15.287   6.604  13.771 -0.4008 -0.0693  0.0841
30204W        W46388  11.985   5.882  12.901  0.3006  0.1520 -0.0007
30205W        W46389  12.338  11.835  14.457  0.0462  0.1972 -0.1192
30206W        W46390  12.551   0.525   4.211  0.0879  0.0823  0.4237
30207W        W46391   1.126  14.307   2.793  0.1520  0.5698  0.1517
30208W        W46392   8.173  17.805  12.291 -0.2594  0.1025  0.0648
30209W        W46393   1.843  17.622   4.958 -0.2717  0.2216 -0.0818
30210W        W46394  10.659  10.527   6.419  0.1545  0.1313  0.0333
30211W        W46395   4.150  11.960  13.072  0.0668  0.0665  0.0092
30212W        W46396  11.829   4.507  11.303  0.3820  0.0165 -0.0732
30213W        W46397   8.963   4.333  12.597  0.0474 -0.0941  0.0594
30214W        W46398  17.655   5.423   3.850  0.0533 -0.2972 -0.0504
30215W        W46399   6.506  16.804   5.422  0.0055 -0.1510 -0.2391
30216W        W46400   0.577   4.874  15.254  0.2688 -0.0905  0.1321
30217W        W46401  14.112  12.131  14.487  0.0503 -0.0030 -0.1560
30218W        W46402  12.171  10.943  15.950  0.3258  0.4960  0.1483
30219W        W46403  15.928   6.983  10.791 -0.0873  0.2609 -0.0405
30220W        W46404  16.503  11.147   0.647 -0.1618 -0.0044 -0.0631
30221W        W46405   9.035   2.908   0.156 -0.1373 -0.1665 -0.2268
30222W        W46406   2.602  16.164   3.044  0.0869 -0.1983  0.3443
30223W        W46407   5.259  10.245   4.870  0.1149  0.1160 -0.2633
30224W        W46408   1.854   6.696  16.292 -0.3748  0.1301 -0.1877
30225W        W46409  14.511  10.381  14.412 -0.0341  0.0562  0.0059
30226W        W46410   8.678  15.349  14.128 -0.0462 -0.0432 -0.1145
30227W        W46411  16.148   0.337   3.415 -0.1970  0.4495  0.0249
30228W        W46412   2.100  15.332  13.114 -0.1296 -0.1637  0.0109
30229W        W46413   1.630   3.392   4.571  0.0987 -0.0484  0.1798
30230W        W46414  13.696   4.003   5.097 -0.0791 -0.2617  0.0924
30231W        W46415   8.849   2.402  16.657  0.6421  0.1835  0.0346
30232W        W46416   4.245   1.743  11.609 -0.0509 -0.1382  0.5426
30233W        W46417   1.682   9.636   0.304  0.2274 -0.3674 -0.0395
30234W        W46418   5.895  17.585   3.266  0.1159  0.2666  0.1478
30235W        W46419  15.630   2.225   2.853 -0.1528  0.1904 -0.1060
30236W        W46420   4.716  11.531  13.202 -0.0401  0.0163  0.1519
30237W        W46421   4.929  17.722   1.553 -0.3099  0.4372  0.2339
30238W        W46422  14.994   8.912  11.134  0.1508 -0.2216  0.0531
30239W        W46423   4.081  14.944  12.778  0.3029 -0.0042  0.0338
30240W        W46424   7.125  13.679   1.535  0.0253  0.0426 -0.1744
30241W        W46425  15.129  13.311   2.330  0.2227  0.0049 -0.0440
30242W        W46426  10.214   8.489   0.498  0.2485  0.0447 -0.1163
30243W        W46427  12.036  12.953  14.445  0.1737  0.3844  0.0528
30244W        W46428   3.232   7.738   5.025 -0.2931 -0.2931  0.0656
30245W        W46429   2.120   3.405   9.765 -0.0868 -0.3777  0.1994
30246W        W46430   2.932   7.391  13.933 -0.1961 -0.3069  0.3897
30247W        W46431  12.186   0.343  16.672 -0.0279 -0.1666  0.2158
30248W        W46432   1.996   8.746   5.458 -0.0942  0.0784 -0.6317
30249W        W46433   5.309  14.487  16.550  0.0134 -0.2370  0.1954
30250W        W46434  10.228  17.057  12.742  0.1370 -0.3798 -0.1091
30251W        W46435   7.219   5.311   0.034  0.0947 -0.1376 -0.1017
30252W        W46436   3.051   5.218   2.908  0.2089 -0.0438  0.0235
30253W        W46437   8.110  12.556  16.368 -0.2612  0.2161  0.2080
30254W        W46438  13.482  10.832   5.309  0.3340  0.2043  0.2455
30255W        W46439  15.735   2.700   4.062 -0.0652 -0.2935  0.2040
30256W        W46440  15.236  15.285  12.205 -0.1312  0.2389 -0.0678
30257W        W46441   7.926  11.846   3.326 -0.1047 -0.1701 -0.1143
30258W        W46442  14.752   3.248  12.516  0.2517 -0.1112 -0.0003
30259W        W46443  11.034  14.899   5.139 -0.0617 -0.2745 -0.0711
30260W        W46444   8.663   6.149   5.520  0.0815  0.1296 -0.1330
30261W        W46445   7.660  10.583   1.799  0.0310 -0.0056 -0.1573
30262W        W46446   9.596   3.811   3.215 -0.2085 -0.0452 -0.1475
30263W        W46447   7.837  17.358  14.651 -0.0810  0.3237  0.0987
30264W        W46448  14.274  15.297   3.890  0.2425 -0.1205  0.0370
30265W        W46449  13.985   1.208   2.892 -0.0945  0.0087  0.0732
30266W        W46450  10.263   4.119  14.297  0.1842 -0.0371  0.2724
30267W        W46451  17.538  16.833  12.394  0.1669 -0.1283 -0.0899
30268W        W46452   6.499   5.264   1.248  0.1744  0.1589 -0.3347
30269W        W46453   1.943   8.667  11.672  0.1147  0.0712  0.1635
30270W        W46454  12.909  13.659  12.024  0.1189  0.0826 -0.2317
30271W        W46455   9.180  16.440  14.955  0.4699  0.2452  0.2836
30272W        W46456   1.152   4.903   1.743  0.3230 -0.3622 -0.2541
30273W        W46457   9.740  17.153   1.114 -0.0600  0.0608  0.1778
30274W        W46458  10.241   4.583  13.064  0.0647  0.3519  0.4819
30275W        W46459   6.188   8.296   5.341 -0.3766  0.1690  0.0865
30276W        W46460   6.059   6.802   5.543 -0.0865 -0.1748  0.0589
30277W        W46461   3.605   6.521  15.954  0.1126  0.0611 -0.2205
30278W        W46462  15.267  14.338   2.337 -0.1098 -0.0632 -0.1135
30279W        W46463  11.021  16.931   5.723 -0.2472  0.0126  0.0834
30280W        W46464   4.415  14.946  13.442 -0.0226  0.1742 -0.2884
30281W        W46465   3.196  16.045  11.742 -0.4046 -0.1318  0.0137
30282W        W46466   8.312   4.503  13.346  0.1052 -0.1967 -0.3227
30283W        W46467  14.363  13.896   0.407 -0.2588 -0.3256 -0.1438
30284W        W46468  15.045   8.803   1.853  0.3387  0.3539  0.4792
30285W        W46469   7.097  17.215   2.962  0.0239  0.2414  0.1101
30286W        W46470  16.144   5.658   2.913  0.1506 -0.0134 -0.1247
30287W        W46471  17.746  10.106  11.171 -0.4078  0.2316  0.1143
30288W        W46472  14.196  14.916  13.990 -0.1794 -0.0078  0.1824
30289W        W46473  11.329  12.619  13.212 -0.1371  0.3414 -0.1448
30290W        W46474  11.614  18.143   3.800  0.2214  0.0459  0.0409
30291W        W46475  12.082  10.943   6.097  0.1596  0.1257  0.2103
30292W        W46476   4.892   4.310   1.446  0.2086  0.0977 -0.3107
30293W        W46477   9.881   6.289   0.652  0.2919 -0.0361 -0.1942
30294W        W46478   0.790  16.064   1.102 -0.0741  0.0289  0.0612
30295W        W46479  15.686  13.905   1.174  0.1008 -0.2337  0.2526
30296W        W46480   8.298   0.007  16.437 -0.1098  0.1673  0.0613
30297W        W46481  12.679   0.059   0.008  0.0755  0.0981  0.1475
30298W        W46482  10.465   7.408   2.671  0.1504  0.2256 -0.0412
30299W        W46483  15.709   3.837   4.196  0.1691 -0.0180  0.0198
30300W        W46484   7.474  14.844  14.394  0.0518 -0.2932  0.2727
30301W        W46485   3.450   8.843   2.139 -0.0425  0.2369 -0.1600
30302W        W46486   9.057  10.978  12.850 -0.3040 -0.0000 -0.0967
30303W        W46487  13.869  17.198  12.966 -0.0136  0.0586  0.3289
30304W        W46488  16.359  12.997   4.928 -0.0170 -0.2114 -0.0517
30305W        W46489  12.735   8.999  15.134 -0.0317  0.1170  0.1793
30306W        W46490   8.809   0.188   4.469  0.0879 -0.2233 -0.2479
30307W        W46491   3.067  10.530   6.028  0.1553  0.0205  0.0354
30308W        W46492  14.179   1.663  12.605  0.0814  0.0112  0.2504
30309W        W46493   9.363  11.319  12.600 -0.2023  0.2991  0.3092
30310W        W46494   7.737  10.052   5.212 -0.1687 -0.0331 -0.0844
30311W        W46495  14.413   0.964  13.769  0.0972  0.1810  0.0307
30312W        W46496   9.101  17.748  15.000 -0.0814  0.1857 -0.0248
30313W        W46497  15.846   3.497  11.126 -0.0828  0.0425 -0.1103
30314W        W46498  13.726  12.350   5.127 -0.2356 -0.0193  0.1980
30315W        W46499   0.113  16.924  15.964 -0.1408  0.1166 -0.1130
30316W        W46500   3.052  16.229   3.308  0.0132 -0.0987 -0.2306
30317W        W46501   7.555   6.661   0.983  0.0359 -0.2171 -0.1691
30318W        W46502   5.079   9.810   4.133 -0.0558 -0.0811 -0.0884
30319W        W46503  13.007   6.466  16.019 -0.2229 -0.0476 -0.1423
30320W        W46504  14.716   2.039  16.411  0.3722 -0.2188  0.2202
30321W        W46505   3.076   0.081  12.379 -0.0887  0.0699  0.0856
30322W        W46506   9.618   5.183  11.830 -0.3471  0.0623 -0.3708
30323W        W46507  13.261   3.211   0.525  0.0528  0.0957 -0.0279
30324W        W46508   2.898  16.814  11.422  0.0014 -0.1147  0.0933
30325W        W46509   6.194   0.469   4.492  0.3636 -0.1533  0.1729
30326W        W46510   0.257   2.238   5.070  0.1828 -0.3377  0.1597
30327W        W46511  16.303  12.771  16.567 -0.0459  0.1125 -0.2232
30328W        W46512   6.078   3.142  12.664  0.3122 -0.0533 -0.1002
30329W        W46513   9.861   6.321  15.775  0.1771 -0.1985  0.3883
30330W        W46514  12.028   8.078   5.671  0.5059 -0.2527  0.3138
30331W        W46515   6.706   3.977   6.197  0.3197 -0.0393 -0.0954
30332W        W46516  10.733   0.538   0.375  0.4421  0.2295 -0.0723
30333W        W46517  13.274   9.026   1.625 -0.0452 -0.0912  0.1251
30334W        W46518  17.733  16.911  10.647 -0.0307  0.0598  0.0137
30335W        W46519   0.553  15.735  12.046  0.0310  0.0655 -0.0574
30336W        W46520   7.368  15.722  15.848 -0.0545  0.0558  0.1619
30337W        W46521  17.100   0.389  12.709  0.2146  0.2617 -0.1596
30338W        W46522   2.498  17.415   2.865 -0.0984  0.0938  0.0989
30339W        W46523  16.990  17.332  14.188  0.1000  0.4781  0.0860
30340W        W46524  17.512   3.816   1.172  0.0636 -0.0455  0.1635
30341W        W46525  13.131  12.551   4.492 -0.0233 -0.0894  0.0292
30342W        W46526   2.453   0.308  16.292  0.0248  0.0969  0.4010
30343W        W46527  15.328  17.382  12.739 -0.0121  0.3796  0.0910
30344W        W46528  17.207   5.791  14.725  0.0089  0.2426  0.2206
30345W        W46529  12.318  11.766  14.968 -0.2429  0.0624 -0.2087
30346W        W46530  11.787  16.814   2.553  0.1922  0.0177 -0.0255
30347W        W46531   2.012   3.996   3.242 -0.1444 -0.2694 -0.0321
30348W        W46532   9.989   9.934  14.808 -0.0976  0.0081 -0.0308
30349W        W46533   9.677   8.133  15.628 -0.0682 -0.0052  0.0318
30350W        W46534   3.301  10.319   4.413 -0.3076 -0.0578  0.1950
30351W        W46535   1.915   9.328  16.261  0.0774  0.3985 -0.0036
30352W        W46536   0.175  13.077   2.255 -0.1942  0.1293 -0.1741
30353W        W46537  10.338   5.893  11.827 -0.1653  0.1586 -0.1717
30354W        W46538  10.897   6.645  13.826  0.2438  0.0134  0.3095
30355W        W46539   9.241   8.447   0.333 -0.1125  0.1739  0.2339
30356W        W46540   6.493  13.823   2.019  0.1029  0.2645  0.0979
30357W        W46541   0.353   6.308   0.285 -0.0376 -0.0275 -0.2878
30358W        W46542  12.336   6.984   3.586  0.3293 -0.4728  0.0481
30359W        W46543   4.377  11.917  14.611  0.3526  0.0724  0.0649
30360W        W46544   6.043  17.214  12.399 -0.2119 -0.0845  0.0828
30361W        W46545   5.892  16.572   4.025  0.2188 -0.0903 -0.0116
30362W        W46546  11.036   0.614   4.931 -0.0345  0.1207  0.3869
30363W        W46547  13.326   6.606  14.428 -0.1892  0.1355 -0.1381
30364W        W46548  17.990   0.935   1.880 -0.0508  0.0274 -0.1122
30365W        W46549  14.930   8.381  15.822 -0.0690 -0.0158 -0.1990
30366W        W46550  13.499  11.813  11.602  0.0166 -0.3628 -0.2655
30367W        W46551  15.947  10.788  11.443  0.1217  0.1082 -0.2922
30368W        W46552   4.672   8.016   5.914  0.1269 -0.0606  0.3310
30369W        W46553  17.187   2.253  11.650 -0.0678  0.2773 -0.2510
30370W        W46554  16.193  17.136   1.220 -0.1439  0.0217  0.4358
30371W        W46555   1.798   7.713   2.754 -0.3064  0.1137 -0.3544
30372W        W46556   2.670   4.407   4.806  0.1076 -0.0750  0.0692
30373W        W46557  13.597   6.440  13.330 -0.0280  0.0765  0.0809
30374W        W46558   5.033  11.603   5.836 -0.1340  0.3462  0.0263
30375W        W46559  13.628   6.043  11.741 -0.0693 -0.2487 -0.1503
30376W        W46560  18.025   1.147   4.191  0.0466  0.0648  0.3527
30377W        W46561   4.940   4.901  12.837  0.0460 -0.3082  0.0347
30378W        W46562  14.323  10.092   1.369 -0.1687  0.0465  0.2435
30379W        W46563   4.546   3.389  15.400 -0.1106  0.0537 -0.0742
30380W        W46564  17.118  15.389   1.183 -0.1836  0.2418 -0.2651
30381W        W46565  17.285   1.557   3.816 -0.1074  0.3098  0.1217
30382W        W46566   0.746  14.697   3.696  0.1753 -0.0299  0.1550
30383W        W46567  16.025  12.304   3.858  0.2049  0.0431 -0.3139
30384W        W46568  11.656  14.664  16.186 -0.2057  0.4436  0.4311
30385W        W46569   4.672  15.450  15.259  0.2428  0.0909  0.1159
30386W        W46570   6.891  17.627  15.907  0.2890 -0.1828 -0.0758
30387W        W46571  10.824   4.842   1.220  0.0603 -0.0250  0.0490
30388W        W46572   2.587   5.860   1.073 -0.0403 -0.0267 -0.4119
30389W        W46573  11.314  11.679   0.642 -0.1372 -0.3117 -0.0750
30390W        W46574   8.313   0.146   2.809  0.1835  0.0024 -0.1740
30391W        W46575   0.677   6.027   2.087 -0.0126 -0.2181 -0.0935
30392W        W46576  12.727   5.267  14.453 -0.2953 -0.0165  0.0597
30393W        W46577  17.911  11.776  14.887  0.0879 -0.0037  0.0835
30394W        W46578  11.143   9.097  14.233 -0.0052  0.2682 -0.4210
30395W        W46579   5.371   2.884  11.524 -0.1883  0.1013  0.0523
30396W        W46580   1.564   2.669  12.031  0.3720 -0.3361  0.3303
30397W        W46581  16.726  10.544   1.447 -0.3811 -0.0461  0.0456
30398W        W46582  13.032   7.544  14.972 -0.1080 -0.1859  0.1445
30399W        W46583  12.069   8.343  11.075  0.2089 -0.1289 -0.1992
30400W        W46584  13.068   4.400  12.503 -0.1493  0.3710  0.2336
30401W        W46585   7.385   6.197   2.898 -0.3763  0.0507  0.1961
30402W        W46586   5.920  16.751  12.556 -0.0899  0.1172 -0.1071
30403W        W46587   8.221   7.494   5.981  0.1047  0.3225 -0.3283
30404W        W46588   3.495   8.138  14.862  0.0518  0.1821 -0.0741
30405W        W46589   5.181   2.861   3.628  0.2890  0.3949 -0.4307
30406W        W46590   1.608  16.881   0.495 -0.1195 -0.1052  0.0158
30407W        W46591  17.413   6.362   2.789 -0.2652 -0.1993  0.2635
30408W        W46592  16.509  15.786   4.718  0.2570  0.0580  0.0714
30409W        W46593   5.550   7.422  13.885 -0.0060 -0.1339  0.0929
30410W        W46594  10.553   4.964  12.829 -0.1378  0.1486  0.1249
30411W        W46595   3.028  15.550   1.431  0.1990 -0.0020 -0.0016
30412W        W46596   7.765   3.582   1.601  0.1470  0.1919 -0.1681
30413W        W46597   1.133  10.863  15.023 -0.0656  0.0842 -0.0656
30414W        W46598   7.744  12.013   2.832 -0.1534 -0.0271 -0.0057
30415W        W46599  12.229  13.109  12.168  0.1352  0.0844 -0.0536
30416W        W46600   1.769   9.655  14.654  0.0575  0.0660 -0.2823
30417W        W46601   1.329  17.278  11.682  0.0448  0.4538  0.2803
30418W        W46602   4.080  15.383   1.251 -0.0620  0.0394  0.4270
30419W        W46603  11.416  16.600  15.219 -0.0797 -0.1342 -0.3220
30420W        W46604   3.891   6.051  14.164 -0.3047 -0.1314 -0.0917
30421W        W46605  10.172   3.336  12.117  0.0868 -0.1281  0.0260
30422W        W46606   3.231   5.868   3.493 -0.0985 -0.0220  0.0384
30423W        W46607  17.237  14.142   1.690 -0.3269 -0.0857 -0.0043
30424W        W46608  10.097  11.795   1.987 -0.0347 -0.0164  0.0100
30425W        W46609  16.343  10.221   3.094  0.0305  0.0059 -0.0428
30426W        W46610  17.332   9.518  16.328  0.0372  0.0236  0.0394
30427W        W46611   0.003   3.970   3.060  0.1342  0.0245  0.3398
30428W        W46612  11.019  17.649  14.244  0.1436  0.1655 -0.0426
30429W        W46613   9.607  14.127   1.435 -0.1283  0.0539 -0.1219
30430W        W46614   1.790   8.206  16.635 -0.3412  0.1068 -0.0199
30431W        W46615   2.361  10.434   4.388  0.2242  0.2340  0.0953
30432W        W46616   2.363  14.598  12.594 -0.3248 -0.0963 -0.2385
30433W        W46617  12.342   5.618  15.940  0.0706  0.2503 -0.1420
30434W        W46618   7.173   4.795   1.504  0.1381 -0.0385  0.1328
30435W        W46619   0.557  12.973   5.170  0.0555 -0.1129 -0.0421
30436W        W46620  11.416  12.499  15.585 -0.2225 -0.2622 -0.0922
30437W        W46621  10.919   8.469   1.847  0.2016 -0.2754  0.0885
30438W        W46622  10.580  16.267  12.069  0.1648  0.0489 -0.0262
30439W        W46623   7.746   2.983   5.784 -0.1084  0.0452 -0.0528
30440W        W46624   1.954   2.733   1.710  0.1004  0.0340  0.1826
30441W        W46625   2.649   9.307  14.837 -0.2081 -0.2450  0.1048
30442W        W46626   0.353   5.819  11.319  0.0916  0.2827  0.2867
30443W        W46627  16.590   1.250  13.567 -0.2114 -0.0623 -0.1227
30444W        W46628   6.169  16.234   1.171  0.2087  0.3126 -0.0008
30445W        W46629   6.783  14.142   4.216 -0.1147 -0.0779 -0.2349
30446W        W46630  10.646   9.158   3.538 -0.2450  0.1871  0.1751
30447W        W46631   4.282   5.007  16.648 -0.2029  0.0402 -0.2124
30448W        W46632   9.083   8.244   4.342 -0.0517 -0.2177  0.0831
30449W        W46633   0.774  17.607  14.017 -0.1136 -0.2999 -0.2556
30450W        W46634   4.229  10.231   2.426  0.0638  0.1986  0.0835
30451W        W46635   1.931  17.911   4.518 -0.1510  0.1088 -0.0426
30452W        W46636  16.693   0.296   3.258  0.6074 -0.0678 -0.2120
30453W        W46637  16.869  11.220  12.651 -0.1517  0.0848 -0.0209
30454W        W46638  15.911  10.792   2.076  0.4051  0.0274  0.5881
30455W        W46639   5.564  12.357   4.760  0.1314 -0.0289  0.2829
30456W        W46640   5.675   5.688  15.331  0.0629  0.1933 -0.0776
30457W        W46641   0.149   4.843   4.652  0.0774  0.0062 -0.3564
30458W        W46642  11.877   3.374   6.195  0.0795  0.1928  0.0516
30459W        W46643   8.187   0.814   3.881 -0.0311  0.0565 -0.0979
30460W        W46644   3.760   1.603  11.867  0.1474 -0.2182  0.1471
30461W        W46645   6.922  12.266  13.673 -0.1127 -0.1606 -0.1784
30462W        W46646   2.982   5.763   2.978 -0.0089  0.0858  0.0918
30463W        W46647  17.546  15.222   1.002  0.2388  0.0929 -0.0998
30464W        W46648  14.116   0.902  12.908 -0.2754  0.3239 -0.1860
30465W        W46649   1.068   1.054   4.327 -0.2020  0.0904 -0.2991
30466W        W46650  15.489   6.418  14.702 -0.0010 -0.0179  0.0954
30467W        W46651   3.696   3.434  13.941  0.0349 -0.3659  0.0898
30468W        W46652  10.939  14.000  11.911 -0.1579  0.3597 -0.0823
30469W        W46653   5.157   8.249   5.965 -0.0091  0.1748 -0.2172
30470W        W46654   2.965   2.913   2.838 -0.2598  0.0392  0.1726
30471W        W46655  13.000   5.057   1.298 -0.1674 -0.0983 -0.1468
30472W        W46656  12.669   2.466  14.479  0.3708  0.0935  0.0033
30473W        W46657  18.081  12.022   0.830 -0.0167 -0.0717 -0.4066
30474W        W46658   9.305   7.013  12.104  0.0404  0.1293 -0.0784
30475W        W46659   7.688  13.781  13.055 -0.3730  0.1060  0.2137
30476W        W46660   9.221   5.068   3.443 -0.0788 -0.4787  0.0302
30477W        W46661  10.659  10.760   2.829  0.3200 -0.0480  0.3366
30478W        W46662   2.253  15.728  16.447 -0.3985 -0.0612 -0.0029
30479W        W46663   3.466  12.705   6.250 -0.0332 -0.1982 -0.0556
30480W        W46664  12.695  10.684  13.656 -0.0531 -0.0112 -0.1175
30481W        W46665  10.643   2.845  14.730 -0.1272  0.2898 -0.0408
30482W        W46666   3.312  17.159   2.083  0.0930  0.1842  0.1931
30483W        W46667   0.577   8.630  16.199  0.0468  0.0040  0.0933
30484W        W46668   8.906  10.572  15.610  0.1559 -0.1145 -0.0603
30485W        W46669   6.186  13.566   0.103  0.0310  0.4367 -0.0718
30486W        W46670  14.285  12.802  15.069  0.1907 -0.1865  0.4177
30487W        W46671  12.948  16.064   4.505  0.2418 -0.1450  0.0802
30488W        W46672   1.301   9.881   4.201  0.0106  0.0954  0.2700
30489W        W46673   1.535   4.970  16.650  0.0354  0.2769 -0.2022
30490W        W46674   9.733   3.136  12.044 -0.2703  0.4594 -0.2090
30491W        W46675   2.932  13.812  14.570 -0.1757 -0.3751 -0.2853
30492W        W46676  10.304   9.896   5.848 -0.1898 -0.0954  0.0670
30493W        W46677   8.886   5.287   0.958  0.1474  0.4536 -0.2563
30494W        W46678   0.169  17.692   1.405 -0.1546 -0.4913 -0.0472
30495W        W46679   6.058   1.956  14.778 -0.1425  0.3951 -0.0780
30496W        W46680  15.221   5.161   4.462  0.0344  0.0670 -0.3914
30497W        W46681  13.662  11.152   2.776 -0.3891 -0.3873  0.1805
30498W        W46682   3.214  16.363   0.327  0.0508 -0.1097 -0.1672
30499W        W46683   0.763   1.292  11.488 -0.0959 -0.0679 -0.0624
30500W        W46684   1.507   8.485   2.487  0.1571 -0.3180 -0.3315
30501W        W46685   5.926   9.158  12.225  0.1096 -0.0497 -0.1605
30502W        W46686   4.035   2.833  14.511  0.0560 -0.2746  0.1796
30503W        W46687  10.655  17.247  14.333  0.0661  0.2479 -0.2862
30504W        W46688  12.996  13.887   1.754  0.1224 -0.0249  0.1561
30505W        W46689   8.129   1.955   2.001 -0.2194 -0.1107  0.1600
30506W        W46690   6.575   8.043   0.434 -0.2519 -0.0731 -0.0130
30507W        W46691  13.815   2.887   1.477  0.1116  0.2370 -0.2528
30508W        W46692   4.457  15.695   5.608 -0.0397  0.5587  0.3429
30509W        W46693   9.178  11.929  15.007  0.0031 -0.1251 -0.1068
30510W        W46694  12.219  12.187  12.462 -0.2368  0.6323  0.1286
30511W        W46695   4.068  18.097  13.394 -0.2037  0.0580  0.0885
30512W        W46696   4.969   0.478   1.107 -0.0408 -0.0623 -0.1562
30513W        W46697  14.740  16.946  13.404  0.2601  0.1923  0.3033
30514W        W46698   1.306  13.514   4.316  0.0209  0.3602  0.0170
30515W        W46699   6.903   9.307  16.569  0.3174 -0.1730  0.1709
30516W        W46700   9.349   1.177  16.401 -0.0911  0.3966 -0.0246
30517W        W46701  13.943   7.587  15.048 -0.2505  0.2478 -0.0885
30518W        W46702   8.226   6.406   1.847  0.0254 -0.0334 -0.0511
30519W        W46703   9.196   3.687  14.918 -0.0869  0.0356 -0.1453
30520W        W46704   2.986  10.790   2.343  0.4459  0.0519  0.2438
30521W        W46705  17.042   9.906  11.827 -0.0096 -0.0357 -0.0615
30522W        W46706  16.474   8.556   4.822  0.1672 -0.1166 -0.2146
30523W        W46707  13.549   5.765   3.321  0.1307 -0.3151 -0.0217
30524W        W46708   1.943   7.222   1.089 -0.0293 -0.2679  0.1932
30525W        W46709  10.555  12.046   6.598 -0.1047 -0.0207  0.1786
30526W        W46710  17.452   6.777   0.541 -0.0608  0.1358  0.1093
30527W        W46711   2.473   6.612   5.022 -0.0966  0.0890  0.0128
30528W        W46712   9.294  13.252  12.167  0.0012  0.0680  0.1049
30529W        W46713  13.097  17.168  15.679  0.1023 -0.0782  0.1512
30530W        W46714   3.007  12.517   1.574 -0.1837 -0.1573 -0.4407
30531W        W46715   5.506   8.990   2.006  0.2030 -0.0107  0.1696
30532W        W46716  14.748  11.958   0.837  0.3351  0.3033 -0.1345
30533W        W46717   1.144  16.008   4.924 -0.3617  0.4280 -0.2398
30534W        W46718   4.777  12.339   0.339 -0.0082  0.0384  0.2464
30535W        W46719  10.330   6.720   1.941  0.0155 -0.0284  0.1018
30536W        W46720   9.485   6.369   2.402  0.1218 -0.2621 -0.0257
30537W        W46721   1.793  13.828  12.968  0.0767  0.0607 -0.0711
30538W        W46722  14.390   1.311  12.141 -0.2689  0.0189  0.2065
30539W        W46723  11.363   7.466  14.403 -0.3468  0.1640  0.2367
30540W        W46724  17.630  17.808  11.878 -0.1719 -0.1128 -0.1892
30541W        W46725   3.344   7.216   3.515 -0.0424 -0.2416  0.0450
30542W        W46726  12.239   4.057  14.072 -0.0570  0.0124  0.1091
30543W        W46727   1.276   8.102  14.392 -0.0313 -0.0517  0.0183
30544W        W46728   0.804  16.654  15.449 -0.2813 -0.0187 -0.0709
30545W        W46729   2.919  16.680   5.308  0.0265  0.1469 -0.2257
30546W        W46730  17.436  12.635   5.027 -0.0045  0.0445  0.0396
30547W        W46731  10.117  15.592   5.740  0.1466 -0.1258  0.2957
30548W        W46732   3.459   6.688  15.239  0.2232 -0.4105  0.0390
30549W        W46733  18.096   4.475   2.020 -0.0031 -0.1059  0.0939
30550W        W46734   4.836   6.669   2.377  0.0465 -0.2552 -0.2200
30551W        W46735   8.197   9.778   3.144 -0.1198 -0.0920 -0.0439
30552W        W46736   1.731  16.709  14.922 -0.0140  0.2417 -0.0467
30553W        W46737  17.712   6.644  16.389  0.2130  0.2696  0.0533
30554W        W46738   0.111  13.165   0.185 -0.0459  0.1503  0.1341
30555W        W46739   2.863   1.612  13.731 -0.1508  0.3025 -0.1759
30556W        W46740   3.110  13.082   0.421  0.1741  0.1862 -0.0528
30557W        W46741   5.700   2.897  13.881 -0.1978  0.1613  0.1869
30558W        W46742   8.021  16.247  12.004 -0.0972  0.0562 -0.2482
30559W        W46743   0.381   7.063  16.540 -0.1685 -0.1056 -0.1248
30560W        W46744   1.314  16.521   3.575 -0.1608  0.1270  0.1359
30561W        W46745   6.510  14.906   2.165  0.5268 -0.1470 -0.1302
30562W        W46746  15.247  16.425  13.103 -0.2484 -0.1196  0.0303
30563W        W46747  14.228  16.032   4.675  0.2955 -0.4373  0.1171
30564W        W46748  18.095   8.507   3.602  0.1839  0.0870  0.0486
30565W        W46749   7.438   3.886   3.005  0.1298  0.4108  0.0075
30566W        W46750   0.580   9.540  13.579 -0.2507  0.0796  0.0312
30567W        W46751   4.261  11.850   2.231  0.0180 -0.2091  0.0857
30568W        W46752   8.646   2.576  11.836 -0.1665 -0.0511 -0.0795
30569W        W46753  17.480   3.718   5.802  0.2778  0.0655  0.0373
30570W        W46754  10.980   4.350   5.675 -0.2288  0.0423 -0.0534
30571W        W46755  17.919   6.223   1.111  0.2036  0.2034 -0.4381
30572W        W46756   8.434   4.200  14.430  0.4792 -0.0979  0.1817
30573W        W46757  10.930   4.436  15.858  0.3155  0.0406  0.3988
30574W        W46758  13.338  17.236   4.903  0.1492  0.1819  0.0099
30575W        W46759  17.153   0.222   1.358 -0.0406 -0.0828  0.1802
30576W        W46760   5.844  14.890  14.987 -0.0412  0.1774 -0.2435
30577W        W46761   9.985  13.859   2.190 -0.0908  0.1419  0.0635
30578W        W46762  15.356  17.024   1.822  0.0637  0.0764 -0.1467
30579W        W46763  11.344  16.777   3.958 -0.0046  0.0703  0.1622
30580W        W46764   2.676   3.797   3.920 -0.0349  0.0260 -0.2984
30581W        W46765  14.245  15.371  15.783 -0.0708 -0.0501  0.0796
30582W        W46766  10.623   6.862   1.124  0.4036 -0.0174 -0.0917
30583W        W46767   8.416   2.750   3.276  0.3792  0.1325 -0.0188
30584W        W46768   8.559  11.154  12.796  0.0496  0.0471 -0.4445
30585W        W46769   2.096   8.787  15.425  0.3957 -0.4463  0.1480
30586W        W46770  12.612   9.713  13.172  0.0245  0.1064 -0.0275
30587W        W46771  15.904  17.656  11.618 -0.0212  0.3275 -0.1347
30588W        W46772   7.408  14.164  13.925 -0.2115  0.1156 -0.2180
30589W        W46773  17.251   7.617  12.707  0.3968  0.0142 -0.0006
30590W        W46774  16.832   4.173  10.634  0.3071  0.1186  0.0126
30591W        W46775  14.097  14.168   0.863  0.0679 -0.0862 -0.1592
30592W        W46776   2.559   8.338   1.802 -0.1207  0.1862  0.0719
30593W        W46777  16.738   9.231   5.215  0.0807 -0.0994  0.2509
30594W        W46778  10.246   9.374  15.100  0.1661 -0.0488 -0.2504
30595W        W46779   7.748   7.534  16.588  0.1670  0.2159  0.3167
30596W        W46780   4.034   0.198  14.217  0.0346  0.0837  0.0337
30597W        W46781  13.699  14.710   2.597  0.1229  0.2624 -0.1814
30598W        W46782  18.078  11.756  13.327 -0.0621 -0.2269  0.0780
30599W        W46783   4.821   7.067   1.588  0.0975  0.4880 -0.1997
30600W        W46784   0.886  10.756   4.641 -0.0229 -0.2696 -0.3702
30601W        W46785   6.365  12.820   1.867  0.2288  0.0275  0.1111
30602W        W46786   7.711   6.900  14.396 -0.2205  0.1493 -0.0285
30603W        W46787   1.106   8.475  11.734 -0.1347 -0.2065 -0.3019
30604W        W46788   6.504   1.765   2.019  0.0611 -0.0207 -0.4021
30605W        W46789   4.894  16.441   0.541 -0.3487  0.1632  0.0402
30606W        W46790  10.041   0.126  11.450  0.1513 -0.0497 -0.4796
30607W        W46791   5.062   8.517  13.018  0.2832 -0.2298 -0.0946
30608W        W46792   3.493   3.111   4.635  0.0740  0.0544  0.0203
30609W        W46793  11.954   0.188  11.614 -0.0608  0.0943 -0.4037
30610W        W46794  11.074   1.115   3.631 -0.2461  0.0916  0.0034
30611W        W46795  15.474   6.809   1.128  0.0819  0.0092  0.1147
30612W        W46796   3.796  10.299   4.365 -0.0397 -0.1979  0.0117
30613W        W46797   5.983   6.918   3.272 -0.0655  0.1356  0.1142
30614W        W46798   2.812  16.128   0.590  0.3580  0.0050  0.0798
30615W        W46799   2.803  11.354  13.261 -0.2587  0.0019 -0.0376
30616W        W46800   3.010   5.833  16.315 -0.0353  0.0024 -0.0425
30617W        W46801  11.165   1.946  11.671 -0.0523  0.4374  0.4058
30618W        W46802   2.303  10.121  15.328  0.2190 -0.2490 -0.0889
30619W        W46803   3.848  16.976   0.267 -0.5458 -0.4343  0.2140
30620W        W46804  13.567   5.709   4.562  0.2691 -0.0175  0.0230
30621W        W46805  12.566   4.961   4.721 -0.0757 -0.0344 -0.1926
30622W        W46806   1.812  12.841  13.030  0.1440  0.2493  0.5659
30623W        W46807   3.764   3.608  15.426 -0.1182  0.2503 -0.2139
30624W        W46808   8.962   1.912   5.556  0.0666 -0.1126 -0.1147
30625W        W46809  11.539   3.323  16.108 -0.1218  0.0357  0.0116
30626W        W46810  11.086  17.525  13.659 -0.3097  0.1131  0.0673
30627W        W46811  16.793  18.100  11.448  0.0416 -0.2652  0.1887
30628W        W46812  12.047   4.496   1.105  0.0872 -0.1656 -0.0731
30629W        W46813   3.524   5.061  14.607  0.0839 -0.0010  0.0006
30630W        W46814  18.086   5.549   1.546 -0.0017 -0.0514  0.2024
30631W        W46815   7.889  16.983   2.974 -0.0502 -0.0071 -0.0853
30632W        W46816  14.919   6.308  12.293 -0.0234 -0.1402 -0.1029
30633W        W46817  10.950  11.262  15.619  0.0061  0.0763  0.1390
30634W        W46818   9.288   2.205  14.722 -0.0598 -0.2423  0.2064
30635W        W46819   0.014  15.926   4.941 -0.0730  0.0549 -0.2422
30636W        W46820  17.663  13.695  12.219  0.0418  0.1570 -0.1786
30637W        W46821   9.131  16.921  13.341  0.1810  0.3245  0.3070
30638W        W46822   6.530   9.876   1.945  0.0959  0.1082 -0.1177
30639W        W46823  10.321   7.909  12.676  0.0788 -0.1354  0.2347
30640W        W46824  15.026   8.849  15.617 -0.0678  0.0561 -0.1816
30641W        W46825  13.116   6.882  12.070 -0.0379 -0.3967  0.0976
30642W        W46826   3.096  16.255  16.550  0.2896  0.1665 -0.1086
30643W        W46827   4.254   7.273   4.726  0.2894  0.0424  0.0255
30644W        W46828   8.047   1.074   0.157  0.1050 -0.0497 -0.0280
30645W        W46829   9.109   8.074   2.713  0.1338  0.2021 -0.1113
30646W        W46830   1.502  16.084  12.935  0.3094  0.1909  0.0447
30647W        W46831   3.710  17.580   4.913 -0.2251 -0.0842  0.0125
30648W        W46832  17.208   0.355   0.894  0.2196  0.2228  0.1296
30649W        W46833  13.525   3.791  12.617  0.2396 -0.2138 -0.1330
30650W        W46834  15.208   1.754  15.671  0.1286  0.0054  0.0603
30651W        W46835   1.721   6.881  12.181  0.0999 -0.1477  0.3745
30652W        W46836  17.239  15.232  15.738 -0.0464  0.2614  0.0413
30653W        W46837  12.656   5.964   4.861 -0.0203  0.1341 -0.0822
30654W        W46838   0.467  15.735   2.024 -0.2933  0.1500 -0.1357
30655W        W46839   6.349   3.628   4.765 -0.0985  0.0945  0.0612
30656W        W46840  12.279  10.087   5.631 -0.0842 -0.0565  0.2141
30657W        W46841   1.763  16.457  15.325 -0.0296 -0.0605  0.1176
30658W        W46842  12.207  10.482  11.521 -0.0242  0.3112 -0.0240
30659W        W46843   8.842  13.597   3.090  0.2253 -0.0254 -0.0727
30660W        W46844   0.754  12.912   3.559  0.0262 -0.1678 -0.3638
30661W        W46845   9.876  15.243   3.298 -0.1376 -0.1918 -0.1338
30662W        W46846   3.461  15.517  16.656  0.0605 -0.1085  0.0171
30663W        W46847   6.725   2.288  16.153 -0.0656 -0.2133  0.0706
30664W        W46848  13.905  17.376   4.118 -0.0281  0.1968  0.1200
30665W        W46849  17.768   8.092   0.711 -0.0589  0.0748 -0.0476
30666W        W46850  14.808  18.112   0.664 -0.2957  0.0772 -0.0697
30667W        W46851   7.737   5.506  14.495  0.1843 -0.5344  0.0527
30668W        W46852   1.683   2.055  12.772  0.1133 -0.0094  0.0765
30669W        W46853  11.342  14.573  13.017  0.3898 -0.0215  0.0310
30670W        W46854  10.546  16.602  13.671 -0.2784 -0.1413 -0.0752
30671W        W46855   0.032   1.282  15.356 -0.6104  0.1254  0.0088
30672W        W46856  13.730   7.599  11.424 -0.2573  0.0658  0.2589
30673W        W46857  13.594   4.914   1.095 -0.1809 -0.1383  0.3656
30674W        W46858   4.586  18.142  16.631  0.2453  0.1942 -0.0697
30675W        W46859   5.912   3.599  14.243 -0.1485 -0.1834 -0.0986
30676W        W46860   0.414   7.965  12.698  0.2212  0.1279  0.1455
30677W        W46861  10.766   0.955   0.723  0.0200  0.1526  0.0425
30678W        W46862   1.040  13.350  11.620  0.1642 -0.2055  0.0182
30679W        W46863   5.862   9.734  14.470 -0.0183  0.0917  0.0860
30680W        W46864  14.971  15.041  13.671  0.0634 -0.1620  0.1968
30681W        W46865   3.699  13.419   6.070 -0.4641 -0.1539  0.1322
30682W        W46866  11.508  17.245   4.107  0.0405 -0.1188  0.1032
30683W        W46867  14.246  10.476   0.669 -0.4364 -0.1532  0.0464
30684W        W46868  10.104   1.996   1.527  0.1582 -0.0587  0.2901
30685W        W46869   8.968   7.453  15.475 -0.3192 -0.1085 -0.0481
30686W        W46870  16.281   7.516  15.247  0.3156  0.1369  0.0233
30687W        W46871  11.662  12.791   3.619 -0.0189 -0.2865 -0.1088
30688W        W46872   9.645  12.599   5.696  0.1197 -0.0144 -0.3404
30689W        W46873  13.825   7.348  15.499  0.0070 -0.0185 -0.2082
30690W        W46874  10.621  13.938  13.980  0.1526  0.0111  0.0950
30691W        W46875  14.469   3.614  12.739 -0.1654 -0.1699  0.1448
30692W        W46876  12.297   4.386   3.846  0.0700 -0.4061  0.1174
30693W        W46877  15.374  16.229   5.329  0.0290  0.0819  0.0686
30694W        W46878   6.659   4.600   1.965 -0.0225 -0.1472 -0.2118
30695W        W46879   5.490   3.327  14.279  0.4254  0.1717 -0.1255
30696W        W46880   4.126   8.901   6.291 -0.0929  0.2269 -0.0441
30697W        W46881   7.220  14.876   1.154  0.0274 -0.0339 -0.0934
30698W        W46882  16.232  16.540   5.312  0.1940 -0.0229 -0.1392
30699W        W46883  11.812  18.038   3.372 -0.1877 -0.2145 -0.0604
30700W        W46884   4.967   9.849  14.798 -0.0635 -0.0305 -0.0059
30701W        W46885   3.807   5.285   1.091  0.2662 -0.0079 -0.0226
30702W        W46886  11.794   3.329   1.286 -0.0935  0.0257  0.0302
30703W        W46887  14.574  16.330  11.512  0.2308 -0.2071 -0.2256
30704W        W46888   3.377   9.809  14.684  0.1802 -0.0375 -0.0121
30705W        W46889   1.228  13.519   3.328  0.0801 -0.1706 -0.0948
30706W        W46890   8.307   1.106   1.920 -0.0827 -0.0301 -0.3156
30707W        W46891   1.775   1.394  13.547  0.1992  0.0145 -0.1031
30708W        W46892  15.182  15.983   1.537 -0.2304  0.0681  0.0462
30709W        W46893  17.892   8.426  16.035  0.1086  0.0832 -0.0433
30710W        W46894  13.492  13.624   2.040 -0.0944  0.0549  0.0794
30711W        W46895  16.852   5.352  13.266 -0.1641  0.0936  0.0892
30712W        W46896   4.058   1.409   1.861 -0.0530  0.0136  0.0027
30713W        W46897   1.836  16.003  15.286 -0.1684  0.0862  0.5009
30714W        W46898   5.428   9.646   6.116  0.1342  0.0867 -0.0741
30715W        W46899   3.825   2.169  16.603  0.3897  0.1615  0.1052
30716W        W46900   8.711  10.569   6.480  0.1092  0.1065  0.3601
30717W        W46901   5.824   6.443  13.551 -0.2328  0.2028 -0.1631
30718W        W46902  13.050  12.282  15.149 -0.0355 -0.4819  0.2464
30719W        W46903   7.199   5.156  15.042  0.3596 -0.0119 -0.0596
30720W        W46904   9.602   0.738  16.362  0.3579  0.3373 -0.1929
30721W        W46905   2.186   3.549   3.031 -0.0313 -0.1262 -0.2408
30722W        W46906  11.257  15.204   4.754  0.0244 -0.0661  0.3877
30723W        W46907   6.257  17.349  13.232  0.2272 -0.0494  0.1616
30724W        W46908  11.146   9.643   3.460  0.1521 -0.0338  0.0813
30725W        W46909  11.016   4.781  13.577 -0.1365 -0.2776 -0.0315
30726W        W46910   1.727   9.807  16.122 -0.0111 -0.0570 -0.1441
30727W        W46911  17.513   0.284   0.056 -0.3414 -0.0596  0.0241
30728W        W46912  11.551   5.640  12.998  0.2481  0.0375  0.0425
30729W        W46913   2.627   6.824   2.043 -0.0874  0.1214 -0.0475
30730W        W46914  13.407   5.093  15.280 -0.0847 -0.5824  0.0238
30731W        W46915  15.319   2.192   2.478  0.0218 -0.1179  0.1282
30732W        W46916  15.004   9.222  12.835 -0.1323  0.3032 -0.2162
30733W        W46917  13.805   9.291  14.654  0.0662  0.1157  0.1402
30734W        W46918   5.807   9.934  13.244  0.1107 -0.2695  0.3079
30735W        W46919  13.003   0.735   3.936 -0.3409 -0.0552  0.1138
30736W        W46920   8.199   6.165   2.928  0.0362  0.1362  0.0309
30737W        W46921  10.784  10.197   4.119 -0.2524  0.1347  0.3234
30738W        W46922  11.088   3.369  14.635 -0.4536 -0.2748  0.3322
30739W        W46923  10.387   9.886   3.037 -0.4875  0.1316 -0.1428
30740W        W46924   3.220  14.191  14.830  0.0907 -0.2920  0.1502
30741W        W46925   5.997   8.306   0.703 -0.0458 -0.5993  0.0451
30742W        W46926  11.397   0.945   1.109 -0.0427 -0.1091  0.3396
30743W        W46927   9.058   2.606   3.034  0.0853 -0.0670  0.2413
30744W        W46928   1.060  10.926   5.803 -0.0626  0.1828 -0.4239
30745W        W46929   9.128   6.249  15.357 -0.2224 -0.1172 -0.0500
30746W        W46930   1.874  16.130   4.783  0.1401 -0.0582  0.1753
30747W        W46931  12.572  13.876  13.742 -0.0078  0.0065  0.1179
30748W        W46932  17.206  10.617   0.694 -0.2047  0.0490 -0.1860
30749W        W46933   5.392   7.496  14.838  0.0757  0.3528  0.4559
30750W        W46934   5.927  13.144  16.632 -0.0784 -0.2446 -0.1189
30751W        W46935   3.282  17.826  12.571 -0.0192 -0.3483 -0.0377
30752W        W46936  17.347  11.169   1.154 -0.1884  0.0395 -0.0096
30753W        W46937   2.119   3.901  12.597  0.0925  0.2685 -0.0446
30754W        W46938   2.535  13.772   4.647  0.0206  0.1496 -0.1967
30755W        W46939   1.145   6.094  15.412 -0.0873 -0.3257  0.5127
30756W        W46940   6.800  17.888  16.496 -0.0462  0.1205  0.2412
30757W        W46941   4.425  10.025   3.235  0.1037 -0.4189 -0.0633
30758W        W46942  14.502  14.555   2.602 -0.1368  0.1298 -0.0086
30759W        W46943   1.451  11.934  12.848 -0.0423 -0.0379 -0.2617
30760W        W46944   2.383   3.450   3.743  0.1781 -0.0799  0.2824
30761W        W46945  17.891   1.245   2.312  0.0333  0.1189 -0.0812
30762W        W46946  16.150   3.245  10.286  0.2965  0.1355  0.1970
30763W        W46947  10.351   2.096   2.789  0.3242 -0.0900  0.1290
30764W        W46948  15.505   9.090   4.311  0.2064 -0.0562 -0.1268
30765W        W46949  15.342   4.048  12.687 -0.0580 -0.0813 -0.0520
30766W        W46950   8.275   3.624   2.433  0.2493  0.3296  0.0089
30767W        W46951   3.678  18.021   2.490  0.0120 -0.0157 -0.2865
30768W        W46952   4.118  12.932  12.697  0.1729  0.1874  0.0739
30769W        W46953   7.512   7.352  16.156 -0.2677  0.2735 -0.0600
30770W        W46954   8.758  18.096   2.768  0.1118  0.0533 -0.2416
30771W        W46955  17.798   4.555   3.517  0.0574  0.3798 -0.2917
30772W        W46956   3.453  10.365   0.507  0.0571  0.2599 -0.1545
30773W        W46957   7.836   1.417   1.174  0.1800 -0.2797 -0.0080
30774W        W46958   6.474  13.859   4.535  0.0862  0.0080  0.0073
30775W        W46959  13.263  13.786  11.628  0.1013  0.0814 -0.1662
30776W        W46960  11.665  13.215   2.345  0.2056  0.3471 -0.2295
30777W        W46961   1.553   7.858   0.251 -0.0507 -0.0709 -0.0690
30778W        W46962  17.196  13.669  12.955 -0.0267 -0.1744  0.1430
30779W        W46963   7.533   2.693   4.129 -0.1378  0.0426  0.0923
30780W        W46964   7.829  12.380   3.837 -0.3180  0.2688 -0.1615
30781W        W46965  11.016  12.924  13.499  0.1471  0.0896 -0.0537
30782W        W46966  13.315  15.511   0.675  0.1561 -0.1647 -0.2060
30783W        W46967  14.824   2.368   2.562 -0.0576 -0.2581 -0.0454
30784W        W46968  11.975  16.463  13.358  0.1546  0.0669 -0.3429
30785W        W46969   4.061   4.966  14.992  0.1055 -0.0093  0.2292
30786W        W46970   3.655  13.657  14.804  0.1292 -0.3139 -0.1344
30787W        W46971   2.545   0.768  13.011 -0.2574 -0.1548  0.1326
30788W        W46972  10.931  13.499  15.288 -0.3538 -0.1837  0.0878
30789W        W46973   0.374   5.872   3.717 -0.1930 -0.5203  0.0525
30790W        W46974  13.181   1.647  14.306 -0.1506  0.1208  0.0458
30791W        W46975  17.484  17.128   4.192 -0.2108  0.0571  0.2642
30792W        W46976   4.280  15.831  16.186  0.1429  0.2455 -0.0525
30793W        W46977  15.647   3.283   5.274 -0.1275  0.0967 -0.0221
30794W        W46978   9.361   2.223   2.844 -0.1678  0.3722 -0.0541
30795W        W46979  16.114  17.340   4.132 -0.2178 -0.1138  0.0428
30796W        W46980  14.030  12.412  15.225  0.0568  0.2323 -0.1349
30797W        W46981   3.400  16.587   3.128  0.2411 -0.1810 -0.0322
30798W        W46982  11.013   4.224   2.052  0.4625  0.0667  0.1116
30799W        W46983   5.024  15.429   0.615  0.2734 -0.0265  0.1949
30800W        W46984  13.667  16.885   0.359 -0.0160  0.0891  0.3214
30801W        W46985  17.849  16.857   4.252 -0.0358 -0.0032  0.0849
30802W        W46986   5.065   4.777   0.314 -0.0721  0.2060 -0.1826
30803W        W46987   5.282   7.357   3.246  0.3500  0.2415 -0.1212
30804W        W46988   4.482  15.727   3.629  0.1417 -0.0867  0.2772
30805W        W46989   7.047   4.739  15.500  0.1701 -0.1126  0.1565
30806W        W46990   5.392  12.288  11.976  0.1698 -0.0534  0.1423
30807W        W46991  11.206   7.695   2.408  0.1492 -0.1963  0.1440
30808W        W46992  12.095   7.706  14.599 -0.2152  0.0799 -0.0433
30809W        W46993  10.266   4.326  12.514 -0.3669 -0.1048 -0.2420
30810W        W46994  14.873  17.630   2.937 -0.0166 -0.0456 -0.0441
30811W        W46995   0.661   5.081   0.395  0.6252 -0.2700  0.1310
30812W        W46996   6.383   0.308   2.378 -0.1185 -0.2140 -0.1136
30813W        W46997  12.648   2.987   5.304 -0.0287  0.3166  0.0208
30814W        W46998   7.962   4.791   4.493  0.0926 -0.0626 -0.1352
30815W        W46999  16.453   2.755  15.783  0.1675 -0.2505  0.0460
30816W        W47000  10.504   2.135   4.500 -0.0120 -0.0546 -0.0851
30817W        W47001   2.163  13.009   1.651 -0.1576 -0.0698  0.3925
30818W        W47002  17.883  11.164   1.205  0.2915  0.0017 -0.2668
30819W        W47003   0.519  14.300   5.100  0.1793  0.0997  0.1824
30820W        W47004   1.654  11.542  11.680 -0.1163 -0.4069  0.1632
30821W        W47005   0.936  12.028   4.155 -0.1158  0.2797 -0.2941
30822W        W47006   5.529   8.319   4.702 -0.1025  0.2527  0.0673
30823W        W47007  13.332  18.145  14.120 -0.1510 -0.6074  0.1076
30824W        W47008   0.051   6.608  16.667  0.0434  0.0884  0.1077
30825W        W47009   6.089  12.145   4.582  0.4212  0.3338  0.1160
30826W        W47010  15.165   1.048  15.662 -0.2197 -0.3021 -0.1888
30827W        W47011   4.520   9.514   3.507  0.3153 -0.0582  0.1346
30828W        W47012  17.291  12.969   3.077  0.0910 -0.1692 -0.3370
30829W        W47013  12.137   6.902  15.228  0.0736  0.0030  0.0755
30830W        W47014   3.999   9.709   2.384  0.0188  0.3597 -0.0370
30831W        W47015  10.586   9.069   4.869 -0.1295 -0.1633  0.0594
30832W        W47016  11.030   3.451   1.533 -0.1493  0.0020 -0.3890
30833W        W47017   9.033  16.200  13.001 -0.2034  0.4478  0.2384
30834W        W47018   8.779  12.493   0.287  0.1569 -0.2747  0.1127
30835W        W47019   4.124   1.601   6.431 -0.1487  0.3519  0.0983
30836W        W47020  17.258   7.003   1.397  0.1772 -0.0784 -0.0664
30837W        W47021  10.586   5.444  15.458  0.2631 -0.0720 -0.1535
30838W        W47022  10.408  17.638  16.319  0.1263 -0.1013 -0.2370
30839W        W47023   1.180   0.397   3.572 -0.2885 -0.1638  0.2384
30840W        W47024   2.081   1.216  10.418 -0.0658 -0.3236 -0.2439
30841W        W47025   0.453  16.468  15.102 -0.2128  0.0829  0.0060
30842W        W47026  17.928  11.971   1.777 -0.3757 -0.1164 -0.1157
30843W        W47027   0.374   7.421  11.356  0.1491  0.2508  0.2134
30844W        W47028   3.455  10.354   3.044  0.0466 -0.0568 -0.0307
30845W        W47029   2.068  11.504  14.494  0.1610  0.1953 -0.0696
30846W        W47030   6.266  12.191  12.920 -0.2063  0.0731  0.0071
30847W        W47031   0.540  11.170  13.647 -0.0622 -0.1667 -0.0082
30848W        W47032   6.302   2.952   5.402  0.0320 -0.0318  0.0734
30849W        W47033   4.487   0.837   3.557 -0.3480  0.2131 -0.1315
30850W        W47034   4.722   5.580  11.600  0.4463 -0.1219 -0.1150
30851W        W47035   9.768  11.099   3.223 -0.1963 -0.3144  0.1764
30852W        W47036  15.969   6.139  14.136 -0.1556 -0.2103  0.2034
30853W        W47037  13.336  16.514   2.933 -0.1188 -0.4470  0.1570
30854W        W47038   5.782   6.923   2.097  0.0730  0.0840  0.2266
30855W        W47039   6.683   9.242   2.631  0.2892 -0.0657  0.0197
30856W        W47040  12.026   5.797  16.513  0.3441  0.0056 -0.2332
30857W        W47041  12.250  14.290  13.717  0.2207  0.1586 -0.1131
30858W        W47042  16.248  13.830   1.313  0.1924  0.2388  0.1549
30859W        W47043  15.232   6.964  16.586  0.0947 -0.1111  0.1885
30860W        W47044   7.934   4.201  14.700  0.1689  0.0741 -0.2299
30861W        W47045  10.302  10.441  13.179  0.2095  0.1499 -0.0561
30862W        W47046  12.358   5.305   2.440  0.0308 -0.0929  0.3104
30863W        W47047   7.605   7.718   2.127 -0.2233 -0.1469  0.1838
30864W        W47048  10.897  12.253  13.977 -0.2383  0.1316  0.0981
30865W        W47049  11.965   4.653  12.263 -0.1362  0.0238  0.0877
30866W        W47050  11.066   7.694   0.912  0.0602 -0.0656  0.0073
30867W        W47051   7.945   6.004   4.247  0.0431 -0.2367  0.4516
30868W        W47052   9.884   2.227  14.043  0.0204 -0.0678 -0.1453
30869W        W47053  11.913   3.952   2.515  0.0582  0.0720 -0.1450
30870W        W47054   8.949   2.497  14.279 -0.1271 -0.3445  0.0199
30871W        W47055  16.158   8.022   5.932  0.0131  0.0363 -0.2650
30872W        W47056   0.498   2.248  12.876  0.1340 -0.2543 -0.3864
30873W        W47057  12.328  17.025   3.879 -0.0599 -0.0610 -0.0539
30874W        W47058   9.576   4.140   3.605  0.4641  0.1911 -0.1740
30875W        W47059   6.854  17.351   0.802 -0.0191 -0.0329 -0.2106
30876W        W47060  15.385   0.724  13.194 -0.4562  0.2682  0.1581
30877W        W47061   4.272   9.387   1.894  0.3911 -0.0033  0.1498
30878W        W47062  11.062   8.078   5.143 -0.0297 -0.2033  0.0259
30879W        W47063  17.980   3.279  12.507  0.0198  0.3442 -0.0057
30880W        W47064   5.572   4.944   0.345  0.0987 -0.0176  0.0938
30881W        W47065  15.542  11.844   0.129  0.1602  0.0297 -0.2103
30882W        W47066  13.136  14.694  14.814  0.0036 -0.1844 -0.2559
30883W        W47067   1.442   4.202   5.311 -0.3237 -0.2914 -0.3208
30884W        W47068   9.360  17.771   2.332 -0.0782 -0.1077 -0.0361
30885W        W47069   8.109   3.183  15.087  0.2095 -0.1052 -0.0062
30886W        W47070   2.275  10.160  14.612 -0.0681 -0.0726 -0.0674
30887W        W47071  14.056  13.234  14.980  0.0014 -0.2046  0.2219
30888W        W47072   3.307  13.293   2.318  0.2081  0.1832  0.0501
30889W        W47073   8.270   6.286  11.980 -0.4749 -0.1828  0.0316
30890W        W47074   8.829   9.378   5.044  0.0284 -0.1739 -0.0003
30891W        W47075   0.122   5.913  15.934  0.0182 -0.1625 -0.0862
30892W        W47076   2.833  11.153  12.718 -0.0889  0.1145  0.3105
30893W        W47077   2.135   8.527   3.119 -0.0730  0.0326  0.1087
30894W        W47078   5.857  17.374  12.927 -0.0130 -0.0658 -0.0549
30895W        W47079  12.796  17.303  12.606 -0.0769  0.2613 -0.0297
30896W        W47080   6.966   6.634   1.608  0.0563 -0.1823  0.1568
30897W        W47081   0.426  13.461  15.636  0.1026  0.1571 -0.3216
30898W        W47082   0.252   7.647   3.875 -0.1745 -0.3831  0.1724
30899W        W47083  17.087  15.640   4.798  0.0258  0.2130  0.0696
30900W        W47084   6.844   8.606   5.933 -0.1239 -0.3066 -0.0665
30901W        W47085   9.473   6.409   2.899  0.3321  0.0678  0.2952
30902W        W47086  15.996  12.708   5.187 -0.1441 -0.2688  0.2467
30903W        W47087  17.413   9.361  13.594  0.2186 -0.3111  0.0136
30904W        W47088   4.969   1.900  12.076 -0.0844  0.2335 -0.0449
30905W        W47089  18.110   1.570  11.003  0.0065 -0.1874  0.1225
30906W        W47090  15.425   8.463  14.949 -0.0821 -0.0500 -0.2237
30907W        W47091  16.723   4.622   2.396  0.1902  0.1823  0.0296
30908W        W47092  16.873  11.692   2.721  0.0104 -0.0845 -0.0180
30909W        W47093  15.145  13.861  15.096  0.0464 -0.0047 -0.1587
30910W        W47094   2.704   8.107   6.218 -0.0247  0.0670  0.0451
30911W        W47095   7.282  10.453   2.191  0.2069 -0.3295 -0.0569
30912W        W47096   8.823   6.534  15.013 -0.2818  0.0682  0.2070
30913W        W47097   4.316   0.625   4.949 -0.4655 -0.1911  0.1837
30914W        W47098  15.722   8.256   4.132  0.0841  0.3385  0.0718
30915W        W47099   9.533  13.614  14.874 -0.3250 -0.1993 -0.0411
30916W        W47100  16.725   2.045  11.440 -0.2946  0.1580 -0.1661
30917W        W47101   9.284   5.491  14.942  0.1990 -0.1754 -0.2314
30918W        W47102   5.986  15.992   2.017 -0.0277 -0.0976 -0.1998
30919W        W47103   6.650  14.731   5.239 -0.1215 -0.1758  0.1673
30920W        W47104  14.661  13.131  13.972 -0.0352  0.0370  0.0714
30921W        W47105  17.963  11.475   2.500 -0.2988 -0.2405  0.2976
30922W        W47106  15.306  16.540  13.734  0.2403 -0.1675  0.0045
30923W        W47107   4.066  10.766  14.367 -0.2075  0.0102 -0.0528
30924W        W47108   8.964  14.704   1.409  0.0531 -0.0322  0.0034
30925W        W47109   0.039   1.256   1.491 -0.0719  0.1364  0.0908
30926W        W47110   2.788  14.549  14.127  0.1715 -0.1871  0.0179
30927W        W47111   1.358   6.390  12.845 -0.0391 -0.1416 -0.0765
30928W        W47112  15.129   0.618  12.367  0.0482 -0.2767 -0.0091
30929W        W47113   8.577   3.290  12.712  0.3065  0.2461 -0.1294
30930W        W47114   6.870   3.695  13.645 -0.0077  0.1048 -0.2832
30931W        W47115   5.870   9.531   2.519 -0.3043  0.1385 -0.1713
30932W        W47116   6.224  16.474   4.590 -0.1492 -0.1313  0.0916
30933W        W47117  12.118   6.399   3.832 -0.1635 -0.3905 -0.1187
30934W        W47118  10.321  15.398   3.450  0.3723 -0.0052  0.2125
30935W        W47119   7.776  14.134   2.063 -0.2795  0.1142  0.1008
30936W        W47120   5.253   3.897   6.157 -0.2063 -0.1681 -0.1338
30937W        W47121   9.511  15.101  12.340  0.1680  0.4583 -0.1227
30938W        W47122  17.661  11.907   0.522  0.3171  0.1406  0.1474
30939W        W47123   7.590  16.753  15.269  0.0918 -0.0960 -0.0112
30940W        W47124   4.897  15.662   2.582 -0.0067 -0.0570  0.0720
30941W        W47125  16.517   6.296   1.448  0.3364 -0.0722  0.2473
30942W        W47126  15.565   1.524  14.895  0.1329 -0.0038 -0.1180
30943W        W47127  14.000   4.333  12.130 -0.0910  0.0822 -0.0988
30944W        W47128   7.438   1.488  16.388  0.2045 -0.0206  0.2623
30945W        W47129  14.719   0.557  11.874  0.2224  0.1777 -0.1076
30946W        W47130  16.778   3.063   3.062 -0.1596  0.1228  0.4497
30947W        W47131   8.890  17.908   5.005 -0.0677 -0.0395 -0.1233
30948W        W47132   8.658  10.360   3.644  0.2805  0.0518 -0.1079
30949W        W47133  11.109   6.673   1.711 -0.1042  0.1683  0.2500
30950W        W47134   9.731   8.373   0.447 -0.0306  0.0584  0.1446
30951W        W47135   8.797   9.916  16.086 -0.3207  0.0188 -0.0745
30952W        W47136   4.480   5.094   4.152 -0.0976  0.0328 -0.3347
30953W        W47137   8.062   3.480   3.758  0.0671 -0.3104 -0.0631
30954W        W47138  15.395   7.240  13.307 -0.1466  0.1301  0.0859
30955W        W47139  13.313  18.144  11.474 -0.1874 -0.2318 -0.0345
30956W        W47140  15.425   0.929  13.709  0.1981  0.1457  0.0033
30957W        W47141   4.700   9.415   4.476  0.0122 -0.0357 -0.1437
30958W        W47142  17.602   2.525   5.656 -0.0016  0.3493  0.2787
30959W        W47143  16.139   5.093   2.986  0.3406 -0.0662 -0.2720
30960W        W47144   7.937   9.014  16.176 -0.3065  0.1948  0.1798
30961W        W47145  10.705   8.497   2.685  0.1378  0.2367 -0.3829
30962W        W47146  12.196   7.733   3.362  0.2642 -0.1471  0.1977
30963W        W47147   1.300  13.079   1.626 -0.3490  0.4193  0.1942
30964W        W47148   9.696  16.328  13.578 -0.4577 -0.1187 -0.2109
30965W        W47149   6.692   2.310  13.658 -0.0353  0.1582 -0.2334
30966W        W47150  10.193  11.730   5.743  0.2319  0.0101 -0.0504
30967W        W47151   7.599   4.175   5.740  0.2858 -0.3670  0.6494
30968W        W47152  11.980   5.933  14.394 -0.0573 -0.2733  0.1551
30969W        W47153  13.542   8.123   4.619  0.1533 -0.2837 -0.1309
30970W        W47154   4.660  17.723  13.281 -0.3080 -0.1409  0.0540
30971W        W47155   5.573   5.354   3.008 -0.0062 -0.2957  0.1591
30972W        W47156  18.137   2.574  12.013  0.0154 -0.2382  0.0580
30973W        W47157   8.984  14.257  15.264  0.1900 -0.0426 -0.0649
30974W        W47158   9.190   0.400  14.063 -0.0625 -0.1315  0.0573
30975W        W47159   8.944  15.633  11.828  0.1493  0.2326 -0.2030
30976W        W47160   5.749  11.436   3.496  0.1528 -0.1498 -0.0630
30977W        W47161   7.111  17.598   1.939  0.0320 -0.0821  0.2479
30978W        W47162  13.955   1.051  15.596 -0.0922  0.3293  0.2756
30979W        W47163   2.865  14.799  12.341  0.0248 -0.1902 -0.0244
30980W        W47164   4.319  12.504   2.893 -0.0895 -0.0925 -0.0429
30981W        W47165   2.823  17.770   2.709  0.0459 -0.1292 -0.1038
30982W        W47166   0.772  10.837  16.361 -0.2375 -0.3307 -0.4810
30983W        W47167  16.593   8.980   3.484 -0.2406 -0.0555 -0.1820
30984W        W47168  12.635   8.433  13.553 -0.0541  0.1269  0.0183
30985W        W47169  10.809   9.177  12.146 -0.0518 -0.0973 -0.0909
30986W        W47170   1.941  16.710   2.339  0.3612 -0.3186  0.2292
30987W        W47171  13.425  11.753  13.288 -0.0879  0.0365 -0.0104
30988W        W47172  13.917  16.750  15.856 -0.1419  0.3642 -0.1388
30989W        W47173  15.791   2.536   4.701 -0.1033 -0.1054 -0.1575
30990W        W47174   1.898   3.862  12.188  0.1276 -0.0285  0.1405
30991W        W47175  10.701  14.249  15.360  0.1819 -0.0420  0.3396
30992W        W47176   0.220  14.691  13.681  0.1539  0.0858 -0.0107
30993W        W47177  10.752  14.203   2.689  0.1626 -0.4334 -0.1158
30994W        W47178   5.251  11.531  13.058 -0.1989  0.2434 -0.0691
30995W        W47179   1.504   9.386  16.534  0.0322  0.2014 -0.2543
30996W        W47180  14.649   9.223   3.829 -0.1371 -0.0771 -0.2509
30997W        W47181  11.194   0.394   6.288 -0.0741 -0.1585 -0.0581
30998W        W47182  14.052   5.226  15.088 -0.0986  0.2839 -0.2495
30999W        W47183  13.899  15.667   4.919 -0.1820  0.1226 -0.0070
31000W        W47184   1.912   9.002   4.592 -0.2234 -0.0368  0.1485
31001W        W47185  16.935   0.214  15.881 -0.0612 -0.1421 -0.1932
31002W        W47186   6.193   4.969   3.851 -0.2972 -0.0084 -0.1163
31003W        W47187   1.802   0.283   5.203  0.2754 -0.0680  0.0166
31004W        W47188  10.876   1.712   4.647  0.0809  0.1400  0.0047
31005W        W47189  11.883   7.114   4.983  0.2530  0.2380  0.2505
31006W        W47190  15.996   4.074   3.771 -0.1675 -0.0444  0.1054
31007W        W47191  16.602   3.935   3.096 -0.3558 -0.0805  0.0346
31008W        W47192   3.220   5.930  15.900 -0.2684 -0.0439 -0.1294
31009W        W47193   5.631   7.154   0.626 -0.0798 -0.2216  0.3061
31010W        W47194  13.820  13.689  14.147  0.0149  0.4130 -0.0020
31011W        W47195   3.217  12.109   5.003  0.0292  0.3249 -0.0495
31012W        W47196   5.810  16.182   0.302  0.3901  0.2738  0.1012
31013W        W47197  15.756   3.023   9.951  0.1589 -0.2713  0.2279
31014W        W47198   0.264   9.647   5.041 -0.1684  0.1234 -0.1267
31015W        W47199   3.026   4.029   3.504  0.0816 -0.1041  0.6932
31016W        W47200   0.430  12.120   6.466 -0.0165 -0.2692 -0.2525
31017W        W47201   0.724   3.577   2.148 -0.2012  0.0587 -0.1992
31018W        W47202  15.394   4.083  13.677 -0.0176 -0.0185 -0.1591
31019W        W47203   4.743  17.451  14.657 -0.0632  0.1004 -0.1554
31020W        W47204   3.084  13.294  13.216 -0.3631 -0.3331  0.1529
31021W        W47205   3.747   6.892   2.208  0.2578  0.2056  0.2428
31022W        W47206   7.531   4.044   4.945  0.0562 -0.0408  0.1069
31023W        W47207   9.910   1.701   2.912  0.0088  0.1842  0.0562
31024W        W47208  17.935   2.832  13.874  0.1436 -0.0787 -0.0055
31025W        W47209   7.830   4.799  13.272 -0.2552 -0.1409 -0.3082
31026W        W47210   1.239  10.081   0.866  0.0077 -0.0727  0.2969
31027W        W47211  12.031   5.584  14.764 -0.2389  0.2705 -0.1777
31028W        W47212  11.882   1.852  15.484  0.1956 -0.3540 -0.1319
31029W        W47213   6.419   3.197   4.348 -0.2386 -0.3683  0.2338
31030W        W47214  12.060  12.571  12.845 -0.0271  0.0210  0.0444
31031W        W47215  16.479  11.569   1.832 -0.0531  0.1281  0.2995
31032W        W47216   2.052   3.843  16.671 -0.0029  0.1291  0.0487
31033W        W47217  15.810   6.228  12.162 -0.1033 -0.1684 -0.2060
31034W        W47218  13.089   1.412  16.091 -0.1553 -0.3430  0.0420
31035W        W47219  10.445  12.119   2.182 -0.2757  0.0459 -0.1984
31036W        W47220   5.938   2.168   0.476  0.0808  0.2361  0.1883
31037W        W47221   7.597   3.097  15.034 -0.0448  0.1648 -0.2689
31038W        W47222   8.057   2.846   1.503  0.0245  0.0079 -0.0898
31039W        W47223   0.623  16.476   0.365  0.1967  0.1848  0.3146
31040W        W47224  12.985   7.801   3.623  0.0696  0.1207  0.0859
31041W        W47225   7.488  15.445   5.125  0.1549 -0.2026  0.1719
31042W        W47226   0.434   1.003  11.282  0.1326  0.4390 -0.2353
31043W        W47227  15.855  14.927   2.833  0.2574  0.5268 -0.1124
31044W        W47228  11.075  11.740  15.362 -0.0221 -0.0848  0.2409
31045W        W47229   7.171  15.450   2.337 -0.1600  0.0316  0.0168
31046W        W47230   7.614   1.183   3.766  0.1797 -0.0067 -0.0473
31047W        W47231  15.587  12.500   2.354  0.0054  0.0657 -0.4718
31048W        W47232   6.258   8.201   3.810  0.3688 -0.0542 -0.2093
31049W        W47233  13.484  17.661   5.331  0.0587 -0.0237  0.1651
31050W        W47234   1.904  14.698  14.221 -0.0138 -0.1082  0.0979
31051W        W47235  16.436  10.876  13.545 -0.2737  0.0173  0.2368
31052W        W47236  16.725   1.015   3.275  0.0263 -0.1987  0.4389
31053W        W47237   8.174  12.423  14.675  0.2615  0.2415 -0.2100
31054W        W47238  16.313  13.565   3.926 -0.2824  0.3550 -0.2883
31055W        W47239  16.824  17.206  11.570 -0.1877  0.0426 -0.0393
31056W        W47240  12.982  11.618  13.381  0.0633 -0.2465 -0.3189
31057W        W47241  16.733   6.659   4.386 -0.1134 -0.2784  0.0253
31058W        W47242  11.998   0.962  14.091  0.0053 -0.4500  0.1945
31059W        W47243  16.346   5.943   4.063 -0.0596 -0.0088 -0.3057
31060W        W47244  14.053   1.416  14.676 -0.0872  0.0947 -0.1350
31061W        W47245  11.485  15.725   1.120 -0.3687  0.0784 -0.3069
31062W        W47246   7.929  14.288   1.564 -0.1089  0.0230 -0.2121
31063W        W47247   9.238   9.761  12.493 -0.0403 -0.2000  0.0243
31064W        W47248   0.933  15.860  14.941  0.3888  0.0179 -0.1238
31065W        W47249  12.091  11.985   2.572  0.0595  0.1590  0.0281
31066W        W47250  16.289   4.182  11.146 -0.0566 -0.0581  0.1137
31067W        W47251   0.186  16.090   2.210  0.2780 -0.3461 -0.4928
31068W        W47252  10.515   6.715  14.284  0.4342 -0.1344 -0.1030
31069W        W47253  15.428   5.779  16.106 -0.1516  0.1041 -0.2080
31070W        W47254   8.632  11.455  13.848 -0.2379  0.0823  0.0514
31071W        W47255  15.204  17.294  15.207 -0.0853 -0.1830  0.2970
31072W        W47256  16.936  17.060  15.838  0.2393  0.1277 -0.0851
31073W        W47257  14.685  12.332  16.428 -0.0426  0.1839  0.0567
31074W        W47258   8.664   9.628   3.267  0.1845 -0.1343  0.0811
31075W        W47259  12.219  15.463   2.306 -0.0784  0.3433  0.2788
31076W        W47260   0.669  14.077  11.814 -0.2088 -0.2044 -0.0233
31077W        W47261  10.331   1.027  12.644  0.0119 -0.2086  0.2971
31078W        W47262   5.953   5.008  12.121 -0.2369 -0.1473 -0.1361
31079W        W47263  17.763   5.248   2.908  0.2020 -0.1070  0.3083
31080W        W47264   5.534   8.124  12.867  0.0586 -0.4194 -0.1816
31081W        W47265  16.042  12.113  13.412  0.2619 -0.1332 -0.0663
31082W        W47266   4.001   4.676  11.472 -0.0706 -0.3461 -0.1754
31083W        W47267  13.095  13.080   3.323 -0.0464 -0.2436 -0.1439
31084W        W47268   7.919   8.744  12.113 -0.1379  0.0621 -0.0659
31085W        W47269  14.431   2.973   5.930  0.1918  0.0014 -0.0975
31086W        W47270   1.609  17.473  12.978 -0.0616  0.0759 -0.3438
31087W        W47271  10.379  15.562   0.827  0.1798  0.0029  0.0654
31088W        W47272   4.870  17.228   3.715  0.0154 -0.1133  0.0957
31089W        W47273   7.940   9.568   5.974  0.1442  0.1630 -0.1985
31090W        W47274  15.505   9.067   1.279 -0.2844 -0.2134 -0.2504
31091W        W47275   0.862   1.027   0.920 -0.1420  0.0009 -0.0502
31092W        W47276  10.005   6.140  13.552 -0.1907  0.0067 -0.1145
31093W        W47277   9.885  12.201   5.990  0.0928 -0.1805  0.0181
31094W        W47278  15.261   1.124   0.842 -0.0340 -0.2294  0.2637
31095W        W47279  12.246   6.944   4.678  0.1447  0.0756  0.1416
31096W        W47280  11.409   4.464  12.284 -0.2327 -0.1879 -0.0559
31097W        W47281  15.195   7.457  15.657  0.1703  0.3888 -0.1579
31098W        W47282  10.936   7.460  13.040 -0.2896  0.3029  0.0976
31099W        W47283  17.168   0.925   4.347 -0.3620 -0.2479 -0.0411
31100W        W47284   1.709   0.636   4.806 -0.0644  0.0011 -0.1252
31101W        W47285   3.873  11.768   0.588 -0.1516  0.0358 -0.5473
31102W        W47286  16.161   5.566   0.616  0.0444 -0.1729  0.2585
31103W        W47287  12.609   0.274  14.430  0.1122 -0.2428  0.1308
31104W        W47288   2.095  17.515  13.129 -0.2953 -0.4234 -0.0722
31105W        W47289   4.971  11.400   1.424  0.0588 -0.0865  0.1546
31106W        W47290  15.637  15.600  13.695 -0.1481 -0.1282  0.0984
31107W        W47291   2.418  16.567   3.861  0.0974  0.0859 -0.0970
31108W        W47292  15.101   6.517   0.250 -0.3154  0.0685 -0.3869
31109W        W47293   5.030   3.895  14.511 -0.0720 -0.2180  0.0084
31110W        W47294   4.974   2.003   0.907 -0.1654  0.0533  0.1041
31111W        W47295  12.920  17.869   0.836  0.1242 -0.2424 -0.0493
31112W        W47296  13.893  15.109  14.325 -0.2469 -0.1172 -0.0172
31113W        W47297   5.991   4.752  13.606 -0.2135  0.0929  0.1128
31114W        W47298  11.150  17.373  13.203  0.0890 -0.1297  0.3181
31115W        W47299  18.160  15.598  14.197 -0.0435  0.2724  0.2165
31116W        W47300  16.994  17.529   5.252  0.1304  0.0404 -0.0305
31117W        W47301   7.354   9.588  13.880  0.0028 -0.3456 -0.3978
31118W        W47302  16.007   1.275   0.523  0.1492  0.2668  0.0255
31119W        W47303   8.485   7.120  12.052 -0.2093 -0.0008 -0.0260
31120W        W47304  12.574  16.982  15.856  0.0952 -0.0999  0.5064
31121W        W47305  12.143  10.285  16.117 -0.2538 -0.0932 -0.1016
31122W        W47306   7.765  14.833   2.789 -0.0736 -0.1763 -0.3065
31123W        W47307  17.040   5.191  10.459 -0.0747 -0.5144 -0.1791
31124W        W47308  10.370   5.838  12.599 -0.0025  0.0273 -0.1208
31125W        W47309  17.783  12.418   4.109 -0.0163  0.3255 -0.0229
31126W        W47310   6.443   7.719   0.044 -0.2602 -0.0099  0.1873
31127W        W47311   3.826   9.772  14.550  0.1909  0.0069  0.0969
31128W        W47312   5.950   2.794  15.157 -0.1490 -0.1450  0.0910
31129W        W47313  10.019  13.019   5.504 -0.4592  0.1373 -0.1311
31130W        W47314   7.376   6.263  11.663  0.0707  0.1934 -0.1103
31131W        W47315  15.622  17.527   3.687 -0.3974 -0.3650  0.1218
31132W        W47316   6.973  11.404  12.935 -0.0764 -0.1820  0.2033
31133W        W47317   9.935  12.847   1.347 -0.2442  0.1405  0.1159
31134W        W47318  15.249  14.029   3.958 -0.0637 -0.0004  0.3630
31135W        W47319   9.014  13.848   5.702 -0.2431 -0.0748 -0.1682
31136W        W47320   7.137  17.701   2.795  0.3464  0.3192  0.0925
31137W        W47321  11.816   6.802   3.854 -0.0744 -0.0140  0.2716
31138W        W47322  17.826   4.763  11.985 -0.1149  0.0264 -0.1335
31139W        W47323   7.725   4.001  15.171  0.1696  0.0364  0.1280
31140W        W47324  12.868   1.148   5.433  0.2834 -0.0554  0.2114
31141W        W47325  13.263   9.738  11.586  0.2666 -0.0861  0.0006
31142W        W47326   0.415   3.699  12.552 -0.0818 -0.0719 -0.2434
31143W        W47327  10.080  10.659  12.744  0.0045 -0.0694 -0.3382
31144W        W47328  16.268   4.440   1.653 -0.2169 -0.0713  0.0494
31145W        W47329   6.682  10.952   2.139 -0.3163  0.3216  0.3257
31146W        W47330  16.320  17.972  14.636  0.1526 -0.2876 -0.0108
31147W        W47331   0.209   6.498   1.226  0.0332 -0.0640 -0.1077
31148W        W47332   2.752   0.144  14.152 -0.2815 -0.0570  0.1201
31149W        W47333  17.653  12.373   1.586  0.0809 -0.0739  0.2173
31150W        W47334   2.841   4.901   0.104  0.0620 -0.2618  0.0310
31151W        W47335   8.513  11.372  14.429 -0.1700 -0.2300 -0.1948
31152W        W47336  12.277   7.754   2.795 -0.2003  0.0393  0.3375
31153W        W47337   4.821   3.397   0.358  0.0382 -0.2150  0.0077
31154W        W47338   8.387  12.594   4.747  0.3914 -0.2291 -0.1494
31155W        W47339  13.786   2.704   4.544 -0.0582 -0.1213  0.1976
31156W        W47340  16.166   4.820   0.166 -0.2109 -0.0961  0.0815
31157W        W47341  16.004   0.796   0.300  0.3041 -0.0688 -0.0925
31158W        W47342  17.944  13.592  16.079  0.0291  0.2796 -0.1026
31159W        W47343   3.122   1.217  11.149  0.2128 -0.1467  0.1248
31160W        W47344  13.755   2.295   5.821 -0.1711  0.0917 -0.1303
31161W        W47345  13.078  16.884   3.118  0.0317  0.0836  0.0830
31162W        W47346   5.186   1.895  14.740  0.1652 -0.2159  0.0220
31163W        W47347   7.036  17.557  10.782 -0.1392  0.2686 -0.0219
31164W        W47348   0.720   4.413   1.783 -0.3221  0.1604 -0.2201
31165W        W47349  11.750  12.369   3.402 -0.1425  0.3665 -0.2990
31166W        W47350  14.564   6.399  13.075 -0.1593 -0.1164  0.0126
31167W        W47351   5.530  14.724   6.156  0.0953 -0.1740  0.0611
31168W        W47352  12.617   6.069   3.274 -0.0640  0.1005 -0.2763
31169W        W47353   5.729   6.006  15.833  0.0144 -0.2017  0.0899
31170W        W47354  10.800   6.471   5.142 -0.0015 -0.0419  0.1614
31171W        W47355  11.977  13.666   2.924 -0.2401  0.1391 -0.0862
31172W        W47356   5.854   0.060   4.532  0.1163 -0.0994 -0.2827
31173W        W47357  10.462   9.318  12.456  0.3545 -0.0153 -0.2735
31174W        W47358   5.271   8.444  11.068 -0.0080 -0.2076  0.2199
31175W        W47359   5.299   6.325   0.030  0.3658  0.0954  0.0772
31176W        W47360   0.534   0.466   2.056 -0.2650 -0.0121  0.2607
31177W        W47361   8.992   3.946   0.396 -0.3234  0.0440 -0.0150
31178W        W47362   4.667  14.206   3.661 -0.2010 -0.2037 -0.2145
31179W        W47363  14.630   2.441  14.010  0.2386  0.0262  0.2559
31180W        W47364   9.452   8.279  14.629 -0.1192  0.4310 -0.0768
31181W        W47365   7.131   4.315   1.028 -0.0627  0.0549  0.0399
31182W        W47366   1.665   7.451  11.432  0.0341  0.1136 -0.2227
31183W        W47367   4.725   1.570   0.754  0.0450 -0.0643 -0.1971
31184W        W47368  11.632  14.682   4.602  0.3168 -0.0529  0.0176
31185W        W47369  10.503  14.382  16.208 -0.1643  0.1293 -0.0429
31186W        W47370  17.412   6.698  15.958  0.2722 -0.1705  0.0380
31187W        W47371  16.933  10.330  12.065  0.3612 -0.0880 -0.0027
31188W        W47372   0.764  14.588   4.329 -0.0323  0.1895  0.1791
31189W        W47373  11.828   9.802  14.096  0.1593  0.0471 -0.0484
31190W        W47374   5.742   6.206   0.965 -0.2188 -0.0450  0.2463
31191W        W47375  13.263   9.976   5.336  0.0102  0.0698 -0.1198
31192W        W47376   8.965  10.259   0.641 -0.0004  0.1246 -0.2804
31193W        W47377   7.289  10.377  16.481 -0.0932 -0.1222 -0.1904
31194W        W47378  17.370  13.914  16.683  0.0672  0.0131  0.0817
31195W        W47379  13.762   9.649  11.415  0.0273 -0.0097  0.1429
31196W        W47380   6.427  18.107  14.960  0.0547  0.0844  0.2671
31197W        W47381   9.940   9.450  12.311  0.1568 -0.0485  0.0861
31198W        W47382  17.993  14.017  13.582 -0.0813  0.1280 -0.0574
31199W        W47383  17.844   2.566  15.282 -0.1435 -0.2674 -0.1828
31200W        W47384  15.687   7.824   5.133  0.1101  0.0715  0.1430
31201W        W47385   8.725  18.142  13.036  0.1034 -0.3918 -0.1712
31202W        W47386   7.856   5.121   3.812 -0.0518 -0.0783  0.0242
31203W        W47387   8.836  17.774  14.495  0.0041 -0.1061  0.0071
31204W        W47388  15.003   3.168  15.360  0.0126  0.2248  0.0058
31205W        W47389  13.611  13.470  11.357  0.1313 -0.4539 -0.3213
31206W        W47390   7.451   6.623  16.549 -0.0690 -0.2747 -0.4214
31207W        W47391   1.682   5.826   5.243 -0.0958 -0.0288  0.1162
31208W        W47392  17.880  14.174  15.804  0.1228  0.2068 -0.1442
31209W        W47393  11.928  11.196   3.840 -0.0663 -0.1534 -0.1487
31210W        W47394  13.416  17.220  13.916  0.1364 -0.0954 -0.2963
31211W        W47395   1.693  12.210  14.597 -0.1937 -0.1258 -0.1735
31212W        W47396  12.108  12.833  14.950 -0.2113  0.1643  0.0524
31213W        W47397   0.850   3.306  11.130 -0.1091  0.2930 -0.5166
31214W        W47398   7.484  12.314  16.555  0.1417 -0.0386 -0.4581
31215W        W47399   3.999  14.126  14.008  0.3406  0.0372 -0.1108
31216W        W47400   5.022  13.168   3.042 -0.1151 -0.1152 -0.2499
31217W        W47401  11.633   0.355  14.772  0.1070 -0.1224 -0.2360
31218W        W47402  11.589   3.452  14.754 -0.0781  0.1344  0.0206
31219W        W47403  11.447   2.953   5.257 -0.3583 -0.1200 -0.1890
31220W        W47404  13.481   3.846   4.097 -0.1015  0.0231  0.3605
31221W        W47405   9.542   4.823   6.285  0.5340  0.0626 -0.4271
31222W        W47406  12.475   5.991  15.166 -0.0489  0.0333  0.2010
31223W        W47407   2.394   1.133  14.685  0.4920 -0.2538  0.3609
31224W        W47408  12.432   4.911   1.258  0.1987 -0.1166  0.1205
31225W        W47409  10.067  12.693  11.965  0.0661  0.2074 -0.3923
31226W        W47410   7.983  13.030  15.405  0.0547  0.1736 -0.1651
31227W        W47411   2.045  12.947   6.382 -0.3120  0.2261 -0.0239
31228W        W47412   4.379   4.101  15.094  0.0124 -0.0926  0.2493
31229W        W47413  12.963   5.631  14.201  0.1629 -0.3884  0.3076
31230W        W47414  16.418  15.999   3.026 -0.1524  0.0082 -0.0376
31231W        W47415  10.980   9.401  13.832  0.0914  0.0272 -0.1061
31232W        W47416   9.909  13.926  15.226 -0.2435  0.4720  0.2733
31233W        W47417   0.440  17.030   6.236 -0.0885 -0.1906  0.0521
31234W        W47418   6.096   2.593   0.716 -0.0297 -0.0360 -0.2558
31235W        W47419   0.754  13.897   5.309 -0.3546  0.2235  0.1483
31236W        W47420   9.404   4.151   4.082 -0.1956  0.0571  0.0485
31237W        W47421   5.905   5.791  13.605  0.0699 -0.1857 -0.0184
31238W        W47422   9.988   7.347   3.998  0.3185 -0.2148  0.0139
31239W        W47423   2.490   0.125  11.713  0.1515 -0.2283  0.2462
31240W        W47424  18.136  16.775   4.692 -0.0749 -0.0110 -0.0970
31241W        W47425   6.539  16.868   4.361 -0.0184 -0.2583  0.0861
31242W        W47426   9.229  13.129   5.570 -0.5454  0.0962  0.1964
31243W        W47427  12.510   7.764  11.906  0.2509 -0.1278  0.0467
31244W        W47428   0.482   0.001  13.791 -0.2204 -0.0220  0.0949
31245W        W47429   0.140  14.995   1.676  0.2514  0.0302  0.1322
31246W        W47430  17.870  16.176  12.759 -0.2038 -0.0238  0.1338
31247W        W47431  12.787  13.494   4.685 -0.1689  0.3050 -0.0638
31248W        W47432   2.050   9.241   2.033 -0.1594 -0.1300  0.0633
31249W        W47433   1.332  15.666  13.261  0.1942  0.2520 -0.1116
31250W        W47434  10.508  18.092  13.015 -0.1815 -0.1800 -0.2831
31251W        W47435   9.762   7.505  16.410  0.0368  0.0747 -0.2859
31252W        W47436   2.204   1.419  12.126  0.1338 -0.1272 -0.1609
31253W        W47437   2.538   4.333  13.830  0.0436  0.1279 -0.1763
31254W        W47438  17.530   7.284   5.059  0.3505 -0.3938  0.1952
31255W        W47439  17.514   4.116   3.538 -0.1061  0.1862  0.1813
31256W        W47440  10.148   7.577   5.720 -0.0782 -0.0246  0.0669
31257W        W47441   3.110   3.964  13.287 -0.1987 -0.1046 -0.3628
31258W        W47442  15.836   5.602   5.470  0.0170  0.1455 -0.3234
31259W        W47443  13.589  17.776   2.206  0.1540 -0.0767  0.1332
31260W        W47444   4.327   7.724   4.458  0.0740 -0.2246 -0.0092
31261W        W47445  11.839   5.694   0.768 -0.5335  0.4820 -0.0016
31262W        W47446   4.997  14.724   2.917 -0.2059  0.2213 -0.0018
31263W        W47447   7.864  15.363  13.583 -0.0130  0.0923  0.2194
31264W        W47448   8.604   4.358   0.440  0.0679  0.2624 -0.0990
31265W        W47449  11.100  12.689  14.139  0.0118  0.2549 -0.3382
31266W        W47450  13.948  10.797  14.092  0.1472 -0.0652  0.0335
31267W        W47451  18.118   1.111  11.203  0.0176  0.1129  0.0515
31268W        W47452   7.102   3.649  12.440  0.1826  0.1468 -0.1767
31269W        W47453  13.561   3.099  15.920 -0.3668  0.0647  0.1411
31270W        W47454  16.097   7.648   4.755  0.0715 -0.3533 -0.1305
31271W        W47455   7.585   0.718  15.251 -0.0348 -0.3519  0.1552
31272W        W47456  12.620  16.256   5.235 -0.4719 -0.1179 -0.0215
31273W        W47457  13.820  15.884  11.662  0.2525  0.0315  0.1754
31274W        W47458   3.382  12.744   0.693 -0.2736 -0.0170  0.1704
31275W        W47459   8.559   8.783  15.494 -0.1268  0.2598  0.1065
31276W        W47460  17.571  17.722   0.438 -0.0183 -0.0291  0.0834
31277W        W47461  11.941  15.379  11.569  0.1440 -0.1376  0.0348
31278W        W47462  10.342  15.440   2.318  0.0713  0.1015 -0.1453
31279W        W47463   1.129   9.013  15.137 -0.1975 -0.1234  0.1448
31280W        W47464   5.209   8.006   5.058  0.0505 -0.0756  0.1238
31281W        W47465  10.035   3.481  15.979 -0.0881  0.2174 -0.2615
31282W        W47466   6.951   8.422  14.077  0.0032 -0.0255 -0.1124
31283W        W47467  13.232   0.504   1.166 -0.3154  0.0373 -0.1521
31284W        W47468  15.668   8.359   2.905 -0.1104  0.1351 -0.1964
31285W        W47469   7.767   9.550  12.324 -0.2733 -0.0755  0.4822
31286W        W47470   2.236  15.462  14.601  0.1005 -0.1483  0.0171
31287W        W47471  11.069  17.858  15.204 -0.3158  0.1239  0.1019
31288W        W47472   0.191  14.230   2.734 -0.2169  0.3611  0.0232
31289W        W47473   8.270   0.396  14.788  0.1516  0.1024 -0.1295
31290W        W47474   4.298   6.964   1.354 -0.0213  0.0002  0.0112
31291W        W47475  12.627   9.204   2.849  0.0509  0.0183  0.3828
31292W        W47476   4.304  13.986  15.864  0.1697  0.0742  0.3424
31293W        W47477  12.958   4.178  12.072 -0.2448 -0.1931  0.0113
31294W        W47478   6.026   5.206   1.300  0.0830 -0.1116 -0.1371
31295W        W47479  12.572  17.700   5.906 -0.0787 -0.0843 -0.1511
31296W        W47480  12.432  12.347   4.222 -0.1336 -0.1200 -0.0043
31297W        W47481   9.874   1.376  12.740 -0.0901  0.1079  0.0815
31298W        W47482   8.215  16.149   3.112  0.4369 -0.0653 -0.1682
31299W        W47483   8.568   8.458  13.508  0.0036 -0.2350 -0.0159
31300W        W47484   9.550   5.118  14.683 -0.2816  0.1047 -0.4135
31301W        W47485  14.216  14.384  15.021 -0.0162 -0.2275  0.0916
31302W        W47486   5.833   7.137   3.882  0.1445  0.0718  0.0223
31303W        W47487   9.483  12.940   1.477  0.0544  0.0335  0.5623
31304W        W47488   1.073  10.614   5.422 -0.0364 -0.2543  0.1914
31305W        W47489   9.400   9.176  13.667  0.0742 -0.3167 -0.0086
31306W        W47490   5.601  10.567   0.377  0.5837  0.0091  0.3844
31307W        W47491   3.701  14.735   0.909  0.0377  0.2112  0.0543
31308W        W47492   6.049  17.701   5.823  0.0487 -0.1946 -0.0708
31309W        W47493   5.116  17.317  15.750 -0.0723 -0.1146  0.3297
31310W        W47494  16.749   6.367   2.046 -0.1102 -0.2099 -0.1463
31311W        W47495   0.185   1.443   2.481 -0.0946 -0.3221 -0.1250
31312W        W47496  11.913  15.457   3.388  0.3112  0.0959 -0.2419
31313W        W47497   2.203   6.727  12.780 -0.0339 -0.2083  0.1409
31314W        W47498   6.015   3.902   0.317  0.0608  0.0551  0.0105
31315W        W47499  11.564   9.689  13.159 -0.1925 -0.0263  0.0719
31316W        W47500  13.078  11.626   0.701  0.0240  0.0809 -0.4386
31317W        W47501  12.826   5.831  13.254 -0.0907 -0.0670  0.3158
31318W        W47502  18.102  17.491   1.782 -0.0264  0.0099  0.1166
31319W        W47503   2.672  13.809  12.784 -0.4625 -0.2303  0.1657
31320W        W47504  12.822   0.834  13.663  0.0001 -0.1549  0.1856
31321W        W47505   8.038  16.885   2.487 -0.0034 -0.1878 -0.0802
31322W        W47506   3.213   2.412   1.893 -0.1174 -0.0946  0.2507
31323W        W47507  12.659   8.716   2.091  0.3434 -0.1333 -0.0597
31324W        W47508   0.204   1.769   4.631 -0.1972  0.1157 -0.2154
31325W        W47509   6.917  15.641  12.406 -0.0587 -0.2556 -0.0717
31326W        W47510   9.448   2.565   5.555 -0.0939  0.0603 -0.0427
31327W        W47511   0.951  15.012   4.145  0.0652  0.0505 -0.0117
31328W        W47512  14.567   9.546  15.304  0.0576  0.1148 -0.0239
31329W        W47513   7.471   5.770   4.107  0.2676 -0.0775  0.1513
31330W        W47514   1.068   5.150  11.916  0.0319 -0.1703 -0.4175
31331W        W47515   4.544   6.104   0.821 -0.3743 -0.0968 -0.0758
31332W        W47516  12.446   7.897   4.420  0.3216  0.3255  0.1308
31333W        W47517  14.285   5.409  11.044  0.0403  0.0878 -0.0416
31334W        W47518  15.263   5.020  11.252 -0.1315 -0.0464 -0.3751
31335W        W47519   9.511  17.102   5.454 -0.3899  0.0415  0.1729
31336W        W47520   8.916   4.954   0.538  0.0377 -0.0268 -0.0691
31337W        W47521   4.251   2.381  16.469  0.0677  0.0480 -0.0626
31338W        W47522   7.529  16.248   2.043 -0.3757 -0.1362 -0.4186
31339W        W47523   2.256  17.692   2.061  0.0910  0.1751  0.1290
31340W        W47524   1.129  14.717   0.835  0.0623  0.0974 -0.0046
31341W        W47525  16.086   8.313   2.464  0.2831 -0.1500 -0.3321
31342W        W47526  10.106  11.404  15.939  0.1243 -0.0862  0.2043
31343W        W47527  14.399  14.970  12.121 -0.1808 -0.0498 -0.0717
31344W        W47528  17.326  14.673  13.169  0.1199  0.0247  0.2089
31345W        W47529   5.846   8.611  13.650  0.0966 -0.0325  0.2685
31346W        W47530   9.260   2.394  12.915 -0.2481  0.1325 -0.1413
31347W        W47531   2.942   5.702  14.065 -0.1013  0.1996 -0.0133
31348W        W47532   5.991   5.988   2.450  0.1355  0.1816  0.0065
31349W        W47533   9.960  14.599   5.793 -0.1560 -0.0116  0.0135
31350W        W47534   4.922  15.444   1.727 -0.2056 -0.1663  0.1685
31351W        W47535  11.258  16.541   3.110  0.2365  0.2036  0.1010
31352W        W47536   4.036  14.338   0.709  0.1752  0.2732  0.2232
31353W        W47537   0.946   1.611  11.143  0.2025 -0.1187  0.0551
31354W        W47538  12.246   7.245  14.722  0.0461 -0.2511  0.3178
31355W        W47539   6.939   5.161  14.351 -0.0749  0.1051  0.3940
31356W        W47540   0.929   4.815  15.813 -0.0445 -0.0650  0.1960
31357W        W47541   8.843   2.091   0.647  0.0174  0.0073 -0.0683
31358W        W47542  11.889  10.740  11.908 -0.2416  0.4562 -0.3291
31359W        W47543   3.659  10.691  15.809  0.2267  0.2867 -0.0242
31360W        W47544   3.686  12.645  11.940  0.0172 -0.1314 -0.0069
31361W        W47545   6.683  11.910   2.036 -0.0705  0.3853 -0.1259
31362W        W47546   4.732  16.181  16.237  0.2176 -0.3221  0.0004
31363W        W47547   6.336   0.903   1.549  0.0219  0.1267 -0.0868
31364W        W47548  17.927  14.390   2.572  0.3328  0.0579  0.1513
31365W        W47549  17.565  15.523  13.514 -0.0934  0.0187  0.1950
31366W        W47550  11.371   5.205  14.668 -0.0442  0.1039  0.0632
31367W        W47551  17.852  16.364   4.974 -0.0501 -0.1292 -0.2132
31368W        W47552  17.695   8.600  14.166 -0.2858  0.2374  0.1599
31369W        W47553   5.102  16.605  13.664 -0.0475  0.0036  0.4909
31370W        W47554  11.254   5.030   2.134  0.0147  0.0938 -0.1125
31371W        W47555   9.955   8.472  13.256  0.1336 -0.5673 -0.0145
31372W        W47556   7.709  12.368   3.268 -0.1910  0.2953 -0.3488
31373W        W47557  16.816   9.383  12.245 -0.1202 -0.1393 -0.0991
31374W        W47558  14.171  11.083   2.046  0.0657 -0.1000 -0.0279
31375W        W47559  10.021  12.290   1.123  0.1346  0.1456 -0.1919
31376W        W47560  17.498  13.893  11.040  0.2634  0.2481  0.0928
31377W        W47561   0.781  17.445  13.025 -0.1781  0.2602 -0.2456
31378W        W47562   5.678   2.761   2.732 -0.0486  0.3229  0.1205
31379W        W47563  13.671  17.666   5.991  0.2857 -0.1763 -0.1019
31380W        W47564  17.598   1.891  15.833  0.0583  0.2097 -0.0498
31381W        W47565  11.753  17.358  14.963  0.1638 -0.2689  0.0707
31382W        W47566   5.410   6.621  12.770  0.0392  0.2811  0.1011
31383W        W47567   6.399  13.284   2.037  0.0430  0.1127  0.0838
31384W        W47568  11.978   3.107  12.328 -0.0877 -0.3984  0.3890
31385W        W47569  17.560   0.095   2.871 -0.0106 -0.0770 -0.1976
31386W        W47570  10.390  16.157   2.145  0.0240 -0.2209  0.0651
31387W        W47571   8.173   6.817   3.030  0.0782  0.0931 -0.2418
31388W        W47572  17.484  15.537  13.026  0.2107 -0.1017 -0.0209
31389W        W47573   6.440   3.886   3.632  0.0673  0.1757 -0.1987
31390W        W47574   0.607   7.850   0.894  0.0733  0.1253 -0.0593
31391W        W47575  16.607  14.004  14.724  0.2967  0.2097 -0.1929
31392W        W47576  17.189   6.668   4.839 -0.1545 -0.2562 -0.1590
31393W        W47577   7.585  11.196   1.383  0.1786  0.1466  0.1540
31394W        W47578  12.197   8.309  15.367 -0.0768  0.1014 -0.3805
31395W        W47579  10.398   4.216   3.638 -0.0571 -0.0539 -0.1780
31396W        W47580  13.409   1.974  13.894  0.0856 -0.2571  0.1239
31397W        W47581  14.456   0.005   1.912  0.0380 -0.0075  0.0346
31398W        W47582   5.834  12.990  12.540 -0.4218 -0.2025 -0.1708
31399W        W47583  15.495   7.719  15.139  0.4036  0.0538 -0.1070
31400W        W47584   2.394   4.193  14.976  0.2192  0.1892 -0.2306
31401W        W47585   0.237  17.456   4.490 -0.0934  0.1487  0.0715
31402W        W47586  17.273  12.945  11.065 -0.0454 -0.1628  0.0046
31403W        W47587   5.992  15.077   0.812  0.0127  0.3012  0.1080
31404W        W47588  15.736   5.101  15.461  0.0236  0.0001  0.1010
31405W        W47589  10.079  15.609   1.282 -0.2877  0.0191 -0.4379
31406W        W47590   1.081   2.953  15.204  0.1778  0.0472 -0.0270
31407W        W47591   1.713   2.824  11.509 -0.1242  0.0020  0.0987
31408W        W47592   1.409  17.234   5.710  0.5110 -0.0573 -0.0550
31409W        W47593  10.275  10.309  14.731 -0.0635 -0.0669 -0.2494
31410W        W47594  10.000  17.981   0.686  0.2009  0.0056  0.0223
31411W        W47595  16.896   6.636   1.269 -0.1335  0.2255  0.0347
31412W        W47596  13.976  10.764   5.485 -0.0179  0.0337 -0.0682
31413W        W47597   6.577  16.684  14.099 -0.2696  0.0458  0.1637
31414W        W47598   6.365   5.839  13.466 -0.1118  0.0747  0.0767
31415W        W47599  12.029  11.782  16.192 -0.1460  0.0514  0.0329
31416W        W47600   7.787  15.454   3.570  0.2363 -0.2507  0.5684
31417W        W47601   6.714  14.047   5.761  0.2216 -0.0895  0.0151
31418W        W47602   0.392   1.399   1.096  0.0236 -0.2152 -0.3340
31419W        W47603   1.197   9.215  11.502  0.0220 -0.3378 -0.0755
31420W        W47604   1.640   7.401   1.882  0.0364  0.2814  0.1473
31421W        W47605   3.998   6.894   4.958  0.3342 -0.1717  0.1087
31422W        W47606   1.850  16.426  12.705  0.0858  0.1656 -0.0201
31423W        W47607   4.477  15.383   2.675 -0.0508  0.1282  0.3089
31424W        W47608   2.545   5.666  11.868 -0.0169 -0.2600 -0.0149
31425W        W47609   8.915   3.662  15.485 -0.1581 -0.0075 -0.1956
31426W        W47610   8.759  13.064  14.873  0.3107  0.0073 -0.0238
31427W        W47611   6.554   2.573   5.750 -0.4515 -0.0144  0.0779
31428W        W47612  13.533   8.530  16.626 -0.3196  0.1870  0.2430
31429W        W47613   7.891   6.762   2.438  0.3415  0.1485  0.0324
31430W        W47614   8.100  17.754  11.663 -0.1487  0.0221  0.0478
31431W        W47615   5.650   3.757   2.147 -0.1970  0.4172 -0.1934
31432W        W47616  17.248   6.322  11.413  0.0398 -0.6222  0.4342
31433W        W47617   0.171  15.468   4.179 -0.2314  0.2605  0.3532
31434W        W47618   0.691  13.217   0.507  0.0553 -0.0203 -0.1956
31435W        W47619   5.592  16.992  12.133 -0.0084 -0.2923 -0.1897
31436W        W47620   2.184   7.247  13.043 -0.2402  0.0779 -0.0710
31437W        W47621   4.082  14.638   4.704 -0.0123 -0.1031  0.1960
31438W        W47622  15.800   3.846  10.737 -0.0267  0.1029 -0.0993
31439W        W47623  11.103  15.121   5.688 -0.0878 -0.0588 -0.0105
31440W        W47624   0.785   5.575  14.393 -0.0183 -0.1562 -0.0383
31441W        W47625  17.521   4.190  10.842 -0.1510  0.0297  0.0830
31442W        W47626  12.649  12.010  13.546  0.2574 -0.0884 -0.2476
31443W        W47627  14.926  12.147  15.417  0.1542 -0.1594  0.2999
31444W        W47628  15.126   8.186   4.877 -0.2524 -0.1212 -0.2710
31445W        W47629   3.171  17.675   2.008  0.2284  0.2109 -0.1731
31446W        W47630   8.837   2.657  15.440  0.2787  0.1841 -0.0374
31447W        W47631   2.077  14.885   3.146 -0.0108  0.0444 -0.2851
31448W        W47632  15.248   8.938  13.979 -0.1309 -0.0027  0.2803
31449W        W47633   9.482  14.438  12.387 -0.0640  0.2243  0.1570
31450W        W47634   9.807   1.433   1.475 -0.2121  0.2924  0.0063
31451W        W47635  13.921   6.745  14.629 -0.0019 -0.1006  0.0072
31452W        W47636  18.034   7.642   3.606 -0.4109 -0.0884 -0.0985
31453W        W47637   1.822   6.843  14.881 -0.0505 -0.2553 -0.0297
31454W        W47638  17.251   7.772  14.796 -0.0619 -0.1803  0.2466
31455W        W47639   1.429  15.741  12.479 -0.0263 -0.1265 -0.0300
31456W        W47640   2.875   1.875  12.002 -0.0105  0.3541 -0.0536
31457W        W47641  15.995  13.274  12.710 -0.2228 -0.4256  0.2106
31458W        W47642   4.847  10.979   2.491  0.0013  0.0548  0.0870
31459W        W47643  15.340   5.210   1.943 -0.4147 -0.2530  0.0303
31460W        W47644   0.968   0.818  11.375 -0.0435 -0.3077 -0.1797
31461W        W47645   1.196   0.550  14.070 -0.0084 -0.0413 -0.1470
31462W        W47646   2.978   8.151   4.958 -0.1902 -0.0531 -0.0518
31463W        W47647   2.974  17.722  16.164 -0.1695 -0.0589  0.2334
31464W        W47648   7.403  13.384   2.058  0.2246 -0.0660  0.2289
31465W        W47649   0.887   4.162   2.249 -0.3634 -0.2373  0.0245
31466W        W47650   3.395  15.686   5.829 -0.3192  0.2969 -0.3244
31467W        W47651  14.102   4.032   4.511  0.1288 -0.0378  0.0679
31468W        W47652   9.271   1.103   3.152 -0.1237  0.0137  0.1813
31469W        W47653   2.025   2.936  11.884  0.0246  0.2580  0.1525
31470W        W47654   3.172   8.815  12.845  0.0496  0.0496  0.1743
31471W        W47655   9.409   3.166  12.575  0.1966  0.3796  0.3810
31472W        W47656   9.845  11.274  14.861 -0.0989  0.2983 -0.0679
31473W        W47657   4.525   7.795  14.990  0.1227 -0.1526  0.2025
31474W        W47658   2.822   2.832  16.565  0.0424 -0.1968 -0.2433
31475W        W47659   8.951  10.802   1.445 -0.1561  0.0755 -0.1025
31476W        W47660   6.821   7.305  15.477 -0.0662 -0.0264 -0.0770
31477W        W47661   2.560  16.112   5.928  0.0970 -0.0035 -0.1973
31478W        W47662  17.127   6.461   0.676  0.0961 -0.1651 -0.0385
31479W        W47663   5.144  12.365  12.958 -0.2476  0.0193 -0.2118
31480W        W47664   0.504  15.135   0.720  0.0772 -0.0571 -0.1917
31481W        W47665   9.631   0.935  14.570  0.0274 -0.0905 -0.1026
31482W        W47666   6.352  11.364   5.168  0.0704 -0.0564 -0.0900
31483W        W47667   3.171   5.358  12.944  0.0695  0.0151  0.0587
31484W        W47668   8.598   0.689   5.224 -0.2085 -0.1899 -0.0187
31485W        W47669   6.053  15.905   4.736 -0.3214  0.0493  0.1326
31486W        W47670   2.515   9.433   2.684  0.1598 -0.0656  0.1680
31487W        W47671  18.064   2.415  11.085 -0.0326  0.2982  0.0592
31488W        W47672   5.136  14.346   0.378  0.0647 -0.1222 -0.2169
31489W        W47673  12.951   5.109  12.861  0.2671 -0.0570  0.0862
31490W        W47674   5.552  12.164   0.835 -0.2481 -0.1288  0.0841
31491W        W47675   9.630  15.406  13.612  0.2797 -0.0490 -0.2480
31492W        W47676  11.788   0.675   1.199 -0.1754  0.3767  0.0540
31493W        W47677  10.248   1.546   3.450  0.3061  0.0332  0.2134
31494W        W47678   4.417   2.280  15.243 -0.2546 -0.0418  0.0421
31495W        W47679  14.487   5.668  14.207 -0.4801  0.2245  0.1133
31496W        W47680   9.131  13.482  13.150 -0.1036  0.1482 -0.1792
31497W        W47681   0.698   1.468   0.651 -0.0171 -0.5155  0.1414
31498W        W47682   5.714   8.886  16.246 -0.2041 -0.0589  0.1943
31499W        W47683   0.860  10.529   3.030  0.1487  0.2560  0.0642
31500W        W47684  16.747   4.968   4.102 -0.1452 -0.0069 -0.0823
31501W        W47685   4.881   5.770   1.017 -0.1716 -0.0787  0.3090
31502W        W47686   5.822   8.259  15.459 -0.2728  0.0555  0.0805
31503W        W47687  10.125   5.278   4.367 -0.0300 -0.0387  0.1386
31504W        W47688  15.146  10.968   3.269  0.0955 -0.2980 -0.1491
31505W        W47689   2.998  17.697   4.221  0.0486 -0.0919 -0.0284
31506W        W47690  11.395  14.326   4.146  0.1649 -0.2886  0.1757
31507W        W47691  14.184   2.056  15.366 -0.0788 -0.2689 -0.2150
31508W        W47692  14.931  17.913  13.416  0.1050 -0.0502 -0.0288
31509W        W47693  11.461   3.946  15.220  0.3110 -0.0197 -0.2794
31510W        W47694  12.191  11.090   5.275 -0.0568  0.0337 -0.2532
31511W        W47695   9.750   0.188  15.673 -0.2551 -0.0117  0.4009
31512W        W47696   8.937   8.801  14.496  0.1371 -0.0123  0.1552
31513W        W47697   5.657   6.266   2.773 -0.0038 -0.2150 -0.1699
31514W        W47698   0.690  12.925   2.122  0.1434 -0.0916 -0.1347
31515W        W47699  11.377   3.308   2.072 -0.2137 -0.4625 -0.3934
31516W        W47700   1.085   5.167   4.809 -0.1671 -0.0717 -0.0601
31517W        W47701  11.673  14.313   1.875  0.0640 -0.0688  0.1114
31518W        W47702  16.138   4.072  11.649 -0.3366 -0.2085  0.0755
31519W        W47703  14.084   0.508  14.799  0.1586  0.1311  0.1845
31520W        W47704  15.003   7.950   0.607 -0.0280  0.0148  0.0114
31521W        W47705  10.881   1.633   0.828 -0.0258 -0.1868  0.2073
31522W        W47706  13.290   9.185   5.466 -0.0730  0.4012  0.1358
31523W        W47707   9.499  13.864   1.001  0.1690 -0.0852 -0.0682
31524W        W47708   2.952  12.958   2.129  0.0419  0.1672 -0.0137
31525W        W47709  17.379  16.501   5.082  0.2767  0.0952  0.1302
31526W        W47710  12.732   2.947  14.347 -0.0351  0.1803  0.0886
31527W        W47711   6.574  13.579  15.316 -0.3000 -0.2615 -0.0850
31528W        W47712   4.302   2.006   2.151  0.2233  0.2024 -0.2018
31529W        W47713  15.879  10.634  13.466 -0.1852  0.1575 -0.1204
31530W        W47714  16.346  16.333  11.803  0.1066 -0.1607 -0.0467
31531W        W47715  17.160  12.037   0.833 -0.1171  0.0036  0.0828
31532W        W47716   0.636   8.556  10.673 -0.0818 -0.1640  0.2024
31533W        W47717  15.310   6.259  13.388  0.1477  0.2550  0.2895
31534W        W47718   8.020   6.601   1.411 -0.0764 -0.0283  0.0127
31535W        W47719   0.976   7.300   0.422  0.0328  0.3408  0.1275
31536W        W47720  12.781   9.892  12.433 -0.1842  0.0342  0.3483
31537W        W47721   8.774   3.546   1.609  0.0941 -0.0280 -0.0259
31538W        W47722   7.168   9.235   5.142 -0.2607  0.0626 -0.1776
31539W        W47723  15.857  10.510  15.028  0.0386  0.3867 -0.0353
31540W        W47724   9.495   3.412  11.685 -0.0918  0.1405  0.1557
31541W        W47725  11.690  15.947  12.803  0.1417  0.1539  0.0307
31542W        W47726   8.397  15.324   5.505  0.3554 -0.2389 -0.0669
31543W        W47727   5.298  16.490   6.060 -0.4112 -0.0137  0.2261
31544W        W47728   1.375  10.827   4.453  0.0171 -0.3831  0.0820
31545W        W47729   0.697  16.966   4.186  0.4179  0.0705  0.0035
31546W        W47730   3.651  14.292   5.209 -0.1707  0.0667 -0.1731
31547W        W47731   7.830   9.448   1.573  0.1968 -0.2212  0.2700
31548W        W47732  16.672  11.077   5.035  0.0307 -0.0451 -0.1894
31549W        W47733   4.012   7.664  12.872 -0.1181 -0.1285  0.0578
31550W        W47734  14.393   8.569   2.227 -0.2285 -0.0515  0.3280
31551W        W47735  14.807  13.519  15.126  0.0185 -0.0551  0.0565
31552W        W47736   4.120  11.592   1.501  0.3144 -0.0359 -0.0235
31553W        W47737  13.671   7.869   3.187  0.0635  0.1097 -0.1571
31554W        W47738   6.802  16.466   2.461 -0.1001  0.2863 -0.2448
31555W        W47739  16.379  15.909   2.503 -0.0108 -0.0353  0.1571
31556W        W47740  11.163   8.635  13.944 -0.0216  0.0622 -0.1016
31557W        W47741  13.441  16.231   3.658 -0.0463  0.3846 -0.0649
31558W        W47742  17.834  17.436  14.557  0.1523 -0.2066 -0.3299
31559W        W47743   2.523   4.167  11.560 -0.1738 -0.0446 -0.1242
31560W        W47744  15.406  16.566  12.554 -0.1645  0.0066 -0.2964
31561W        W47745  12.643   2.696   0.597  0.0361 -0.0958 -0.1690
31562W        W47746  12.416   4.919  11.982 -0.0479  0.0486  0.1894
31563W        W47747   4.515  12.401   2.030 -0.2417  0.1716 -0.0137
31564W        W47748  16.137   1.155   4.496  0.0912 -0.0096 -0.1350
31565W        W47749  16.272  14.968   1.534 -0.0134  0.0969  0.0132
31566W        W47750  17.613  13.423  15.203  0.0302  0.1742 -0.0793
31567W        W47751   7.717   0.302   0.601 -0.1981  0.0000  0.0661
31568W        W47752  16.196   0.749  15.747  0.3759 -0.2525 -0.1957
31569W        W47753  15.525   0.487   0.201 -0.3646 -0.0775 -0.5086
31570W        W47754  13.866   1.126  16.457  0.0185  0.1103 -0.0293
31571W        W47755  14.490  12.693   1.933  0.1445  0.0544 -0.0729
31572W        W47756  15.457   0.135  14.747  0.2606 -0.1271 -0.0369
31573W        W47757   1.238   2.142  14.609  0.1610  0.0342  0.0054
31574W        W47758   9.391   5.629   1.107 -0.1722  0.0906  0.0450
31575W        W47759  15.203  15.977   3.553  0.2593  0.2096 -0.1118
31576W        W47760   8.793  13.176  13.531 -0.1899 -0.1107 -0.1574
31577W        W47761  11.610  10.256   6.496 -0.5000  0.3572  0.1721
31578W        W47762   6.166   3.851   2.218  0.0442 -0.0592 -0.0710
31579W        W47763   0.647  16.853   3.169 -0.0145  0.1757  0.1446
31580W        W47764  16.136  15.985   2.045 -0.1888 -0.0013  0.1358
31581W        W47765  12.108  18.069   3.805 -0.1514 -0.0653  0.3869
31582W        W47766  15.092   1.246  12.520 -0.0096 -0.1529 -0.2927
31583W        W47767  14.590  10.304   4.687 -0.0441 -0.1923  0.2614
31584W        W47768   9.397  15.342   4.303  0.0735  0.0972  0.1724
31585W        W47769   4.366  15.291  14.826 -0.1289  0.2052  0.0277
31586W        W47770  16.815   2.713  11.851  0.2119  0.2476 -0.1216
31587W        W47771  17.098   9.803  12.297  0.1387 -0.1121  0.1214
31588W        W47772  13.226   3.029   2.282  0.0593  0.1630  0.0192
31589W        W47773  13.439  11.272   3.853 -0.0484  0.0970 -0.0097
31590W        W47774   3.745  10.671   1.504  0.0687 -0.2365  0.1465
31591W        W47775  16.490   3.123  11.478  0.4105  0.0419  0.3464
31592W        W47776   3.025   4.005  12.177 -0.0121  0.1829 -0.2022
31593W        W47777   6.720   5.113  15.299  0.3276  0.2497 -0.2229
31594W        W47778  11.840   1.689   0.497  0.3910  0.1488  0.0186
31595W        W47779   3.848  14.621  12.466 -0.0820  0.1871 -0.0205
31596W        W47780   2.657  13.688   4.161  0.1857  0.0776 -0.0128
31597W        W47781   3.020  14.716  15.546 -0.4291 -0.1553  0.0662
31598W        W47782   6.288  17.740   3.784  0.1283 -0.1171  0.1195
31599W        W47783   8.507  17.447  12.265  0.1831  0.2478 -0.0998
31600W        W47784   1.258  11.993   3.352  0.2705 -0.3735 -0.2165
31601W        W47785   2.526  12.811   1.264  0.1075  0.2238 -0.0057
31602W        W47786   8.537  10.822  14.555 -0.0468  0.0520  0.2254
31603W        W47787  15.492  10.928  13.948 -0.0040 -0.1739  0.3180
31604W        W47788   7.217   5.712   3.606 -0.1029  0.0508 -0.4606
31605W        W47789   5.613   1.134  12.961 -0.2102  0.1510 -0.1386
31606W        W47790  18.082  14.962   4.074  0.1587 -0.2569 -0.3196
31607W        W47791  12.831   5.003  11.520 -0.0451  0.0435  0.1281
31608W        W47792  10.084  11.293   5.978  0.4938 -0.2417 -0.1856
31609W        W47793  11.228  10.373   2.300  0.1296 -0.2140 -0.1073
31610W        W47794   0.173  15.164   2.162 -0.1586 -0.0254  0.0661
31611W        W47795   0.765   9.108   5.557  0.0178  0.0658 -0.3900
31612W        W47796  10.742   5.750   2.053  0.2202 -0.1644  0.3904
31613W        W47797  10.938  12.652  11.677  0.3519  0.1667  0.2325
31614W        W47798  10.657   9.553  15.519 -0.0246 -0.2416  0.3107
31615W        W47799  17.461   0.587   3.033 -0.3529 -0.2338  0.0615
31616W        W47800  17.602   3.782  14.688  0.2440 -0.1630  0.1510
31617W        W47801  14.272  10.488  13.852  0.3035  0.0395  0.0801
31618W        W47802   1.385   4.610   1.230 -0.2672  0.0276 -0.0247
31619W        W47803  17.611  15.059  13.294  0.0312  0.0543  0.2126
31620W        W47804   4.810   7.176   3.981 -0.1240 -0.0080  0.0330
31621W        W47805   8.928  10.890  12.007  0.2809  0.1322  0.2266
31622W        W47806  17.711  11.492  16.292  0.0134 -0.4734  0.0211
31623W        W47807   1.880   9.969   5.150  0.0854 -0.2393  0.1042
31624W        W47808  13.815   0.062  16.260  0.1852 -0.0488  0.4151
31625W        W47809  17.465   9.666   0.668  0.0808  0.1285  0.0373
31626W        W47810   3.975  10.715  14.835 -0.0611  0.1270 -0.1197
31627W        W47811   6.076   5.272   1.910  0.5800  0.0594  0.1517
31628W        W47812   4.686   9.921  15.837 -0.1642  0.1976 -0.0610
31629W        W47813  16.723  15.152  15.860 -0.2822  0.1141  0.0735
31630W        W47814   1.724  16.189   3.424  0.2583 -0.0046 -0.1985
31631W        W47815   4.818   8.458   0.449  0.0276 -0.0198 -0.1261
31632W        W47816  12.876  17.301   5.654  0.1997 -0.0402 -0.0492
31633W        W47817   4.708   7.551  14.211 -0.1706  0.2966  0.0568
31634W        W47818   7.584  18.122  14.156  0.1049 -0.1021 -0.4450
31635W        W47819   5.116  15.738   2.079  0.3975  0.0605  0.0908
31636W        W47820   4.223  17.072  16.063 -0.3853  0.1249  0.0936
31637W        W47821   8.984  16.552  12.166 -0.0194  0.1988 -0.3230
31638W        W47822   3.443   2.022   1.667  0.0159  0.1145  0.1650
31639W        W47823  17.619   0.820   3.434  0.1756  0.1100  0.0134
31640W        W47824   9.103  16.095  16.380  0.0897  0.0334  0.2712
31641W        W47825   8.945   4.493  15.053 -0.0792  0.1048 -0.1010
31642W        W47826  15.977   4.685  13.037  0.3111 -0.0881  0.3550
31643W        W47827   1.875   0.144   0.108 -0.1508  0.3024 -0.0783
31644W        W47828  14.928   0.765   1.250 -0.1447 -0.0160 -0.2373
31645W        W47829   9.133   6.974   3.390 -0.2111 -0.0550 -0.0347
31646W        W47830  11.659  11.081  14.437  0.1061  0.0020 -0.1381
31647W        W47831   6.847   3.308   3.120 -0.4318 -0.2437 -0.1522
31648W        W47832   2.345  15.887   5.482 -0.1644  0.0327 -0.1654
31649W        W47833   5.099   4.411   6.107 -0.1200 -0.0670 -0.1488
31650W        W47834  10.811   1.649  12.869 -0.0925 -0.0017 -0.1804
31651W        W47835  11.965   6.048   1.652 -0.0029 -0.0840 -0.1004
31652W        W47836   2.523   1.439  10.376  0.0452 -0.1279 -0.3200
31653W        W47837   9.669  16.603   5.567  0.0101 -0.1397 -0.1719
31654W        W47838   2.382   0.172   2.191 -0.0591 -0.0553 -0.2271
31655W        W47839   6.223   4.170   5.399 -0.0040 -0.0985  0.2044
31656W        W47840  14.219  18.037   0.614  0.3173 -0.0443 -0.0995
31657W        W47841   8.444  15.923   3.512  0.1855  0.1696  0.1979
31658W        W47842  17.831  17.372   4.441 -0.1972 -0.0467 -0.1321
31659W        W47843   6.998  10.151  14.553  0.0500  0.2250 -0.1917
31660W        W47844   4.938   5.137   1.730 -0.2560  0.1414  0.3507
31661W        W47845  13.012   7.351   3.426 -0.0680 -0.0714  0.0539
31662W        W47846   0.520  11.806  12.061  0.2030 -0.0267 -0.1790
31663W        W47847  14.718  14.772   1.731 -0.3482  0.3283 -0.0609
31664W        W47848   2.014   2.488  14.790  0.0122 -0.1426  0.0404
31665W        W47849  11.338   8.760   0.117 -0.0469  0.1208  0.0268
31666W        W47850  10.764  12.657  14.737 -0.4524 -0.1664  0.0964
31667W        W47851   5.959   0.339   2.044  0.0651 -0.0748  0.0723
31668W        W47852  13.670  17.376  13.425  0.0265 -0.3885  0.2021
31669W        W47853   5.258   9.429  14.697  0.0987 -0.1978 -0.0459
31670W        W47854   1.081  14.914  12.596  0.1715  0.1424 -0.0760
31671W        W47855   4.771  13.807  13.839  0.1180  0.1924 -0.2492
31672W        W47856   4.065   5.029  16.086 -0.2039 -0.2094  0.0233
31673W        W47857  15.609   9.756   0.194 -0.0461  0.2458  0.1742
31674W        W47858  10.955   6.126   3.999  0.3130  0.0918 -0.0012
31675W        W47859  11.883  12.822   2.614 -0.2426  0.1104 -0.2447
31676W        W47860  11.290   0.852   0.617  0.0576  0.0182 -0.0903
31677W        W47861  16.343   4.071  12.102  0.4121  0.2234 -0.1612
31678W        W47862   5.843   9.772  15.869 -0.1100  0.2587  0.0312
31679W        W47863  15.274   6.092  11.992  0.1204  0.0273  0.2090
31680W        W47864   5.016   0.666  13.761  0.0347  0.0136  0.0725
31681W        W47865   7.941   8.814  14.830 -0.0096 -0.0629  0.3277
31682W        W47866   3.904   9.829  13.623 -0.3212 -0.1021 -0.2778
31683W        W47867   4.890   0.655   0.225 -0.1865  0.2194 -0.2809
31684W        W47868  12.317  11.392  11.013 -0.1981 -0.0662  0.4974
31685W        W47869  10.293  12.708  16.459 -0.1039 -0.0955  0.3211
31686W        W47870   6.534  11.061  16.672  0.0482 -0.0899 -0.1314
31687W        W47871   9.880  15.440   0.826 -0.0749  0.0748 -0.2307
31688W        W47872   9.203  13.203   3.020 -0.1964 -0.2259  0.1380
31689W        W47873   0.908  16.066   2.136 -0.0431  0.0302 -0.2337
31690W        W47874   8.517  14.782  13.317 -0.0314  0.1323  0.1111
31691W        W47875   8.643   4.821   1.895  0.0946 -0.0397  0.2820
31692W        W47876   7.549  11.894   4.890  0.1110 -0.1250 -0.0049
31693W        W47877  16.029   8.857   1.403  0.1110 -0.1277 -0.2090
31694W        W47878  14.873   5.085  10.933 -0.2428  0.1400 -0.0834
31695W        W47879   1.477  15.376   2.987 -0.0165  0.3350  0.2952
31696W        W47880  14.503  12.539  14.685  0.3072 -0.0967  0.0328
31697W        W47881   0.403   1.387   4.328 -0.2660 -0.1364  0.1406
31698W        W47882  10.435   8.580   1.596 -0.0355  0.0107  0.0335
31699W        W47883   6.014   3.044   1.576  0.0276  0.0373  0.2984
31700W        W47884   2.066  12.828   0.485  0.1680  0.1864  0.1729
31701W        W47885   6.022   8.464   6.378  0.1726  0.0835  0.2314
31702W        W47886  10.727  15.195  13.551  0.4023 -0.1284  0.0874
31703W        W47887   5.076   9.819  16.104 -0.0091 -0.1301 -0.0064
31704W        W47888   9.300   3.362   0.941  0.0438  0.1376 -0.1966
31705W        W47889   2.411   5.979   4.538 -0.0073 -0.0206  0.0916
31706W        W47890  13.291  17.086  14.608  0.1592 -0.0602 -0.0575
31707W        W47891   5.365   6.807   0.224  0.0074  0.3439  0.0213
31708W        W47892  14.923  14.265  12.496  0.0475  0.3411 -0.4897
31709W        W47893  11.368  14.571  12.464 -0.4366 -0.0991  0.2104
31710W        W47894  13.809   2.702  14.586  0.0740  0.4361  0.0122
31711W        W47895  16.461   0.383  11.865 -0.2746  0.2770  0.1346
31712W        W47896   4.395   0.530   3.135  0.1364  0.1599 -0.1960
31713W        W47897  11.992  16.952   1.598 -0.0676 -0.0223 -0.1109
31714W        W47898   1.024   8.795  16.255  0.0744 -0.1815 -0.0787
31715W        W47899   9.008  14.600   5.353 -0.3159 -0.2012 -0.0017
31716W        W47900  14.073  13.319  16.350  0.1464  0.1547  0.0673
31717W        W47901  17.228   6.294   2.257 -0.0796 -0.1975  0.2307
31718W        W47902   5.179  17.287   1.086 -0.0426 -0.2983 -0.0307
31719W        W47903  15.745  14.087   5.877  0.0875  0.2935  0.3699
31720W        W47904  14.355  16.546  14.746  0.0243 -0.0740  0.0496
31721W        W47905   4.366   1.244   1.049  0.0534  0.0583  0.0471
31722W        W47906   1.189   5.338  14.284 -0.2098  0.2959  0.1685
31723W        W47907  16.434  17.779   2.744  0.0565 -0.1254 -0.1052
31724W        W47908  10.400  12.051   1.681 -0.0639  0.1000 -0.1163
31725W        W47909   8.584   6.092   2.650  0.2846  0.0031  0.0909
31726W        W47910  15.882  10.324  12.383 -0.0886  0.0674 -0.1287
31727W        W47911   7.944   6.502  14.714 -0.1992  0.1943 -0.0091
31728W        W47912  11.067   1.058  11.582  0.0202 -0.1097 -0.0308
31729W        W47913   1.446   2.001  16.440  0.0293  0.0614  0.0160
31730W        W47914  13.340   7.929  15.852  0.0608 -0.0143  0.3787
31731W        W47915   6.586  13.409   4.323 -0.1032  0.0217  0.0670
31732W        W47916   4.559   3.081  13.578 -0.0121 -0.0126 -0.2877
31733W        W47917  10.454  15.459  16.080  0.1472 -0.5367 -0.1112
31734W        W47918   5.587   4.589   5.027 -0.0101 -0.4147 -0.0438
31735W        W47919  14.933   7.515   5.320 -0.2746  0.0537 -0.0806
31736W        W47920  12.206   8.809  16.615  0.0708  0.1378 -0.0306
31737W        W47921   5.599   2.888   5.923 -0.0844  0.2613 -0.1463
31738W        W47922  10.401   6.649  16.083 -0.3763  0.2159  0.1837
31739W        W47923   1.977   4.392   4.435 -0.2963  0.1386 -0.3421
31740W        W47924   5.022   5.156  11.518  0.1296  0.1108 -0.1338
31741W        W47925  13.055   6.836   1.618  0.1935 -0.0963 -0.0611
31742W        W47926   9.476   5.881  14.104  0.3704 -0.0473  0.4376
31743W        W47927  14.421  15.602   4.886  0.0098 -0.1589  0.2105
31744W        W47928  15.146  13.377  16.275 -0.0655  0.0039  0.0041
31745W        W47929  13.189   6.329  13.601  0.1975 -0.1119 -0.0169
31746W        W47930   9.339   1.466  13.912 -0.0232  0.3274  0.0103
31747W        W47931  17.377  12.558   2.317  0.0633 -0.0259 -0.0603
31748W        W47932  12.989   0.024   0.458  0.1153  0.1460  0.4669
31749W        W47933   1.083   8.830  12.655  0.0521  0.0827 -0.1089
31750W        W47934  16.020   2.455   3.241 -0.1761  0.0096  0.4932
31751W        W47935   5.253   0.288   0.315 -0.2658 -0.0652 -0.2137
31752W        W47936  18.093  14.807  16.582 -0.1467 -0.1705 -0.0885
31753W        W47937   8.213  12.338   3.374 -0.0473 -0.4042 -0.2410
31754W        W47938  14.974   2.634   3.745 -0.1259 -0.1812  0.0007
31755W        W47939   0.105   7.958  11.032  0.0556  0.0112 -0.1333
31756W        W47940   3.473   9.506   2.924  0.0860 -0.0565  0.0623
31757W        W47941  10.058   2.535   2.819  0.1767  0.3882  0.1268
31758W        W47942  17.567  15.137  14.843  0.2907  0.0323 -0.1076
31759W        W47943  12.714   7.769   1.742  0.1096  0.1125  0.0509
31760W        W47944   1.213   1.542   4.072 -0.0333  0.0546 -0.4237
31761W        W47945  13.229   9.953   0.279 -0.3734  0.0843 -0.3610
31762W        W47946  17.015   7.210  12.326 -0.0594  0.0808  0.1718
31763W        W47947   3.659  10.081  13.131  0.0039  0.0574  0.1352
31764W        W47948  18.100  12.778   4.444  0.1867 -0.2238 -0.0732
31765W        W47949  18.136   0.778  12.148 -0.2102 -0.1126 -0.0814
31766W        W47950  13.974   7.483  15.953 -0.2299  0.0375 -0.0748
31767W        W47951   7.905  11.903  11.980 -0.2856 -0.2597 -0.2715
31768W        W47952  10.723  15.730   4.454  0.2457 -0.1378  0.0077
31769W        W47953   0.159  15.987  15.791 -0.1949  0.0143  0.0457
31770W        W47954  16.350  10.499  11.574  0.1322 -0.1182 -0.2073
31771W        W47955  17.039   2.468  13.676  0.0853 -0.0009  0.2395
31772W        W47956   2.218   5.861  12.230 -0.0118  0.0946 -0.0234
31773W        W47957   0.070  13.552  16.547 -0.2144  0.2215  0.0108
31774W        W47958   9.692  15.523  16.154 -0.2273  0.1405  0.1039
31775W        W47959   9.394   9.973   0.558 -0.1914 -0.0206 -0.2493
31776W        W47960  12.894   4.701  11.929  0.1040  0.2545 -0.3733
31777W        W47961   0.922  11.001  13.008 -0.0950  0.2596  0.2019
31778W        W47962   7.793   6.597   1.867 -0.0841 -0.1223  0.3506
31779W        W47963   0.947   7.857   3.377  0.1595 -0.1408  0.1006
31780W        W47964   2.715   3.480  14.115  0.1456 -0.0008 -0.0939
31781W        W47965  10.370   5.249  16.520 -0.1050  0.0375  0.0944
31782W        W47966  17.146  12.569   5.444  0.1443 -0.0512 -0.1125
31783W        W47967  13.602  11.845  16.564  0.1488 -0.0451  0.1002
31784W        W47968  11.675   1.261   3.697 -0.0749 -0.1107  0.0736
31785W        W47969  17.840  12.816   5.294  0.0565  0.0660 -0.0547
31786W        W47970   4.286   4.109  16.606 -0.1285 -0.2297 -0.2896
31787W        W47971  10.924  14.265  13.619  0.0907 -0.0434  0.0087
31788W        W47972  14.732   4.098  12.075  0.1230  0.0985  0.3903
31789W        W47973   7.386  14.513   3.577 -0.0857  0.1505  0.0867
31790W        W47974   5.588   6.952  13.198 -0.1178  0.0663  0.0236
31791W        W47975  15.911   1.395   2.647  0.0683  0.2010  0.0619
31792W        W47976   8.677  12.393   3.565 -0.0879  0.1505 -0.0855
31793W        W47977  12.050   9.340  14.214  0.1097 -0.0889  0.2180
31794W        W47978   1.094   7.114  12.106 -0.0088  0.0225  0.2898
31795W        W47979  14.485   1.359  12.979  0.1414  0.2166 -0.0279
31796W        W47980   7.782   1.051   5.193 -0.1344 -0.1169  0.1732
31797W        W47981  13.787   1.361  16.003 -0.3294 -0.0981 -0.4159
31798W        W47982   2.438  15.480   1.992  0.2706  0.2024  0.2254
31799W        W47983   2.330  12.209   2.570  0.3155  0.1807  0.0627
31800W        W47984  15.550  10.877  15.782  0.0487 -0.0103 -0.0654
31801W        W47985   2.727  12.475  12.381 -0.0740  0.0015  0.1973
31802W        W47986  16.682   9.965   5.437 -0.3345  0.0612 -0.3292
31803W        W47987   9.151   0.709  13.603  0.2645  0.3570  0.1809
31804W        W47988  15.106   0.659  16.628  0.1880  0.0240 -0.0608
31805W        W47989  12.499   8.409   0.305  0.1033  0.0013 -0.1241
31806W        W47990   1.177  12.590   2.467  0.0369 -0.1614  0.0261
31807W        W47991   8.139   3.392  13.455  0.0755  0.0354 -0.0432
31808W        W47992  14.583   6.871  10.902  0.0632  0.1252 -0.2179
31809W        W47993   5.622  13.899  14.335 -0.0526  0.1428  0.0167
31810W        W47994  10.242   5.113  13.178  0.3155  0.1482  0.0229
31811W        W47995   2.762   0.822  15.649  0.1248 -0.0962  0.3593
31812W        W47996  15.905   8.556  15.640  0.0221 -0.1544 -0.1797
31813W        W47997   2.514   3.206   1.834 -0.0705 -0.2439 -0.3562
31814W        W47998  15.103  14.071   3.129  0.3380 -0.2608 -0.0670
31815W        W47999  11.885  15.264  12.037 -0.0994  0.1308 -0.0561
31816W        W48000   1.793   0.648  14.947  0.0742  0.0850 -0.0251
31817W        W48001   6.166   8.321  12.152  0.0164 -0.3926  0.1239
31818W        W48002  17.623  10.993   4.661  0.0881 -0.1742  0.0841
31819W        W48003   5.449  10.497   1.639 -0.1128  0.1955  0.0829
31820W        W48004   8.727   4.706  12.936  0.1855 -0.0577  0.0420
31821W        W48005  15.186   1.241   0.055 -0.0469  0.2183 -0.0191
31822W        W48006  17.404  16.547   2.350 -0.1899  0.1076 -0.3243
31823W        W48007  12.868  10.431  12.648  0.0137 -0.0655 -0.0640
31824W        W48008   1.060  14.607  16.400 -0.1300 -0.1210 -0.1525
31825W        W48009  15.479   0.894   2.125 -0.1514  0.1825  0.2780
31826W        W48010   5.318   3.005   5.415  0.0449 -0.1320  0.1317
31827W        W48011   0.190  15.448  12.165 -0.0897  0.3883 -0.0192
31828W        W48012  14.669  13.858   3.319  0.2300 -0.0394 -0.1931
31829W        W48013  14.048  16.018  13.052  0.4141  0.0593  0.1605
31830W        W48014  16.788   1.494  10.730 -0.1315 -0.2588  0.0044
31831W        W48015   6.119  15.743   1.033  0.1759  0.2250 -0.2929
31832W        W48016  13.565   4.169  15.087 -0.1486 -0.1462  0.1980
31833W        W48017  11.090   5.376   0.342  0.4526 -0.0095  0.0708
31834W        W48018   7.280  14.195   3.938 -0.1763 -0.0322  0.1403
31835W        W48019   2.731   8.170  13.402  0.0782 -0.2541  0.1800
31836W        W48020  16.461   2.436   2.996 -0.2510  0.0672 -0.1310
31837W        W48021   7.419  17.806   0.051  0.0908  0.4426  0.2681
31838W        W48022  13.550   7.742  12.396 -0.0168 -0.0514 -0.2148
31839W        W48023   0.677   8.261  15.715  0.1438  0.0023 -0.1526
31840W        W48024  18.171   0.123   4.116  0.0944  0.3377  0.2772
31841W        W48025   6.522  10.803   2.732  0.1659 -0.0121 -0.0606
31842W        W48026  11.497   4.407   3.180  0.1056 -0.2452 -0.0347
31843W        W48027  10.953  12.859  15.419 -0.1106  0.2427  0.0895
31844W        W48028  12.025   4.738   4.651  0.0327  0.0572  0.1273
31845W        W48029   1.547   2.625  13.489  0.0006 -0.1094 -0.2380
31846W        W48030  13.061  13.457  12.483  0.2372 -0.1682  0.0360
31847W        W48031  16.818   0.217   4.178 -0.1033  0.2056  0.1899
31848W        W48032  14.260   9.761   3.019 -0.1848  0.2762  0.2356
31849W        W48033  17.508   1.783   1.853 -0.2517 -0.2048  0.3673
31850W        W48034  13.385  13.673   1.486  0.2155 -0.0086 -0.3509
31851W        W48035  15.933   8.919   4.799 -0.0938  0.1532 -0.1657
31852W        W48036  15.032  11.306   6.027 -0.2540  0.0136  0.1597
31853W        W48037   2.135   1.724   1.292  0.1600 -0.0807 -0.0062
31854W        W48038   3.727   4.916   2.434 -0.2333 -0.0678 -0.2882
31855W        W48039  10.568  17.548   1.032  0.1849  0.2094 -0.2198
31856W        W48040  11.253   2.966   0.367 -0.1622 -0.2489 -0.2221
31857W        W48041   0.596  12.196  13.857 -0.1880 -0.0018 -0.0998
31858W        W48042  10.974  15.767  13.304  0.4395  0.1053 -0.1748
31859W        W48043  14.078   7.079   1.320 -0.0319  0.0642 -0.1244
31860W        W48044  17.290  16.093   0.744 -0.2484  0.2119  0.0080
31861W        W48045  12.007   0.260   0.812  0.0227 -0.1737  0.1414
31862W        W48046  10.921   9.371  12.671 -0.0978 -0.3666  0.0137
31863W        W48047  14.295   4.724  15.184 -0.1422 -0.0480 -0.0307
31864W        W48048  12.884   6.814   2.087  0.3614 -0.3224 -0.0010
31865W        W48049  16.018   9.538  12.304  0.0096  0.2311 -0.2676
31866W        W48050  14.809   6.934  16.263  0.4278  0.1052 -0.0762
31867W        W48051  13.604   7.199  12.230 -0.0658 -0.1130 -0.0236
31868W        W48052   2.664   5.216  14.097  0.2764 -0.2643  0.3041
31869W        W48053   0.122   9.494   3.625 -0.0564  0.2516  0.1220
31870W        W48054   4.302  13.492   1.066  0.2210  0.1350  0.2236
31871W        W48055  16.438   3.365  13.113 -0.0785 -0.0760 -0.0415
31872W        W48056   5.766  10.618   2.440 -0.1390 -0.0011 -0.0261
31873W        W48057   0.249   3.350  14.457 -0.2636  0.0209  0.0475
31874W        W48058  15.196  17.254   2.793  0.1423 -0.0478  0.1147
31875W        W48059   5.315   2.225  15.099  0.1310 -0.1814  0.0929
31876W        W48060  17.727  16.640  11.972 -0.0868 -0.1329  0.0135
31877W        W48061  14.710  14.655  11.914 -0.2563  0.1498  0.0119
31878W        W48062  17.162   2.098  12.516 -0.2226  0.1844  0.1169
31879W        W48063  13.489   9.647  16.460  0.0352 -0.1235 -0.2939
31880W        W48064   7.471   9.347   3.670 -0.1676  0.0867 -0.1789
31881W        W48065   9.724  11.623   1.249  0.0499 -0.0234 -0.1505
31882W        W48066  16.527   5.416  11.844 -0.3161  0.2932  0.3513
31883W        W48067  10.405   5.427   6.284  0.0041 -0.2455  0.0145
31884W        W48068   5.321   2.561  16.245 -0.2005 -0.1889 -0.2350
31885W        W48069   7.539  15.565   4.515 -0.3453 -0.3134  0.4895
31886W        W48070  13.497   7.722   3.624 -0.2841 -0.1333 -0.1024
31887W        W48071  15.329  12.947  12.353 -0.0089 -0.0016 -0.0507
31888W        W48072  16.769  13.192  14.069 -0.2826 -0.1336  0.0733
31889W        W48073   1.119   8.921   0.143  0.1712  0.2071 -0.2234
31890W        W48074  14.184   4.820   9.864  0.2231  0.1187 -0.2803
31891W        W48075   4.325   4.497  12.126  0.0425  0.2044  0.3438
31892W        W48076  15.768  14.364   0.361  0.0056  0.0887  0.1012
31893W        W48077  13.820   1.220   6.509 -0.0577  0.0120  0.0674
31894W        W48078   1.667  15.663  13.616  0.1319  0.1645 -0.1046
31895W        W48079  18.032   3.287   4.263  0.2164  0.3426  0.0929
31896W        W48080   9.642  15.656   2.985 -0.4547  0.1860 -0.2059
31897W        W48081   6.656  12.743   2.347 -0.0926 -0.0873  0.2390
31898W        W48082  11.738   9.798   4.993 -0.1654 -0.1219 -0.0446
31899W        W48083  12.555  17.048  11.926  0.3497 -0.0870 -0.1107
31900W        W48084  14.341  17.264   1.139  0.0381  0.1031  0.1930
31901W        W48085   6.125   4.365   4.982 -0.0488 -0.1127 -0.2074
31902W        W48086   2.160   2.449   2.631  0.0007  0.2872 -0.3150
31903W        W48087  13.081   3.895   5.994 -0.0227  0.1688 -0.0509
31904W        W48088   4.339  15.783  15.047  0.2258 -0.1005  0.0909
31905W        W48089   5.522   3.538  13.819  0.0436  0.0170  0.1869
31906W        W48090   2.146   0.000   3.844 -0.0802 -0.1338 -0.1055
31907W        W48091   0.508  13.219  15.102  0.2380  0.0641  0.1845
31908W        W48092  15.813   5.201   0.354  0.2219 -0.0932 -0.2279
31909W        W48093   7.175   3.695  16.157 -0.3155 -0.2042 -0.1206
31910W        W48094   9.395   2.147   5.925  0.0712  0.1482  0.2659
31911W        W48095  13.991  10.461  16.272 -0.0905  0.0019 -0.0152
31912W        W48096  10.548   6.006   2.539 -0.2042 -0.0634 -0.1584
31913W        W48097   9.168  10.902  15.329 -0.1140  0.1829 -0.1469
31914W        W48098   9.085  17.304   3.363  0.1033 -0.0810  0.1034
31915W        W48099   0.876  10.223  12.460 -0.0899 -0.1046 -0.1710
31916W        W48100  17.321   2.910  12.046  0.2602  0.1113 -0.0677
31917W        W48101   7.497   3.547   4.504 -0.0710  0.0303  0.1261
31918W        W48102   0.732  15.230   4.996 -0.0687 -0.1908 -0.1555
31919W        W48103   8.353  16.277   1.304  0.1731  0.0443  0.2097
31920W        W48104   9.201  16.890   6.012 -0.0530  0.0092 -0.0261
31921W        W48105  15.598  15.120  13.924  0.0441 -0.0221  0.0842
31922W        W48106   1.186   0.150   1.569  0.3109 -0.4111 -0.2152
31923W        W48107  13.346   4.336   1.580 -0.1711  0.0946 -0.2411
31924W        W48108   2.680  16.137  15.784 -0.2599  0.2039 -0.1665
31925W        W48109   1.062  15.816   1.417  0.2200 -0.0350 -0.0283
31926W        W48110   0.352   5.542   2.258  0.0615 -0.2022  0.0829
31927W        W48111   9.752   5.898  16.414  0.0950  0.1396  0.3409
31928W        W48112  11.850  13.780  15.025  0.2235  0.2074  0.0122
31929W        W48113  13.484  10.042   2.955 -0.0958  0.0194  0.0848
31930W        W48114   1.319  13.249   4.741  0.3401 -0.2947 -0.2747
31931W        W48115   1.685  11.994  13.266  0.0722  0.2317  0.4143
31932W        W48116  12.389   1.456  10.986 -0.1733 -0.0855 -0.2731
31933W        W48117   8.354   9.535   1.495 -0.1804 -0.1319  0.1345
31934W        W48118  10.833   2.086   3.713 -0.0556  0.2198  0.2721
31935W        W48119   4.120  12.332   2.379  0.1383 -0.0371  0.0240
31936W        W48120   7.681   0.404   1.075  0.1125 -0.1654  0.2102
31937W        W48121   0.757   0.509   5.433  0.1121  0.1228 -0.1904
31938W        W48122   5.883   4.738  16.245 -0.1183  0.1244  0.3830
31939W        W48123  12.189  12.613   3.379 -0.1903  0.4231  0.1449
31940W        W48124  14.042   3.104  14.587 -0.0455  0.2804 -0.0065
31941W        W48125   7.190  12.053  14.491  0.0724 -0.0702  0.0335
31942W        W48126   0.850   2.038   3.514  0.0834  0.3012 -0.1610
31943W        W48127   2.880   0.908   4.125 -0.0972  0.1373 -0.1696
31944W        W48128   4.678  13.545  12.372  0.2279  0.1474 -0.2888
31945W        W48129   3.776  12.387   3.266  0.0860 -0.5358  0.1163
31946W        W48130  17.808  10.651   4.315  0.0007  0.0569  0.1017
31947W        W48131  11.970  17.173  16.529  0.2755 -0.1206 -0.0423
31948W        W48132  15.365  10.547  16.226  0.0001 -0.1741  0.0614
31949W        W48133  10.453   4.975  14.475 -0.4612 -0.0656 -0.0185
31950W        W48134   4.563   7.365  15.759 -0.2834  0.1893  0.0592
31951W        W48135  10.623   8.260  15.183 -0.2501 -0.2495 -0.1823
31952W        W48136  13.681   6.971  14.185 -0.1521  0.0665 -0.0809
31953W        W48137  15.704   8.833  14.424 -0.0408 -0.1051 -0.2205
31954W        W48138   4.542   6.728   3.597 -0.0893  0.0400 -0.2010
31955W        W48139  10.673   1.269   4.066 -0.2621  0.1618 -0.0208
31956W        W48140   3.532   6.516   3.057 -0.2436 -0.2775 -0.1577
31957W        W48141   7.500   5.368   1.186  0.3416 -0.1850 -0.2659
31958W        W48142   1.437  15.589   1.663 -0.1092  0.1759 -0.3306
31959W        W48143   6.612  14.785  16.220 -0.0798  0.0735  0.1016
31960W        W48144   4.909   9.446  15.723  0.0986 -0.1724  0.0912
31961W        W48145   6.853  13.630   4.758  0.0370  0.0150 -0.3691
31962W        W48146   4.912   2.312  11.810 -0.0538 -0.0492 -0.0540
31963W        W48147  16.546  11.955  12.024 -0.2252 -0.1498 -0.0247
31964W        W48148  12.356  13.330   2.676  0.1830 -0.1356 -0.0120
31965W        W48149   6.708  10.245  15.424  0.6714 -0.2220  0.0447
31966W        W48150  15.303   5.272  16.175  0.3346 -0.1613  0.3170
31967W        W48151   3.366   8.865  12.323  0.2153 -0.0274  0.0778
31968W        W48152   4.220   6.832  11.714 -0.3815 -0.1978 -0.2218
31969W        W48153  13.511  18.016   0.348  0.1105  0.2870  0.2758
31970W        W48154   1.931  11.231  16.280 -0.3665 -0.2314 -0.1113
31971W        W48155   9.517  11.700  14.683 -0.2334  0.1416  0.0848
31972W        W48156   6.249   1.453   2.745 -0.3218 -0.6561  0.2016
31973W        W48157   8.297  10.837   5.063  0.3228  0.0015 -0.2502
31974W        W48158   1.392   8.286  11.306 -0.1757 -0.1475  0.1799
31975W        W48159   3.510  12.968   1.290 -0.0189 -0.2965 -0.1822
31976W        W48160   0.306  17.948  14.722 -0.0614  0.0327  0.1047
31977W        W48161   6.527   5.484   4.087  0.0126  0.1929  0.0240
31978W        W48162  16.683   2.858  13.929  0.2702  0.4268  0.0535
31979W        W48163  11.826  14.711   1.359  0.2742 -0.1133 -0.3386
31980W        W48164   0.487  11.159   6.193  0.2976 -0.1748  0.0764
31981W        W48165  17.670   0.207  10.093  0.0453  0.0473  0.0789
31982W        W48166   9.918  15.081  15.992  0.0212  0.0354  0.2134
31983W        W48167  14.636   7.407   3.161  0.0650  0.1087  0.2028
31984W        W48168   3.899  15.588  16.412  0.0422  0.4797  0.1564
31985W        W48169  13.726  13.827   4.593  0.1490  0.2908  0.0233
31986W        W48170   3.402  15.155   6.583  0.2737 -0.1470 -0.2084
31987W        W48171  13.436   5.740   0.807 -0.1042 -0.2484 -0.2353
31988W        W48172   9.865  17.924  16.391 -0.1408 -0.0910  0.2335
31989W        W48173   8.747   9.209   4.130  0.0620  0.0316  0.1258
31990W        W48174  11.345  13.811  15.301 -0.1269  0.0016 -0.1909
31991W        W48175  14.041   3.624  15.503  0.0766 -0.2775 -0.4025
31992W        W48176   1.023   9.251  16.441  0.0760  0.1957 -0.0664
31993W        W48177   8.200  10.569   3.694  0.2684 -0.3780 -0.0546
31994W        W48178   0.024   8.964   3.834  0.0011 -0.0866 -0.2420
31995W        W48179  15.127  14.435   1.840 -0.0825 -0.1451 -0.2550
31996W        W48180   7.151   9.845  16.624 -0.2237 -0.2568 -0.0192
31997W        W48181   5.353   1.924   4.961  0.2751 -0.2616  0.3947
31998W        W48182   5.434   6.934  14.088  0.0200 -0.1889  0.0609
31999W        W48183  10.048  17.049   2.299 -0.1858 -0.3157  0.0968
32000W        W48184  15.997   4.345  13.485 -0.2201 -0.2280  0.1833
32001W        W48185  16.125   5.017  16.419 -0.0638 -0.2533 -0.0703
32002W        W48186   9.069   4.269   2.468 -0.1714 -0.1424 -0.0517
32003W        W48187  15.355  16.735   1.307 -0.3920  0.1433  0.0914
32004W        W48188  17.530   7.018   1.937  0.2746  0.2105  0.2896
32005W        W48189  13.719  18.118  15.287 -0.0802  0.2192  0.0281
32006W        W48190  12.102   4.228  15.063 -0.2767  0.0289  0.1515
32007W        W48191  12.875   7.621   5.677  0.2101 -0.1994 -0.0253
32008W        W48192  11.999   7.750   5.036 -0.0791  0.1002 -0.1573
32009W        W48193   2.001   0.641  13.086 -0.0398  0.5328  0.0270
32010W        W48194  13.469  13.800  12.726  0.3262  0.0294  0.0587
32011W        W48195   5.346  17.343  12.991 -0.0780 -0.1742  0.0730
32012W        W48196  10.806   2.304  14.421 -0.0545 -0.0654  0.0906
32013W        W48197   7.990   4.022  12.624  0.1502 -0.2061 -0.1112
32014W        W48198   1.444  10.458   4.116 -0.1717  0.2395  0.0614
32015W        W48199   6.729   3.911  12.662  0.0977 -0.1892 -0.2432
32016W        W48200  16.689  16.714  12.122 -0.1859 -0.1786 -0.0765
32017W        W48201   1.593   6.477   4.704  0.3084  0.0448 -0.0215
32018W        W48202  15.189  11.005  16.227  0.2533 -0.3128  0.2701
32019W        W48203   4.515   8.289   0.107  0.1560  0.4516  0.4895
32020W        W48204   6.170  12.597  12.531 -0.0728  0.0655  0.3327
32021W        W48205   7.673   5.168   4.899  0.2011 -0.0878 -0.0652
32022W        W48206  17.536   3.112  12.465  0.4034  0.0026 -0.0084
32023W        W48207   5.353  15.679   6.369  0.0241 -0.2015  0.1553
32024W        W48208  11.061  16.989  16.572 -0.0511  0.1365 -0.0079
32025W        W48209  17.906  16.933   0.773 -0.2807 -0.0094  0.0488
32026W        W48210  11.337  10.778   4.627 -0.0882 -0.2009 -0.2852
32027W        W48211   6.952  11.861   1.064 -0.2314  0.2707 -0.3368
32028W        W48212  12.300   9.586  14.541 -0.1246 -0.3136  0.0265
32029W        W48213   4.412  17.130   1.071 -0.0495 -0.0602 -0.2341
32030W        W48214   9.221  17.441   0.263  0.0268  0.1690 -0.1114
32031W        W48215   4.052   5.077  11.049  0.2288 -0.1533 -0.2106
32032W        W48216  13.673   9.538   4.199 -0.0318  0.5901 -0.0598
32033W        W48217   7.166   2.447  16.264 -0.0672  0.2973  0.3727
32034W        W48218   2.930   3.115  14.409 -0.1453 -0.2043 -0.0921
32035W        W48219   1.739   1.330   3.657  0.1136 -0.1167  0.4143
32036W        W48220  13.784   4.824  14.992 -0.0688 -0.0128  0.0853
32037W        W48221   6.020   3.249  13.107 -0.0454  0.0552 -0.0281
32038W        W48222  12.527  10.172   1.282  0.0770 -0.0981 -0.0713
32039W        W48223  12.379  17.211  13.971  0.0071  0.3653 -0.2099
32040W        W48224   0.136  11.232   5.832  0.0267 -0.5633 -0.0278
32041W        W48225   9.321   0.666  14.950  0.2552  0.2803  0.2364
32042W        W48226  17.082   6.967  16.366 -0.2382  0.0747 -0.3327
32043W        W48227   8.695   7.152  14.179 -0.0684  0.1386 -0.4904
32044W        W48228  17.406   6.187  13.571  0.0647 -0.1208 -0.1026
32045W        W48229   4.262   7.419   6.433  0.0508 -0.0075  0.3079
32046W        W48230  14.969   8.826   0.945  0.1623 -0.0178 -0.0763
32047W        W48231  11.868  17.290  14.280  0.2488 -0.0147  0.1368
32048W        W48232  13.716   7.212  13.322 -0.1978  0.3519 -0.0049
32049W        W48233  17.342   4.968   0.741  0.1402 -0.0650  0.0045
32050W        W48234  15.019  16.711   2.132  0.4125 -0.1857  0.0434
32051W        W48235   2.037   0.530   5.643 -0.2597  0.1822  0.1274
32052W        W48236   4.382  10.670   1.257 -0.0009  0.2435  0.0360
32053W        W48237   7.162   9.314  15.110  0.2322 -0.2394  0.0090
32054W        W48238  12.626   3.359  14.620  0.0149 -0.1850  0.1741
32055W        W48239  17.423   7.478  15.259 -0.3796  0.0530 -0.1703
32056W        W48240  10.426   8.215   2.323 -0.2760  0.0957 -0.1083
32057W        W48241   3.946   6.987  13.822 -0.1980 -0.0886 -0.0260
32058W        W48242   2.728   9.281   3.188 -0.4181 -0.2253 -0.2618
32059W        W48243   2.975   9.523   2.757 -0.3425  0.1501 -0.1028
32060W        W48244   0.448   9.269  14.958  0.0437  0.2046 -0.0607
32061W        W48245  16.866  12.924  11.353 -0.0223  0.2225  0.2754
32062W        W48246   7.291   2.534   0.038 -0.2011 -0.2054  0.1276
32063W        W48247  14.726  14.527  16.543  0.0979 -0.1170  0.0530
32064W        W48248   8.057   1.443  12.085  0.0286 -0.1954  0.0725
32065W        W48249  18.088   0.045   1.113  0.2218 -0.0778  0.2168
32066W        W48250  11.974   2.003  16.019  0.0227  0.3033 -0.2861
32067W        W48251  15.457  14.083   3.515  0.1860 -0.0124 -0.3151
32068W        W48252  14.336   8.889  14.267  0.2975  0.0772  0.3922
32069W        W48253   0.549  10.231   3.481  0.1691  0.2517  0.0555
32070W        W48254   1.033   2.000   4.503  0.0302 -0.0307  0.1651
32071W        W48255  15.435   5.858   4.047  0.0273 -0.0800  0.0453
32072W        W48256  15.716   9.386  14.697  0.0223 -0.0693 -0.1820
32073W        W48257   4.399   6.329  12.111 -0.0699 -0.0336 -0.1212
32074W        W48258   5.871  15.423  13.014 -0.3844 -0.1083 -0.0313
32075W        W48259   1.443   2.279  14.021 -0.1752  0.2447  0.0493
32076W        W48260  12.232   5.311   0.946 -0.1441 -0.1628  0.0489
32077W        W48261  11.613  15.118   5.637 -0.0317  0.2250 -0.2906
32078W        W48262  14.878  10.162   4.257  0.2633 -0.0278 -0.0689
32079W        W48263   8.757  16.626  13.086  0.3451 -0.1662 -0.0877
32080W        W48264   3.945  16.841  15.176 -0.0899 -0.0895 -0.0937
32081W        W48265  15.653   3.653   0.933 -0.0174 -0.0902  0.1155
32082W        W48266   7.693   1.081   2.843  0.0695 -0.1162 -0.0023
32083W        W48267   5.443   5.890   4.967 -0.2582  0.0564 -0.1055
32084W        W48268  12.404  14.835  16.245  0.1481  0.1540 -0.1360
32085W        W48269  14.920   8.450   3.417  0.1993 -0.1730  0.1491
32086W        W48270  12.293   0.608   0.383  0.1752 -0.2498  0.3476
32087W        W48271  13.137   8.335  13.392  0.0491 -0.3813 -0.1760
32088W        W48272  11.671   3.995   3.410  0.2131 -0.1245  0.2931
32089W        W48273   4.168   3.309  12.526  0.0270  0.1010  0.1491
32090W        W48274   3.421  13.511  16.252  0.0946  0.0840  0.1405
32091W        W48275   8.351  14.505   4.518 -0.3998 -0.3782 -0.0266
32092W        W48276  13.709  10.541   0.771  0.2898  0.3584  0.0332
32093W        W48277  13.671   1.535  12.619  0.2085 -0.3218 -0.4562
32094W        W48278   7.942   6.480  13.360 -0.2165  0.0099 -0.2744
32095W        W48279   9.805  15.697   3.516 -0.1669 -0.1055 -0.4102
32096W        W48280  15.919  10.173  13.336 -0.1302  0.0897 -0.1784
32097W        W48281   7.332  13.327  15.258 -0.0599  0.1431  0.0472
32098W        W48282   7.916   8.123   2.016 -0.3469  0.3372 -0.0113
32099W        W48283   2.900   4.705  13.699 -0.0013 -0.0730 -0.2114
32100W        W48284  10.356   1.493   2.367  0.2516 -0.4456  0.2508
32101W        W48285   6.008   8.662  12.495 -0.2185 -0.2557  0.3371
32102W        W48286  11.405   2.993  11.428 -0.0832 -0.2629  0.1875
32103W        W48287   1.085   3.750  10.850  0.0686 -0.0750  0.1515
32104W        W48288   7.190  15.272  15.853  0.0564  0.1921  0.0496
32105W        W48289   6.508  16.951   3.891 -0.2621 -0.4492  0.0795
32106W        W48290   1.323   4.907  13.912  0.1254 -0.1616 -0.0124
32107W        W48291  12.352   7.023   5.990  0.0962 -0.0315 -0.3573
32108W        W48292   8.469   7.714  13.587 -0.1260  0.0497  0.1784
32109W        W48293  14.602  10.594   3.994 -0.1862 -0.1683 -0.0418
32110W        W48294   3.198  13.769  15.874  0.2142  0.0735  0.2171
32111W        W48295   1.660  14.155  12.024 -0.1682 -0.0493 -0.2338
32112W        W48296  16.892   0.513  14.978  0.2414 -0.1606  0.0576
32113W        W48297   0.382  17.055  11.662  0.0786 -0.3336 -0.0209
32114W        W48298  12.376   0.360   2.433  0.1469 -0.1359 -0.2763
32115W        W48299  15.696   5.810  15.658 -0.1133 -0.0412 -0.3507
32116W        W48300   2.228   2.112  12.474 -0.0669 -0.0822 -0.3102
32117W        W48301   9.916  17.441  16.268  0.1009  0.0052 -0.2067
32118W        W48302   2.076   2.766   1.203 -0.3787 -0.0845  0.2157
32119W        W48303  15.011   8.235  14.784 -0.0578  0.2541 -0.3090
32120W        W48304  13.473   7.000  12.911 -0.2745 -0.1835  0.0996
32121W        W48305   5.126  14.119   4.324  0.1506 -0.1688  0.1646
32122W        W48306  10.623   7.964  12.118 -0.0315 -0.2363  0.4007
32123W        W48307  11.110  12.184   0.085  0.1962 -0.0016  0.1419
32124W        W48308  17.232  18.156  11.161 -0.1582 -0.3311  0.0718
32125W        W48309  15.539   5.447   0.778  0.0629  0.2850  0.0695
32126W        W48310   9.664  12.457  16.408 -0.1227 -0.0434  0.0001
32127W        W48311  17.404   5.241  10.889 -0.1910  0.4695 -0.1572
32128W        W48312  14.961   6.653  11.795  0.2967  0.3177 -0.0068
32129W        W48313  18.136  12.380   5.604  0.1477  0.0227  0.1131
32130W        W48314   8.369  11.129   3.495  0.0463 -0.0467  0.3713
32131W        W48315  17.066   5.439   5.130 -0.0503  0.0201  0.1140
32132W        W48316  11.831   2.230  14.389 -0.2480 -0.0382  0.1181
32133W        W48317   2.156  15.310  16.193 -0.2988 -0.0056  0.1224
32134W        W48318   4.412  16.076   0.595 -0.5923  0.0986  0.1882
32135W        W48319  12.974  13.781   3.202  0.2216 -0.1810 -0.2821
32136W        W48320  18.097   9.146   2.139  0.2589  0.0077  0.0830
32137W        W48321   3.417  16.103   0.697  0.0764 -0.0988 -0.3327
32138W        W48322   1.401   9.340   0.829 -0.0147  0.0806  0.1727
32139W        W48323   7.769   5.007   1.447 -0.1318 -0.0103 -0.1054
32140W        W48324   9.295  10.315  12.344 -0.1271  0.1807 -0.2786
32141W        W48325   1.889  12.927  12.082  0.1854  0.1463  0.2268
32142W        W48326   6.904   9.434   4.545 -0.0773  0.1230 -0.0287
32143W        W48327  17.552   6.647   2.330  0.0591 -0.1817 -0.1005
32144W        W48328   9.429   4.555  15.162 -0.2091  0.2806 -0.2906
32145W        W48329  18.053   2.604   4.879 -0.0495  0.0885  0.4372
32146W        W48330   6.205  11.312   6.031 -0.0419 -0.1582 -0.1324
32147W        W48331   8.865   6.646   2.148  0.2987 -0.2187 -0.0535
32148W        W48332  11.238   2.910   4.362 -0.1084 -0.2452 -0.1138
32149W        W48333  12.499   2.791  15.352 -0.2034 -0.1102  0.1358
32150W        W48334  17.314   4.724  10.861 -0.0908  0.1010 -0.3136
32151W        W48335   8.047   4.716  11.499  0.1903  0.0301  0.0349
32152W        W48336   9.825  12.085  14.832 -0.1942  0.1096  0.2690
32153W        W48337   8.013  14.683  15.239  0.1078  0.0778  0.3271
32154W        W48338   7.776  17.304  15.601  0.1546  0.0728 -0.1158
32155W        W48339   5.447   5.772   1.719 -0.0779 -0.0224  0.3168
32156W        W48340   7.653   2.742  13.472 -0.1499 -0.0882  0.1801
32157W        W48341   0.585   5.115   5.716 -0.0264 -0.1467  0.2105
32158W        W48342   8.644   7.249   3.489  0.1212  0.0335 -0.2461
32159W        W48343   2.744   8.024  15.165 -0.0854 -0.0882  0.0054
32160W        W48344   4.326  11.156   5.786  0.0815  0.2457 -0.2501
32161W        W48345   5.065  11.982   2.981  0.0527  0.1913  0.0178
32162W        W48346   0.398  10.327   0.208  0.1829 -0.1196  0.2084
32163W        W48347   0.644  11.704  16.166 -0.2335  0.0138  0.2369
32164W        W48348  13.143   3.470   2.543  0.1338  0.1598  0.0216
32165W        W48349  15.529   1.197   0.409  0.0222  0.0051 -0.0670
32166W        W48350   9.699   5.397  15.248  0.0534  0.0006  0.0304
32167W        W48351  16.411   7.931  15.041 -0.1062  0.0461 -0.0733
32168W        W48352   5.197   1.367  10.634 -0.0092 -0.0246 -0.2186
32169W        W48353   7.430   5.124  14.396  0.0611 -0.0224 -0.2931
32170W        W48354  15.231  11.393   5.577  0.2895 -0.0477  0.1025
32171W        W48355  17.908   8.123  11.346 -0.0439 -0.3475 -0.2795
32172W        W48356   4.995   9.979   5.295  0.0799  0.1939 -0.0334
32173W        W48357  11.767   8.133   4.009  0.1891 -0.0925  0.2012
32174W        W48358   3.107  11.255   0.594  0.0106 -0.2373 -0.0694
32175W        W48359   4.353   2.224   3.356 -0.1138 -0.3279 -0.0280
32176W        W48360   2.713   8.506   5.823  0.1987  0.0964  0.0432
32177W        W48361  14.824   3.335  13.016 -0.0040  0.1523 -0.2034
32178W        W48362   8.090  14.847  12.654 -0.2091  0.1527  0.3257
32179W        W48363  15.655   5.552   3.038 -0.0059 -0.1858  0.1136
32180W        W48364   2.119  11.321  13.863 -0.0786 -0.0832 -0.1632
32181W        W48365   0.607  16.405   1.965 -0.5744  0.0840  0.1320
32182W        W48366   2.767   8.651   4.477  0.0895 -0.1469 -0.0691
32183W        W48367  13.533  14.405   6.461 -0.2444  0.0381  0.3832
32184W        W48368   7.142  12.662   4.052 -0.3797 -0.3498 -0.1031
32185W        W48369  16.784  14.645  14.663 -0.0758 -0.0100 -0.1566
32186W        W48370  14.605  13.344   5.972  0.0768 -0.1816 -0.0960
32187W        W48371   7.345   9.262  12.385 -0.1262  0.1257  0.1443
32188W        W48372   7.033  15.284  14.999  0.0038 -0.2971 -0.0148
32189W        W48373  15.919   8.024  14.957  0.2153  0.1271 -0.0341
32190W        W48374  10.144  13.860   0.300  0.0009  0.1970  0.1383
32191W        W48375  16.129   2.748  16.128 -0.0437 -0.0780 -0.0133
32192W        W48376  10.472   3.347  11.374  0.4177  0.1879  0.2286
32193W        W48377   6.617   5.605  12.419 -0.3364  0.1736 -0.4856
32194W        W48378   0.510  15.902  12.502 -0.2701  0.1669 -0.2437
32195W        W48379   2.721   7.212   1.055 -0.0759  0.1055 -0.1566
32196W        W48380   2.710  11.619  12.206  0.3739 -0.2808 -0.3961
32197W        W48381   3.186   4.242   5.156 -0.0561 -0.0205 -0.3349
32198W        W48382  17.811  14.859   1.744  0.1587 -0.5180  0.3008
32199W        W48383   7.160   0.026   4.794 -0.2576  0.3688  0.1791
32200W        W48384  11.508   0.861   1.617  0.1688  0.2036  0.2272
32201W        W48385   9.555   9.954  14.290  0.0321  0.5328 -0.0125
32202W        W48386  10.999  13.711   5.214 -0.0993 -0.1097  0.0919
32203W        W48387  12.308   2.366   1.999  0.4891 -0.1890  0.2393
32204W        W48388   2.043   5.617   4.388 -0.0685 -0.1674 -0.0087
32205W        W48389  10.614   3.355   3.263 -0.0615 -0.1953 -0.0125
32206W        W48390  18.054  13.478   5.273 -0.0480 -0.0155  0.0635
32207W        W48391   9.997  15.887   2.194  0.0811 -0.2993 -0.0690
32208W        W48392  11.976   2.867   2.824 -0.0231 -0.2693 -0.0384
32209W        W48393  14.860   3.749   5.613  0.3507  0.0693  0.1135
32210W        W48394   6.878  13.535   2.866  0.2502 -0.0446  0.0011
32211W        W48395  13.218   3.192   5.231  0.0797  0.2784 -0.2710
32212W        W48396  15.925   9.118  11.937  0.2812  0.2313  0.1707
32213W        W48397   5.314   3.569   2.617  0.0283  0.0739 -0.1268
32214W        W48398  10.014  14.630   4.610 -0.1466  0.2290 -0.2507
32215W        W48399   3.389  15.028  15.478 -0.1587 -0.0725 -0.0945
32216W        W48400   3.071  13.791   1.591 -0.0637 -0.1450 -0.3017
32217W        W48401   2.643   1.211  13.441 -0.1892 -0.2977  0.0279
32218W        W48402  17.943   3.578   0.439  0.0233 -0.0592  0.0931
32219W        W48403   0.218   3.205  10.359  0.0496 -0.0694  0.0567
32220W        W48404   1.715  14.512   3.383 -0.4706 -0.0337  0.0951
32221W        W48405  13.041   6.280   2.337 -0.3571  0.0308 -0.2082
32222W        W48406  18.104  10.681   0.853  0.1845  0.1054  0.0216
32223W        W48407  16.740  15.086   0.016 -0.4672 -0.1111 -0.0370
32224W        W48408   9.763  15.436   2.105 -0.0740 -0.0211 -0.0501
32225W        W48409   7.480  10.226   2.580  0.1724 -0.1333 -0.0737
32226W        W48410   5.406   9.218   0.728 -0.2938  0.2007 -0.0407
32227W        W48411  16.418   8.064   2.072  0.0345 -0.0734 -0.2179
32228W        W48412  11.664   8.396   5.654  0.2127  0.0851 -0.1916
32229W        W48413   0.520   6.277  11.481 -0.0712  0.2712 -0.1387
32230W        W48414  11.585   7.873   2.124  0.0809  0.0971 -0.1747
32231W        W48415  12.273   7.372  13.097 -0.1541 -0.0699  0.0811
32232W        W48416   8.470  10.643   3.280 -0.0006 -0.0399  0.0666
32233W        W48417  13.133  17.933   2.519  0.0771 -0.0330  0.1492
32234W        W48418  16.083  17.689  10.601  0.1088 -0.3967  0.2176
32235W        W48419   1.634   8.327   0.758  0.0464 -0.0738 -0.1323
32236W        W48420   6.345   5.173  13.938  0.2426  0.2069 -0.1719
32237W        W48421  14.445   8.526   4.463 -0.3016 -0.1587 -0.1112
32238W        W48422  17.734   3.019   0.563  0.1353  0.3747 -0.3949
32239W        W48423  14.335  10.568   2.952  0.1552 -0.3302 -0.2159
32240W        W48424   7.484  16.590  14.369  0.1233  0.0096  0.1931
32241W        W48425  17.466   2.676  13.558  0.0729  0.1237 -0.1682
32242W        W48426   3.179  16.577   0.864 -0.4265 -0.0086  0.0829
32243W        W48427   7.505  14.702   0.319 -0.2198 -0.2439  0.0320
32244W        W48428   6.798   7.912  13.689 -0.2198 -0.0164 -0.0448
32245W        W48429   8.391   9.323   3.744  0.1471 -0.2290 -0.1381
32246W        W48430  17.132  14.914   1.270  0.1042 -0.0464 -0.1535
32247W        W48431  17.585   9.393  14.115 -0.1934  0.0185 -0.2719
32248W        W48432  12.336  15.288  13.719  0.4104 -0.0716  0.2584
32249W        W48433   6.899   1.186   5.529  0.0387 -0.3554 -0.0619
32250W        W48434  17.088  13.895   5.581 -0.5943  0.3700 -0.3849
32251W        W48435   8.400  15.362  16.555  0.3595  0.1296 -0.0406
32252W        W48436  10.858  10.462   1.969 -0.1453  0.1594 -0.0068
32253W        W48437  12.442  12.865  16.390 -0.4225 -0.3340 -0.0280
32254W        W48438   7.159  10.219  15.574  0.0477 -0.0589 -0.2961
32255W        W48439   4.502   1.487  14.878 -0.2967 -0.1898  0.1466
32256W        W48440   5.716   2.436  14.246 -0.1052  0.1263  0.2701
32257W        W48441  13.270  17.729  15.296  0.2330  0.2104  0.1643
32258W        W48442  16.169  15.745   5.216 -0.3074  0.0601  0.0106
32259W        W48443  11.997   6.384  12.149  0.2202  0.0331  0.0044
32260W        W48444   8.185  15.832  13.470 -0.0750  0.2418 -0.2297
32261W        W48445  18.089   7.529   2.217  0.0050  0.1313  0.0566
32262W        W48446   8.907   2.303   1.449 -0.0450  0.1176 -0.0941
32263W        W48447   5.299   1.296  12.097 -0.1169  0.1328 -0.0346
32264W        W48448  11.198   9.757   0.287 -0.1328 -0.1234 -0.0368
32265W        W48449   6.995  11.620  16.027 -0.1624 -0.0271 -0.0310
32266W        W48450  11.512  13.056  13.318  0.0634 -0.2705 -0.2329
32267W        W48451  10.820  10.876   3.379  0.1643 -0.1075  0.1625
32268W        W48452  12.163  12.065  13.954 -0.3022  0.0700 -0.2716
32269W        W48453   0.850  13.642  11.972 -0.0165 -0.0380  0.1980
32270W        W48454   5.518   3.070  12.915 -0.1719  0.0723 -0.0886
32271W        W48455   1.217   2.171   0.654 -0.2460  0.0373 -0.1968
32272W        W48456   7.269   0.012   3.095 -0.4405 -0.0926  0.0327
32273W        W48457   1.844  12.530  11.737  0.3580 -0.1182  0.0108
32274W        W48458  15.178   0.714  11.782 -0.2286 -0.2366  0.1787
32275W        W48459   9.082  18.010  13.543 -0.3153  0.0888  0.0835
32276W        W48460  13.918   1.001   4.637 -0.0579 -0.0570 -0.1926
32277W        W48461   1.423  11.124  14.701  0.4221  0.0510  0.3315
32278W        W48462  14.613   8.102   3.727 -0.0572 -0.1941  0.1237
32279W        W48463   9.216  11.564   4.817  0.2501 -0.0272  0.3197
32280W        W48464   8.560  17.285  12.721  0.0595  0.3218 -0.0378
32281W        W48465  12.427   0.987   2.906  0.1163  0.2236 -0.2432
32282W        W48466  14.363   7.457   1.587  0.0213  0.1662  0.0265
32283W        W48467  10.102   5.928  16.033  0.0744 -0.2825  0.1416
32284W        W48468  13.622   8.242  16.155 -0.1858 -0.1239  0.0672
32285W        W48469   8.311  15.810  14.842  0.2261 -0.1947  0.1025
32286W        W48470   2.124   6.586  15.618 -0.0902  0.0227 -0.2802
32287W        W48471   0.214  16.605  13.294  0.2997 -0.1121  0.1390
32288W        W48472  11.885  14.729   1.960  0.0890  0.0946  0.0353
32289W        W48473  12.057  10.489   2.655 -0.0151 -0.0650  0.1145
32290W        W48474  15.434  13.108  13.879  0.1115  0.2054  0.2630
32291W        W48475   0.819   2.652   4.385 -0.2001  0.0364  0.0375
32292W        W48476  14.932  13.450   3.163  0.0070  0.2214  0.2189
32293W        W48477  14.364   3.817  15.832 -0.0845  0.1848  0.1583
32294W        W48478   6.140  15.617  14.572  0.1995 -0.1719  0.1449
32295W        W48479   5.752   2.811  13.367  0.1400  0.0028  0.1951
32296W        W48480   2.360   3.599   1.451  0.2648 -0.3268 -0.0293
32297W        W48481  10.748  12.049   4.413  0.3095  0.0524  0.2172
32298W        W48482   7.803  16.826   5.731 -0.0313 -0.1046 -0.1260
32299W        W48483   8.755   7.099  12.825  0.1977 -0.1010 -0.2886
32300W        W48484   6.538   7.744  15.813 -0.1683  0.4004  0.0191
32301W        W48485   5.646  10.101  12.207  0.1366  0.1758 -0.0571
32302W        W48486   5.140   2.687   0.513 -0.1386  0.0758  0.1775
32303W        W48487   9.407  12.151   1.512  0.1628  0.1640 -0.1720
32304W        W48488  10.621   6.326  11.727 -0.0456 -0.0594  0.1483
32305W        W48489  11.549   2.381  16.105 -0.2557  0.2442 -0.0290
32306W        W48490  16.135   1.388  11.669  0.2612  0.2217 -0.1151
32307W        W48491   4.181  13.302   2.386 -0.2131 -0.0185 -0.0365
32308W        W48492   4.320   2.815   0.637 -0.0627 -0.0204 -0.1908
32309W        W48493  17.121   8.037  11.849 -0.1449  0.0831 -0.1559
32310W        W48494   4.093  11.044   1.020 -0.3883 -0.2794  0.0413
32311W        W48495   3.197  14.023  16.370  0.2897  0.0671 -0.0261
32312W        W48496  14.660   1.571  16.071  0.1200 -0.1546  0.1845
32313W        W48497   6.682  17.736   4.061  0.2918  0.0221 -0.0382
32314W        W48498   5.588   9.510   2.090  0.3061 -0.3087  0.3023
32315W        W48499  12.476  11.293  12.523  0.2095  0.0263  0.1264
32316W        W48500  13.369  14.064   5.752  0.1716 -0.0352 -0.2377
32317W        W48501   5.851   3.573   2.670  0.0314  0.3930  0.0372
32318W        W48502  16.815  16.811  14.729 -0.2876  0.0806  0.2948
32319W        W48503   5.561  12.134  16.159  0.1203 -0.0796 -0.1678
32320W        W48504   5.822  13.465   2.278 -0.2389  0.0581 -0.0602
32321W        W48505  14.384   5.126   2.139  0.1192  0.2310  0.0726
32322W        W48506   2.445   1.503  15.821 -0.2328  0.0109  0.0700
32323W        W48507   4.789  15.410  15.824  0.0445 -0.1090 -0.3405
32324W        W48508   1.034   1.366   4.930  0.1754  0.0189 -0.1657
32325W        W48509   5.633   1.970   3.847  0.2255  0.1440  0.2949
32326W        W48510  11.818   5.956  11.720 -0.0911  0.2702 -0.2184
32327W        W48511   0.329  14.746   5.270  0.0080 -0.0448 -0.0947
32328W        W48512  14.571  14.282  14.702 -0.1950  0.4242  0.0105
32329W        W48513   9.502  12.572  13.504  0.0345 -0.0043 -0.0093
32330W        W48514   0.282  10.194  13.650 -0.0561 -0.0697  0.1299
32331W        W48515   8.605   1.905  13.347 -0.2557  0.2861  0.2228
32332W        W48516   1.369  14.940   1.385  0.0029  0.1354  0.0997
32333W        W48517  18.087   1.731  15.572  0.2448 -0.0935  0.0019
32334W        W48518   3.489   3.056   3.401  0.1448  0.3649  0.0282
32335W        W48519  11.272  13.216   0.174  0.1940 -0.0585 -0.1280
32336W        W48520   6.137  16.586  14.385  0.1159 -0.1438  0.0187
32337W        W48521   9.189  15.438   3.875 -0.0956 -0.0852 -0.1979
32338W        W48522  15.021   3.531  14.169  0.0901  0.0180 -0.1383
32339W        W48523  11.684  17.314   5.077 -0.2058 -0.2203 -0.1534
32340W        W48524  14.316   4.889  11.522 -0.0470 -0.0551  0.0275
32341W        W48525  16.094  11.948   0.264 -0.0528 -0.1953 -0.0063
32342W        W48526  17.022  10.188  12.972 -0.0676  0.0316 -0.0145
32343W        W48527  17.903   1.132  14.288  0.0305  0.0663 -0.1046
32344W        W48528   2.013   9.784  13.396  0.2900  0.2176 -0.1659
32345W        W48529   4.089  17.494   1.135  0.0235 -0.0674  0.2505
32346W        W48530   5.127  10.458   1.227 -0.0337 -0.1614  0.2568
32347W        W48531  13.642  14.926  12.040 -0.0018  0.2028 -0.0321
32348W        W48532  12.847  17.329   2.404  0.2817  0.3549  0.1690
32349W        W48533   7.080   4.597  13.394 -0.1363  0.0429 -0.0241
32350W        W48534   9.243   9.054   2.619  0.3497 -0.1970 -0.1663
32351W        W48535  17.021  13.168  12.684  0.0518  0.1135  0.0313
32352W        W48536  16.000  12.231   3.017 -0.2417  0.0208  0.2776
32353W        W48537  15.695   6.023  16.497  0.0111 -0.0224 -0.0288
32354W        W48538   5.961   7.443  11.967 -0.2503 -0.0485 -0.0459
32355W        W48539  12.809  17.404  13.666 -0.1308 -0.0382 -0.0015
32356W        W48540   6.489   2.356  14.594  0.5452  0.1776 -0.2737
32357W        W48541   3.002   5.248   0.726 -0.0910 -0.0078  0.1531
32358W        W48542  14.616  14.275  15.835 -0.1145 -0.0870 -0.0793
32359W        W48543   2.695  14.263  12.549  0.0411 -0.1262 -0.0442
32360W        W48544   9.646  10.514   5.309  0.3576  0.1695 -0.2889
32361W        W48545  11.661   6.139   0.654 -0.4082  0.1420  0.2997
32362W        W48546  14.532   3.713  13.233  0.1422 -0.0388 -0.0660
32363W        W48547  17.288   7.260   3.415  0.2255 -0.2048 -0.0526
32364W        W48548   3.303  12.685  16.290  0.2777  0.5277  0.1365
32365W        W48549   1.213   8.026  12.066  0.0328  0.0481 -0.0651
32366W        W48550   9.814   2.208   4.668  0.0448  0.5215  0.1251
32367W        W48551   9.841   5.929   2.264  0.0114 -0.1164  0.1846
32368W        W48552  16.177  14.335   3.513 -0.3811  0.3856  0.2641
32369W        W48553  15.067  12.264   1.079 -0.1559  0.1667  0.1168
32370W        W48554   8.048   1.070   2.439  0.1279  0.0335  0.0314
32371W        W48555   0.903   7.001  13.657 -0.1922  0.2163 -0.0646
32372W        W48556   6.931   1.929  14.352 -0.2845 -0.3585 -0.1756
32373W        W48557   0.908  10.095  15.908 -0.0206  0.2929 -0.3732
32374W        W48558  11.057   3.609   1.056  0.0189  0.1304 -0.0112
32375W        W48559   6.488  15.197  12.954 -0.2371  0.0007 -0.0107
32376W        W48560  11.084  17.405  11.593 -0.0822 -0.2583  0.1389
32377ION     NA48561  11.810   4.753   6.167  0.0673  0.1449  0.1330
32378ION     NA48562   2.314  13.344   6.019 -0.3455  0.1526  0.2022
32379ION     NA48563  17.685   3.664  11.406  0.1375 -0.2633 -0.1463
32380ION     NA48564  15.248   0.624  10.493  0.0751  0.1450  0.0279
32381ION     NA48565   2.895  16.946  10.895 -0.1072  0.2371  0.0879
32382ION     NA48566   1.921   1.393  15.756  0.0575 -0.1576  0.2239
32383ION     NA48567   1.384  11.557  11.285 -0.1380 -0.0330  0.0938
32384ION     NA48568   8.488   1.743  10.713 -0.2846  0.0505  0.1354
32385ION     NA48569   8.249   5.827   2.322  0.2947 -0.0024  0.0645
32386ION     NA48570  10.710  11.330  10.948  0.0861  0.3680  0.0172
32387ION     NA48571  13.689   3.417  10.328 -0.1603  0.0834 -0.0463
32388ION     NA48572   9.911   8.810  10.751 -0.1083 -0.0809  0.0448
32389ION     NA48573   5.753   3.438   0.324  0.0387  0.1579  0.2138
32390ION     NA48574  13.551  11.626  10.780  0.4336 -0.0862  0.1144
32391ION     NA48575   9.050   1.010  15.230 -0.0405  0.0345 -0.1103
32392ION     NA48576   9.406  10.442   3.090 -0.2398  0.3502  0.3156
32393ION     NA48577  14.900  14.173   6.224 -0.0887  0.1239  0.1805
32394ION     NA48578  11.565  11.780  10.853  0.3335  0.0264  0.2406
32395ION     NA48579   1.604  15.703   4.756  0.3071 -0.0139 -0.2929
32396ION     NA48580   4.847  17.953   6.156 -0.1475 -0.0393  0.2414
32397ION     NA48581   9.700   0.708  10.823  0.0556 -0.0224 -0.0163
32398ION     NA48582   5.415   4.182   5.731  0.0086  0.2909 -0.3055
32399ION     NA48583  12.069   1.825  10.752  0.0599  0.3604 -0.0228
32400ION     NA48584   3.980  15.712   5.220  0.0926  0.3657 -0.0521
32401ION     NA48585   1.165  13.913  10.823  0.0416 -0.0110 -0.0461
32402ION     NA48586   5.176  13.217  10.922 -0.0799  0.0599  0.1679
32403ION     NA48587  17.975  13.332  13.963 -0.1838 -0.4608 -0.1048
32404ION     NA48588   8.803  15.659   6.103 -0.1966 -0.2074 -0.2330
32405ION     NA48589  15.050   9.544  10.687 -0.0029  0.2696  0.1363
32406ION     NA48590  14.935  14.596  10.999 -0.0009 -0.2583 -0.2825
32407ION     NA48591   1.602  17.343   2.623  0.1121  0.0002  0.2099
32408ION     NA48592   8.839   7.665   2.829  0.1852 -0.0892  0.3950
32409ION     NA48593   5.078  17.751  10.726  0.1784  0.2630  0.2847
32410ION     NA48594   0.318  14.224  10.815 -0.1502  0.2494  0.0596
32411ION     NA48595   9.001   1.613   5.960  0.2442 -0.0798  0.0564
32412ION     NA48596  14.087  16.138  10.523 -0.1868 -0.3822 -0.4702
32413ION     NA48597  16.381   2.571   5.469  0.0196 -0.0283  0.3574
32414ION     NA48598  10.750  14.803  11.010 -0.2262 -0.1468  0.1347
32415ION     NA48599   7.165  16.516  15.288 -0.0269  0.0809  0.3919
32416ION     NA48600   3.429   9.275  10.733  0.1973 -0.2221  0.0495
32417ION     NA48601   4.321   7.438  10.694  0.2027 -0.0954 -0.0138
32418ION     NA48602   8.125  15.155  11.709 -0.0364 -0.0593  0.3751
32419ION     NA48603   5.028   9.995  11.250  0.4495  0.0051 -0.1908
32420ION     NA48604  10.159  12.034  11.073  0.0493 -0.2872  0.0200
32421ION     NA48605   9.724  14.586  11.528  0.0929 -0.0225  0.5273
32422ION     NA48606  13.754  17.887   3.957  0.2490 -0.2188 -0.0269
32423ION     NA48607  10.061   2.711  12.827  0.2344 -0.0219 -0.3131
32424ION     NA48608   1.574   7.919   5.767  0.2814  0.0388 -0.1484
32425ION     NA48609  10.753  17.275   5.977 -0.0481 -0.2785  0.0561
32426ION     NA48610   2.641  10.433  11.007  0.1996 -0.1502  0.2766
32427ION     NA48611  12.562  14.265   5.501 -0.0749 -0.1606  0.0258
32428ION     NA48612  15.287   4.744   9.696  0.3885  0.1563  0.0015
32429ION     NA48613   2.403   0.542  10.793 -0.0814  0.0587 -0.0003
32430ION     NA48614   1.745   5.445  15.671 -0.0174  0.0006  0.0252
32431ION     NA48615   0.843   8.457   4.050  0.0654  0.0277 -0.2190
32432ION     NA48616   8.743   4.474   1.451  0.0328  0.5182 -0.0633
32433ION     NA48617   8.310  14.155  10.961  0.1361  0.0741 -0.0551
32434ION     NA48618  17.930  16.472  10.698  0.0598  0.1781 -0.0453
32435ION     NA48619   3.394   4.105   5.675 -0.0313 -0.4474  0.3111
32436ION     NA48620  13.378  13.714  10.876  0.2214 -0.1368  0.1095
32437ION     NA48621  17.920   7.046   9.854 -0.1277  0.0001  0.0721
32438ION     NA48622  13.820  15.435  10.750  0.0209  0.2056  0.2241
32439ION     NA48623   3.537   1.300   5.846 -0.3072 -0.0415  0.0332
32440ION     NA48624   4.481   8.082  10.686  0.0107  0.0485 -0.2854
32441ION     NA48625  10.139  12.725  11.109 -0.3179 -0.0641 -0.0353
32442ION     NA48626   5.040  14.491  12.821  0.2592  0.1319 -0.1823
32443ION     NA48627   3.995   9.854  11.208 -0.0787 -0.0833 -0.2280
32444ION     NA48628  16.538  15.784  12.600  0.3216  0.3026 -0.2016
32445ION     NA48629  10.250   0.809  14.462 -0.2135 -0.2528  0.0886
32446ION     NA48630   4.211   5.836  10.417 -0.1879  0.2150 -0.2230
32447ION     NA48631   7.975   5.147   6.272  0.0314  0.1645  0.3233
32448ION     NA48632  16.680   0.706  13.630  0.0488 -0.2488  0.0234
32449ION     NA48633  11.670  15.062  14.881 -0.2734  0.2531 -0.1978
32450ION     NA48634   0.250   9.646  10.693 -0.2516  0.0788  0.0579
32451ION     NA48635  16.734   9.842  10.368 -0.2887 -0.3176  0.2409
32452ION     NA48636  16.059   3.305   9.588  0.2230  0.2037 -0.0521
32453ION     NA48637  14.735   7.873   2.756  0.0713  0.0376 -0.0060
32454ION     NA48638   3.981  16.410   2.260  0.2327 -0.0488 -0.0043
32455ION     NA48639  13.738   2.389  10.589 -0.3266  0.0423 -0.2063
32456ION     NA48640   2.906   7.156   5.723 -0.2050 -0.4048  0.1599
32457ION     NA48641   5.662   1.566  10.862  0.1328 -0.3146  0.0593
32458ION     NA48642  10.307  10.986  13.025  0.1794  0.2351  0.1553
32459ION     NA48643   9.072   0.723   6.044  0.4092 -0.1868  0.0189
32460ION     NA48644  10.960   9.846   5.907 -0.1255  0.1531  0.2853
32461ION     NA48645   5.057   3.238  10.840 -0.1254  0.0726 -0.0811
32462ION     NA48646   1.639   0.992  10.329  0.0017  0.1043  0.1931
32463ION     NA48647   8.463   3.626  10.599  0.1249  0.0102 -0.1720
32464ION     NA48648  17.959   7.986  10.205  0.1847 -0.3639 -0.1339
32465ION     NA48649  12.620   6.728  10.569  0.1209  0.1156 -0.0479
32466ION     NA48650   0.671   0.224  10.561 -0.0068  0.0510  0.0467
32467ION     NA48651   8.381   7.511  10.876 -0.1455 -0.0094 -0.2862
32468ION     NA48652  13.135  10.911  13.504 -0.1361  0.0281  0.1817
32469ION     NA48653   9.064  16.065   1.908  0.3820 -0.1176 -0.2851
32470ION     NA48654  10.044   7.353  10.942 -0.0204  0.0284 -0.2447
32471ION     NA48655  15.465  15.592  11.783  0.2869 -0.3086 -0.0350
32472ION     NA48656   2.603  12.718   6.154  0.0257  0.0047  0.0996
32473ION     NA48657  12.942  15.104   4.074  0.2388 -0.0756 -0.1734
32474ION     NA48658   2.499   2.269  10.522  0.1315  0.1519 -0.0133
32475ION     NA48659  12.972  12.281  10.719  0.1228 -0.0699  0.3253
32476ION     NA48660   1.120   7.348   1.759 -0.2157 -0.0277  0.0641
32477ION     NA48661  14.286   6.587  10.013 -0.2625  0.0451  0.0231
32478ION     NA48662  16.267   7.847   9.923 -0.1375 -0.1441 -0.0690
32479ION     NA48663  11.353   6.575  16.347  0.2141 -0.2094 -0.3745
32480ION     NA48664  12.168  11.885   4.675 -0.0305 -0.0108  0.0853
32481ION     NA48665  17.824  17.580  10.720 -0.1377 -0.3540  0.0499
32482ION     NA48666   3.551   7.721  10.841 -0.2122 -0.1373  0.0978
32483ION     NA48667   3.114  15.917  10.910  0.0953 -0.2683 -0.1229
32484ION     NA48668   4.179   1.952  10.689  0.0546  0.5357 -0.0194
32485ION     NA48669  10.266   6.440  10.765  0.0246 -0.1508 -0.1639
32486ION     NA48670  16.365   8.176  14.523 -0.1210  0.0841 -0.2414
32487ION     NA48671   7.642   2.194  13.082 -0.2247 -0.1496  0.3061
32488ION     NA48672   4.462  16.337  10.929  0.0658 -0.1208  0.0663
32489ION     NA48673   5.057   2.236  10.902  0.2878 -0.0644  0.0701
32490ION     NA48674   8.278   8.020  10.877  0.1808 -0.1318  0.0916
32491ION     NA48675  15.553  15.749  10.602  0.0371 -0.0980  0.0724
32492ION     NA48676   5.740   8.595  10.947 -0.1791 -0.0283 -0.1095
32493ION     NA48677  12.298  14.467   1.990  0.1146  0.2272  0.6437
32494ION     NA48678   6.072  14.197  11.090  0.1619  0.0382  0.6252
32495ION     NA48679  11.045   1.027  10.651 -0.2575  0.0768  0.0147
32496ION     NA48680  11.014  14.321  10.865 -0.2028 -0.3543  0.4711
32497ION     NA48681   9.716  17.104  13.346  0.0754 -0.0959 -0.1473
32498ION     NA48682  16.121   5.089  10.119 -0.2108  0.1134  0.1091
32499ION     NA48683  14.405   3.857  10.184 -0.1676 -0.0830 -0.0929
32500ION     NA48684  15.956  14.851  10.608 -0.1556 -0.3752  0.2494
32501ION     NA48685  17.415  11.162   6.079  0.1596 -0.3294  0.1910
32502ION     NA48686   4.272   2.858  10.445 -0.0887  0.0138  0.2742
32503ION     NA48687  16.514  11.471  11.785  0.0973 -0.1994  0.1562
32504ION     NA48688   7.987   7.038   6.013 -0.0145  0.0846 -0.1709
32505ION     NA48689   0.672  11.407  10.936  0.1071 -0.2418  0.0260
32506ION     NA48690   3.497  13.006  11.143 -0.1298  0.2477  0.2417
32507ION     NA48691  17.252   2.743  14.077 -0.0225 -0.2502 -0.1635
32508ION     NA48692   7.170   4.468  10.694  0.2473  0.0479  0.0065
32509ION     NA48693  14.678  12.774  11.206 -0.0043  0.0648  0.5074
32510ION     NA48694  17.519   8.061   4.697  0.1468  0.1217 -0.0759
32511ION     NA48695  13.730   1.338  10.711  0.2027 -0.0143 -0.1145
32512ION     NA48696  14.544   8.586  15.613  0.2853  0.1224 -0.0565
32513ION     NA48697  10.197   9.568   6.195  0.0563  0.1254  0.0905
32514ION     NA48698  11.823  12.799   3.116  0.1285 -0.0179  0.0770
32515ION     NA48699  10.920   5.518   6.153 -0.0070  0.1913  0.2188
32516ION     NA48700  11.507  15.681  11.590  0.0711  0.3115 -0.1912
32517ION     NA48701   5.275   0.373  10.984 -0.1435 -0.0123  0.3046
32518ION     NA48702  14.371  13.692   6.368 -0.0063  0.3597 -0.1639
32519ION     NA48703  18.051  11.009  10.792 -0.2432 -0.1879  0.1546
32520ION     NA48704  15.504  10.431  10.730  0.1298 -0.1253  0.1410
32521ION     NA48705   1.191   3.265  10.767 -0.4998  0.0146  0.2944
32522ION     NA48706   5.922   8.945   6.189 -0.4638 -0.0200 -0.2351
32523ION     NA48707  17.658   9.558  10.216 -0.0091 -0.2462  0.0943
32524ION     NA48708   7.637   9.432  12.787 -0.2152 -0.2177  0.0221
32525ION     NA48709   8.045  15.487   4.735 -0.2972  0.2169  0.1838
32526ION     NA48710   3.970   6.365  14.586  0.1582  0.3494  0.0522
32527ION     NA48711   5.421   1.737  11.884  0.2114  0.1195  0.0728
32528ION     NA48712   0.653  14.704   6.155  0.0365 -0.1179  0.3477
32529ION     NA48713  12.639   2.795  16.343  0.1161  0.0148  0.0802
32530ION     NA48714   2.611   6.703  10.321 -0.0493 -0.0187 -0.0706
32531ION     NA48715   6.516   2.942   3.078 -0.0426  0.3313 -0.1636
32532ION     NA48716   6.688  16.162  10.908  0.0233  0.2801 -0.1181
32533ION     NA48717  12.811  16.362  10.718 -0.1651  0.3983 -0.1485
32534ION     NA48718  12.935   7.660  10.313  0.0385 -0.0673  0.1227
32535ION     NA48719  13.110   5.857  10.197 -0.1267  0.3125 -0.1477
32536ION     NA48720  12.161   3.584  11.068  0.3016 -0.0461 -0.0086
32537ION     NA48721  15.675   4.311   5.495 -0.1110  0.2116  0.2774
32538ION     NA48722  16.345  17.284  12.493 -0.0328  0.3057 -0.0942
32539ION     NA48723  15.172   5.089  16.636  0.0262  0.2613 -0.1433
32540ION     NA48724   6.709   6.053  10.872  0.1011  0.1382  0.0163
32541ION     NA48725   8.614  17.898  10.678 -0.2201  0.0354  0.0049
32542ION     NA48726  14.956  12.355  14.921 -0.0961  0.1581  0.1916
32543ION     NA48727   3.044   8.456  10.613 -0.1365  0.2336 -0.1372
32544ION     NA48728  17.664  14.402  11.014  0.0154 -0.2188  0.1800
32545ION     NA48729  17.437   2.772   9.826 -0.2697  0.2367 -0.0002
32546ION     NA48730   0.351   6.418  10.167 -0.0264 -0.1741 -0.0558
32547ION     NA48731  18.111  12.699  10.906  0.2238  0.0636 -0.1175
32548ION     NA48732  12.005  14.044   0.141  0.1496 -0.1446  0.2510
32549ION     NA48733  15.576  14.264  10.777 -0.2395  0.1979  0.0051
32550ION     NA48734  10.392   1.442  10.620  0.0718 -0.3646 -0.1885
32551ION     NA48735   7.495   2.747  10.778  0.2017  0.2007 -0.2213
32552ION     NA48736   0.306   2.830   9.898  0.0813 -0.2458  0.1628
32553ION     NA48737   3.288   9.516   0.360 -0.1290 -0.0015 -0.6370
32554ION     NA48738   7.758  13.422  14.418  0.2959 -0.4152 -0.1434
32555ION     NA48739   7.508   3.510  10.840 -0.0092 -0.0821 -0.1208
32556ION     NA48740   2.599  15.738   4.420 -0.0761 -0.0865  0.0871
32557ION     NA48741   1.240   5.384   1.811  0.2300 -0.0110  0.2454
32558ION     NA48742   1.315  13.141  11.089  0.2769  0.1035  0.2601
32559ION     NA48743   4.015  17.645  10.787  0.1801  0.0792 -0.1362
32560ION     NA48744  14.082  14.824   4.580  0.0056 -0.2464  0.2236
32561ION     NA48745  14.335   4.926   0.045  0.0875  0.0089 -0.0472
32562ION     NA48746   9.065   2.425  10.545  0.2101 -0.0431  0.1367
32563ION     NA48747  15.773   6.695  12.766 -0.2350 -0.0261  0.1973
32564ION     NA48748   9.279   9.208   5.950  0.2338 -0.1762  0.3099
32565ION     NA48749  15.875   4.021   9.541  0.1517  0.0450 -0.1313
32566ION     NA48750   2.156  11.846  10.961  0.1772  0.2141  0.0565
32567ION     NA48751   3.579   0.990  11.252 -0.2783 -0.0042  0.0633
32568ION     NA48752   1.126  15.678  10.712  0.0410  0.0527 -0.2149
32569ION     NA48753   2.181  12.051  14.568 -0.2412 -0.0112 -0.0151
32570ION     NA48754   9.204  14.420  10.855 -0.1847 -0.2941  0.1714
32571ION     NA48755   3.644  11.682  11.021 -0.3101 -0.0696  0.0149
32572ION     NA48756  13.751   3.279   0.787  0.1906 -0.0370 -0.0535
32573ION     NA48757   0.938  16.279   0.674 -0.0868 -0.0512  0.0323
32574ION     NA48758   7.641   6.247  10.747  0.3124  0.0565 -0.0472
32575ION     NA48759  10.553  11.704  11.959 -0.0896 -0.0793 -0.2714
32576ION     NA48760   9.138   2.950   5.338 -0.0181  0.0176 -0.1589
32577ION     NA48761  15.388   7.758  10.039  0.1650 -0.0442  0.1773
32578ION     NA48762  10.763   1.201   6.190 -0.6941  0.1435 -0.4675
32579ION     NA48763  12.168   0.541  11.072  0.1725 -0.0927 -0.4624
32580ION     NA48764   1.509   9.035  12.256  0.0896  0.1063  0.0528
32581ION     NA48765   7.857  13.339  10.868 -0.1550  0.3053 -0.1673
32582ION     NA48766  16.735   2.674  10.760  0.2597 -0.1709  0.1704
32583ION     NA48767   3.217   2.651  16.289  0.1721  0.2793 -0.0429
32584ION     NA48768   3.979  12.153  11.004 -0.1007  0.3754  0.0701
32585ION     NA48769  13.641   6.077  10.194  0.1658  0.0200 -0.0417
32586ION     NA48770   6.421   9.317  11.077  0.3994 -0.1143  0.2703
32587ION     NA48771  17.036   1.919   5.596 -0.0556 -0.2692 -0.0297
32588ION     NA48772  14.898  16.240  10.316  0.2363  0.2685 -0.2624
32589ION     NA48773   6.221   6.885  10.717 -0.2657  0.2225  0.0773
32590ION     NA48774  10.785  14.891   5.999  0.0897  0.2099 -0.0270
32591ION     NA48775   8.318  11.894  11.243  0.1128 -0.0747  0.3476
32592ION     NA48776   8.561   8.016   6.134  0.0567  0.0713 -0.1577
32593ION     NA48777   7.643  18.090  10.595 -0.0062  0.0257 -0.1493
32594ION     NA48778  15.868  14.946   2.033  0.4382 -0.1134 -0.1297
32595ION     NA48779   7.800   0.605   1.538 -0.1396 -0.3203 -0.3961
32596ION     NA48780   1.639   3.018  15.051  0.3072 -0.0208  0.0621
32597ION     NA48781  10.573   0.329   1.922 -0.0809  0.1483 -0.1272
32598ION     NA48782   8.585   4.104  11.962 -0.0460  0.2311 -0.0607
32599ION     NA48783   8.707  16.094   4.710 -0.1032 -0.1910 -0.1118
32600ION     NA48784   4.344   5.563  12.814 -0.2283  0.0737  0.1570
32601ION     NA48785  17.683  10.119  10.574  0.1716 -0.0631  0.1069
32602ION     NA48786  13.850   2.528  12.308 -0.0624  0.1517 -0.4380
32603ION     NA48787  11.428   2.315  11.444 -0.0702 -0.1934  0.0967
32604ION     NA48788   9.626  11.716   0.517 -0.3977  0.0155 -0.1183
32605ION     NA48789  15.243   3.329   9.979  0.1292 -0.2307 -0.1684
32606ION     NA48790   6.300   3.762  10.765  0.1055  0.0995  0.1611
32607ION     NA48791  15.318   1.215   4.530  0.1936 -0.2694  0.0263
32608ION     NA48792  15.886  14.316   0.944  0.1161  0.1331 -0.0442
32609ION     NA48793   0.707  17.956   5.962  0.1223 -0.1860 -0.0827
32610ION     NA48794  14.497   7.797   5.475  0.0378  0.0068  0.2096
32611ION     NA48795   1.963   1.067  12.441 -0.4358  0.1832 -0.0006
32612ION     NA48796   5.238  14.404  11.127 -0.3148  0.2440  0.0815
32613ION     NA48797   7.680   7.306  10.680  0.1560 -0.2963 -0.0761
32614ION     NA48798   4.732  14.267  11.243 -0.1769  0.1610 -0.4805
32615ION     NA48799  17.698   4.328   9.505  0.2365 -0.1030 -0.0784
32616ION     NA48800   7.271   7.957   4.501 -0.1921  0.0333  0.1891
32617ION     NA48801  16.850   9.811   2.207 -0.2640 -0.0001 -0.3356
32618ION     NA48802  12.929  14.453  11.009 -0.2681 -0.1508  0.2626
32619ION     NA48803  12.294  16.511  10.763 -0.3994 -0.1621  0.0173
32620ION     NA48804  17.238  13.328   3.759 -0.1311 -0.0278  0.0373
32621ION     NA48805   9.094  17.461   4.746  0.0703 -0.0396  0.1516
32622ION     NA48806   4.180   8.882   5.821 -0.2988 -0.2180  0.2040
32623ION     NA48807  16.256  11.508   0.374  0.1906  0.0985  0.1007
32624ION     NA48808   3.342   2.759  10.356 -0.2264  0.0490  0.0972
32625ION     NA48809   1.613   5.709  14.996  0.0758 -0.0924 -0.0398
32626ION     NA48810   0.706   2.351  10.020  0.1129  0.0959  0.4958
32627ION     NA48811   3.004  14.956  10.927  0.3190  0.0614  0.0584
32628ION     NA48812   0.098  11.780   6.026 -0.2012  0.1719 -0.1733
32629ION     NA48813   8.956  15.351  10.825  0.2508 -0.0859 -0.1677
32630ION     NA48814   5.587   3.456   1.616 -0.1251 -0.0231  0.0826
32631ION     NA48815   5.376   1.425   6.260 -0.3176  0.0537 -0.1089
32632ION     NA48816   1.260   7.844  10.315  0.1524  0.0436 -0.1245
32633ION     NA48817  14.416   1.920  13.028 -0.0318  0.1485  0.2393
32634ION     NA48818  14.827   2.828   2.842  0.2664  0.0369 -0.0317
32635ION     NA48819   0.909   0.211  15.823 -0.1915  0.0737  0.0839
32636ION     NA48820   6.858  14.471  10.995 -0.1372 -0.0855 -0.1456
32637ION     NA48821  15.629   0.677  14.514 -0.0462 -0.0209  0.2599
32638ION     NA48822  10.581   2.910   5.608  0.0802 -0.0011 -0.1124
32639ION     NA48823   1.200  17.836  10.543 -0.2569  0.1455  0.2158
32640ION     NA48824  11.501   0.105  10.733  0.0992  0.0120  0.2069
32641ION     NA48825   3.396   6.219  16.262 -0.0508  0.2037  0.0976
32642ION     NA48826   6.118  11.628  10.932  0.1944 -0.2748 -0.3971
32643ION     NA48827  13.957   8.634  10.410 -0.2481  0.0484  0.2529
32644ION     NA48828  13.077  16.817  10.904  0.1591 -0.0795 -0.0089
32645ION     NA48829  17.899   3.483   9.609 -0.0201  0.0046  0.1554
32646ION     NA48830   1.654   2.037   5.652 -0.1483 -0.0867 -0.2588
32647ION     NA48831   9.679   1.614  11.402  0.1894 -0.2743 -0.0060
32648ION     NA48832  14.562   4.061   5.415 -0.1374 -0.3490  0.3009
32649ION     NA48833   2.686   3.889  16.565 -0.0107 -0.1131  0.0255
32650ION     NA48834   4.353   0.538  10.693 -0.3071  0.0415  0.0968
32651ION     NA48835  10.013  17.253  10.546  0.0527 -0.2542 -0.1993
32652ION     NA48836   5.898  12.574  10.780  0.2206  0.0393  0.0437
32653ION     NA48837   3.325   7.194  10.173 -0.0376 -0.0490  0.0398
32654ION     NA48838   9.010  17.814   5.969  0.2701  0.0091 -0.2054
32655ION     NA48839   4.374  16.646  14.266 -0.1395 -0.0544 -0.0094
32656ION     NA48840   1.017  12.340  13.601  0.2020  0.1875 -0.2643
32657ION     NA48841   9.409  17.441   5.804  0.1777 -0.0479 -0.2461
32658ION     NA48842  16.651   3.334   4.874 -0.1754 -0.2320  0.2329
32659ION     NA48843   1.598  13.970   6.218  0.0636  0.3806  0.1014
32660ION     NA48844  17.979   5.689   9.672 -0.0388  0.0018  0.3928
32661ION     NA48845   7.569   1.280  12.117 -0.1106 -0.0396  0.2387
32662ION     NA48846  16.156   9.252  10.508 -0.1533 -0.0022  0.0694
32663ION     NA48847  15.690  12.054  10.930 -0.3404 -0.0056 -0.0352
32664ION     NA48848   9.889   4.899  10.891 -0.0218 -0.2018  0.0690
32665ION     NA48849   3.688   6.708  10.302 -0.4744 -0.2494  0.0646
32666ION     NA48850   2.630   9.702  10.797 -0.0474  0.1438 -0.2367
32667ION     NA48851  10.134  11.099  11.100  0.0406 -0.3206 -0.5056
32668ION     NA48852   6.047  17.995  10.841  0.0214  0.0343 -0.1534
32669ION     NA48853   2.005  17.199  10.750 -0.3216 -0.0395  0.0547
32670ION     NA48854   3.461   2.886   2.728  0.0958  0.2608 -0.0558
32671ION     NA48855  11.941   8.551  10.574 -0.0484  0.1034 -0.1175
32672ION     NA48856   6.443   1.724  10.897  0.0673  0.0596 -0.0999
32673ION     NA48857   0.718  13.409   3.491 -0.1162  0.0659  0.0009
32674ION     NA48858   7.585   8.543   3.696  0.1325  0.2355  0.2658
32675ION     NA48859   3.516   1.416  12.446  0.2709 -0.0352 -0.2284
32676ION     NA48860   7.632   5.286  10.811  0.2756  0.2414  0.1819
32677ION     NA48861   7.400  11.626  11.017  0.0502 -0.3286 -0.1540
32678ION     NA48862  16.383  11.509  10.772 -0.3356  0.1226 -0.1657
32679ION     NA48863  11.550   8.745  10.919  0.1220  0.0389 -0.0377
32680ION     NA48864  13.834   0.294  10.798 -0.1230 -0.1162  0.4920
32681ION     NA48865   2.618  17.465   2.325  0.3249  0.1872 -0.0200
32682ION     NA48866  13.297   7.712   4.256 -0.2019 -0.3448  0.3187
32683ION     NA48867  11.215   6.546   2.150 -0.3008  0.2195 -0.0690
32684ION     NA48868   5.279  12.214   5.872 -0.1348  0.2093  0.2953
32685ION     NA48869  13.471   1.415   6.098  0.1411  0.0956 -0.1152
32686ION     NA48870  16.609   5.961   5.298  0.2185 -0.1151  0.0083
32687ION     NA48871   6.910  10.074  11.149  0.0494 -0.3049 -0.3127
32688ION     NA48872   6.774  13.651  10.957  0.2132  0.3724 -0.0009
32689ION     NA48873  13.178   9.918   2.508 -0.2334  0.0910 -0.0353
32690ION     NA48874  15.426   2.647  10.727  0.0396 -0.0111 -0.2809
32691ION     NA48875  11.417  12.137  13.312  0.0017 -0.3038  0.1935
32692ION     NA48876  16.300  11.359   6.343 -0.2030  0.1585 -0.1399
32693ION     NA48877   8.890   2.355  13.298  0.1705 -0.1455  0.0666
32694ION     NA48878  11.926  10.490  10.646 -0.2009 -0.2150 -0.1322
32695ION     NA48879   1.854  14.305  10.977  0.1014  0.0494  0.1353
32696ION     NA48880   6.704   2.122   3.299  0.1209  0.0550 -0.2094
32697ION     NA48881   9.962  11.253  11.545 -0.0471 -0.0306  0.2338
32698ION     NA48882   4.330  17.316  10.905 -0.0526  0.0256 -0.0031
32699ION     NA48883  11.745  17.571   0.825 -0.0215 -0.0856  0.0093
32700ION     NA48884  13.287   2.071  15.214 -0.2034 -0.4386  0.3207
32701ION     NA48885   6.669   8.327  11.008 -0.2641 -0.3745  0.1026
32702ION     NA48886   9.883   8.012  13.568 -0.4041  0.1954 -0.0894
32703ION     NA48887  12.767  14.233   3.185 -0.3107  0.2200  0.1736
32704ION     NA48888   2.971   7.470  14.503 -0.2878 -0.3251  0.2868
32705ION     NA48889   7.856  16.773  11.007 -0.0209 -0.3122 -0.2357
32706ION     NA48890   7.380   0.042   6.172  0.2399  0.0652  0.3098
32707ION     NA48891   6.749   5.510   4.541  0.1423  0.1405  0.0233
32708ION     NA48892   3.596   9.122  15.881  0.2107  0.3772  0.1755
32709ION     NA48893   1.853  13.354  11.104 -0.1337  0.1107  0.0347
32710ION     NA48894  18.144   4.026   5.354  0.0699 -0.0907  0.1667
32711ION     NA48895   1.598   6.510  10.541  0.0225 -0.2427 -0.0341
32712ION     NA48896  10.114   8.307  10.866  0.0203  0.1482  0.2055
32713ION     NA48897  14.876   8.624  10.264 -0.2446  0.0927 -0.0094
32714ION     NA48898   9.162   4.331  10.829  0.0470 -0.0175 -0.1877
32715ION     NA48899  17.065  15.977  10.791  0.1684  0.0121  0.0515
32716ION     NA48900   6.836  15.205  11.080  0.0226 -0.1625 -0.1904
32717ION     NA48901   5.902  15.109  11.025 -0.2021  0.0088 -0.2886
32718ION     NA48902   3.919  10.616   1.023 -0.2122 -0.3279  0.3623
32719ION     NA48903   9.466  14.197   3.281 -0.1845 -0.3892  0.2203
32720ION     NA48904   5.064  15.301  11.329  0.2354 -0.1418 -0.3048
32721ION     NA48905   9.696   0.593  14.039  0.1097  0.0688  0.1552
32722ION     NA48906  11.705   9.553  10.622  0.4148  0.4091  0.0692
32723ION     NA48907   5.839   7.221  10.723  0.2349  0.2256  0.1876
32724ION     NA48908   8.252   3.049  10.665  0.2434 -0.2547 -0.0535
32725ION     NA48909  10.762  14.976   4.617  0.1850 -0.2312  0.2213
32726ION     NA48910  17.924   0.862  10.303 -0.0051 -0.0898  0.4063
32727ION     NA48911  14.432   5.201   5.639 -0.1729  0.1372  0.0044
32728ION     NA48912   5.759   5.899  10.699  0.0008 -0.1445  0.0126
32729ION     NA48913   7.370   6.145   3.418 -0.2107  0.0429 -0.2258
32730ION     NA48914   3.638  14.362  11.236 -0.1170  0.2001 -0.2020
32731ION     NA48915   8.259   0.430  11.034  0.0690  0.0350 -0.1250
32732ION     NA48916   6.559   5.091  10.749  0.2513 -0.2015  0.1060
32733ION     NA48917   7.545  15.813  10.882 -0.1934  0.2814  0.1969
32734ION     NA48918   2.411  13.854  11.445  0.2192  0.0420 -0.0874
32735ION     NA48919  10.490  13.802   6.230  0.2557 -0.1993  0.2541
32736ION     NA48920   2.060   8.273  13.291  0.0505 -0.0297  0.0567
32737ION     NA48921   7.893   0.708  11.166  0.2248  0.2224  0.1309
32738ION     NA48922  12.055  14.550  10.878  0.3107  0.0737 -0.1487
32739ION     NA48923   7.813  11.026  11.739 -0.1714  0.1959  0.3349
32740ION     NA48924  13.274   4.602  10.096 -0.2563 -0.2466  0.2828
32741ION     NA48925  15.586  14.917   6.098  0.0860  0.2154  0.1861
32742ION     NA48926   4.971   9.079  11.514 -0.0313  0.3350 -0.0291
32743ION     NA48927   9.210  12.729  11.064 -0.1383 -0.1569 -0.2764
32744ION     NA48928  12.240  17.417  10.910  0.6161  0.3409 -0.2176
32745ION     NA48929   0.979  15.011   4.618  0.0347 -0.0598 -0.1645
32746ION     NA48930   8.920  12.100   2.246 -0.0975  0.2623 -0.1758
32747ION     NA48931  17.261  11.621  10.834 -0.0289 -0.1281  0.0934
32748ION     NA48932   4.578   7.208  13.657 -0.0103 -0.3041 -0.0465
32749ION     NA48933  11.334   0.702   3.590 -0.4848  0.1497 -0.0368
32750ION     NA48934   0.746   4.288   9.772 -0.0984 -0.0740  0.0970
32751ION     NA48935  13.731   7.358   5.670 -0.2549  0.4311 -0.0231
32752ION     NA48936  17.977  13.206   6.160 -0.0381  0.0179 -0.0798
32753ION     NA48937  10.837   7.072  10.706  0.3223  0.0955 -0.1274
32754ION     NA48938   7.455   6.642   5.481  0.1824 -0.1445  0.1769
32755ION     NA48939   3.508  15.885  16.352 -0.1773 -0.0388 -0.1779
32756ION     NA48940   9.993   1.522   6.278  0.0152  0.0815 -0.1898
32757ION     NA48941  13.779   7.010  10.537  0.0564  0.0682 -0.0069
32758ION     NA48942   2.953  12.188  10.976 -0.2237 -0.2186  0.1183
32759ION     NA48943   2.589  14.623  10.864  0.3365  0.0565  0.1230
32760ION     NA48944  15.595  15.371   3.761  0.0024 -0.1717  0.1301
32761ION     NA48945  17.533   4.561  14.106 -0.1171  0.3719  0.3387
32762ION     NA48946   4.363   7.238  11.140  0.1280 -0.0158 -0.2312
32763ION     NA48947   1.147   1.684  10.145  0.2946  0.0629  0.0454
32764ION     NA48948   6.741  10.239   6.535 -0.1972  0.0309 -0.0909
32765ION     NA48949  10.525  18.072  13.555  0.3277 -0.1773 -0.1741
32766ION     NA48950  10.598  15.992   0.714 -0.0581  0.1790  0.0412
32767ION     NA48951   0.687   7.259   5.484  0.1615 -0.1304 -0.1155
32768ION     NA48952  17.176   1.769  10.031 -0.1254 -0.0002  0.0100
32769ION     NA48953  17.117  11.161  11.036 -0.1685 -0.1601 -0.0285
32770ION     NA48954   0.785  13.028  11.278 -0.1192  0.0215 -0.0256
32771ION     NA48955   9.090   1.510  10.767 -0.0876 -0.1550  0.2092
32772ION     NA48956   0.597   5.236   9.699  0.1221 -0.1777 -0.3318
32773ION     NA48957  11.065  12.656  10.908 -0.2646  0.1436 -0.1529
32774ION     NA48958   1.080   9.470  10.678 -0.0910 -0.0262 -0.1039
32775ION     NA48959   0.663   3.356  10.065  0.4123  0.1472 -0.1174
32776ION     NA48960   2.369   4.221   9.976 -0.2322  0.1317  0.2116
32777ION     NA48961  17.816   9.711   6.185 -0.1691 -0.0385 -0.0999
32778ION     NA48962  13.967   9.527  10.477 -0.1755  0.3516 -0.3090
32779ION     NA48963  12.903   3.986  10.644 -0.1405 -0.2264  0.0620
32780ION     NA48964   9.152  12.714   6.336  0.2630  0.1768  0.1162
32781ION     NA48965  17.352   5.088   9.662 -0.0360 -0.0638 -0.0702
32782ION     NA48966  17.049  16.616   6.022  0.0616 -0.0390 -0.0479
32783ION     NA48967  14.832   5.243  10.141  0.1089  0.0159 -0.0624
32784ION     NA48968  13.730  12.479  10.844  0.0980  0.2458  0.1251
32785ION     NA48969  16.521  16.259  10.595 -0.0286  0.2115 -0.1589
32786ION     NA48970  16.202   2.314  16.381  0.1099  0.1459  0.2198
32787ION     NA48971   0.870  15.429   5.967 -0.0496  0.0955 -0.1708
32788ION     NA48972   3.244  11.865  11.827  0.5371  0.0599 -0.3045
32789ION     NA48973   2.857  17.748  10.908 -0.0748 -0.0699  0.1789
32790ION     NA48974   6.842  16.664  10.887 -0.1222  0.2881 -0.0510
32791ION     NA48975   1.612   3.803   9.894 -0.0695  0.2014 -0.4327
32792ION     NA48976   6.996   0.341   0.193  0.5590 -0.1482 -0.1769
32793ION     NA48977   8.136  13.479   5.839 -0.0192 -0.0563 -0.3640
32794ION     NA48978   2.251  11.198  10.929 -0.1079 -0.0043  0.0739
32795ION     NA48979  14.244  11.268  13.287  0.4239 -0.3999 -0.2888
32796ION     NA48980   1.510  12.433  10.948 -0.4460  0.1768 -0.1500
32797ION     NA48981  11.255   6.119  10.940 -0.0418 -0.1532 -0.0624
32798ION     NA48982   8.722  13.591  10.991  0.0020  0.1887 -0.0754
32799ION     NA48983  13.894  16.689  10.791 -0.2295  0.0991 -0.3479
32800ION     NA48984  16.324   4.964   3.806 -0.0222 -0.0050 -0.0504
32801ION     NA48985   9.731   8.455  16.602 -0.1665 -0.1674 -0.1772
32802ION     NA48986   9.213   3.449  10.515 -0.3279 -0.2239 -0.0648
32803ION     NA48987  11.560   1.843  10.729  0.1072  0.0943  0.0221
32804ION     NA48988  17.960   2.001  10.234 -0.0924 -0.0932 -0.0622
32805ION     NA48989  10.621   0.422  10.788 -0.0230 -0.1857 -0.1125
32806ION     NA48990  16.196  15.273  10.728  0.1725 -0.1389  0.2315
32807ION     NA48991   1.333   1.058  14.148 -0.1587  0.1934 -0.1538
32808ION     NA48992   1.906   9.828  15.571  0.2049  0.2486 -0.1331
32809ION     NA48993   3.802  15.134  12.375 -0.0883  0.0177  0.0142
32810ION     NA48994   2.547  15.143  14.860  0.0468 -0.0293 -0.1716
32811ION     NA48995  11.852  13.526  10.999  0.0912 -0.0883  0.1268
32812ION     NA48996   1.863  15.196  10.982  0.1015  0.0012 -0.2249
32813ION     NA48997  10.194   0.123  12.313  0.3804  0.0166 -0.1063
32814ION     NA48998   6.725   9.067  11.332  0.0866 -0.0260 -0.0020
32815ION     NA48999  12.795   8.484   5.818  0.0527 -0.1700 -0.4474
32816ION     NA49000   8.512  16.136  10.725  0.1759 -0.2217 -0.1973
32817ION     NA49001  17.936  10.613   6.252  0.3407 -0.0804 -0.0215
32818ION     NA49002  11.034  10.075  10.764 -0.1235  0.0086  0.0516
32819ION     NA49003  11.420   3.455  11.604 -0.1091 -0.1650  0.0130
32820ION     NA49004   7.978   3.578  14.838 -0.0422 -0.1611 -0.0844
32821ION     NA49005   4.099  17.457   6.258 -0.1282  0.2756  0.0531
32822ION     NA49006  14.368   1.824   1.565  0.0577  0.1317 -0.1056
32823ION     NA49007   8.975  10.328  11.145 -0.0842  0.0878  0.0080
32824ION     NA49008  12.832  15.248  10.694  0.0237  0.1509 -0.0507
32825ION     NA49009  16.682  14.433  10.756  0.1783  0.1108 -0.2751
32826ION     NA49010  15.312  12.428   6.250  0.2157  0.2175 -0.0933
32827ION     NA49011   5.537   9.395  10.935 -0.2870  0.1252  0.0400
32828ION     NA49012  15.289   6.460   5.271 -0.0843 -0.2198 -0.1114
32829ION     NA49013  15.538   1.249  10.181  0.1786  0.1111 -0.4303
32830ION     NA49014  17.570   7.252   5.599  0.0570  0.7006 -0.1687
32831ION     NA49015  13.724  14.723  10.963 -0.1022 -0.1500 -0.2065
32832ION     NA49016  15.235  13.767   1.387  0.1998 -0.0072 -0.0275
32833ION     NA49017   9.629  13.671  11.129 -0.1590  0.0517 -0.1044
32834ION     NA49018   9.471   4.842  12.172 -0.0645  0.3268  0.0618
32835ION     NA49019  10.096   4.041   4.497  0.0383  0.2093 -0.1298
32836ION     NA49020   3.550  14.988  13.871  0.1777  0.3151 -0.2215
32837ION     NA49021  16.940   5.486   9.851 -0.2203 -0.0683 -0.2093
32838ION     NA49022  14.821  16.963   5.802 -0.0961  0.0391  0.2244
32839ION     NA49023   7.881  15.782   6.330  0.0118 -0.2495  0.1494
32840ION     NA49024   4.155   0.445   6.014  0.0388 -0.0135  0.4367
32841ION     NA49025   5.512  17.334  11.084 -0.1332  0.0189 -0.0098
32842ION     NA49026   2.590  15.383  16.600 -0.0168 -0.1266 -0.0583
32843ION     NA49027   4.818  12.410  10.815 -0.2217  0.1973 -0.0600
32844ION     NA49028  10.277  10.591  10.920  0.2894 -0.3356  0.2758
32845ION     NA49029  11.160  11.031  10.880  0.2263 -0.2083 -0.0044
32846ION     NA49030  14.888   4.293   1.790 -0.0785 -0.1412 -0.2474
32847ION     NA49031   8.490  12.823  12.009  0.3094  0.1690  0.1709
32848ION     NA49032  15.645   9.472  11.492  0.2615  0.3156 -0.1890
32849ION     NA49033   0.154   9.443   0.255  0.0708  0.2642  0.0058
32850ION     NA49034  10.250  16.268  10.769 -0.2315  0.1418  0.2013
32851ION     NA49035   9.580  12.843  11.945  0.2721 -0.0297 -0.1171
32852ION     NA49036  13.380   6.252   2.744 -0.0011 -0.0800  0.1047
32853ION     NA49037  17.161  15.652   6.139 -0.1165 -0.0932  0.0595
32854ION     NA49038   7.771   9.118   6.045 -0.4293 -0.1534  0.1321
32855ION     NA49039   1.999   5.207  10.044 -0.0469  0.0604  0.1151
32856ION     NA49040  15.648  17.493  10.420 -0.1747 -0.3540 -0.0219
32857ION     NA49041  16.498  16.794  11.565  0.1914  0.0728  0.3348
32858ION     NA49042  10.659  15.642  16.622  0.1198 -0.0024 -0.1191
32859ION     NA49043  13.487   0.068   2.337 -0.0820  0.0441 -0.0413
32860ION     NA49044  13.590   0.748  14.057 -0.0316 -0.1205 -0.0515
32861ION     NA49045  10.066  14.478  11.043 -0.0442 -0.1523 -0.0681
32862ION     NA49046  16.426  16.143   5.988  0.2719 -0.1650  0.0863
32863ION     NA49047  12.839  18.149  11.356  0.2850  0.3687 -0.0489
32864ION     NA49048   3.158   1.960  10.607  0.0977  0.1574  0.4519
32865ION     NA49049  15.013   6.943  10.071  0.1198  0.0070 -0.0833
32866ION     NA49050   5.196   8.106   5.498  0.2206 -0.0208  0.1143
32867ION     NA49051  10.326  12.623   2.836 -0.0470  0.1723  0.0110
32868ION     NA49052  13.814   5.140  10.237 -0.1087 -0.3779  0.2855
32869ION     NA49053  12.672   2.482  13.965 -0.1792 -0.0364  0.1748
32870ION     NA49054  12.038   5.766  10.635 -0.0727 -0.0261 -0.1054
32871ION     NA49055  11.354  10.885  15.620  0.1878  0.2994 -0.2146
32872ION     NA49056  10.273   9.622  10.939 -0.0081 -0.1005 -0.0335
32873ION     NA49057   1.622   5.005   5.602  0.2882 -0.2481 -0.2172
32874ION     NA49058  16.908   9.367   6.066  0.1590 -0.0269  0.1442
32875ION     NA49059  12.822  13.208   5.719 -0.0531  0.2843  0.0027
32876ION     NA49060   3.091  13.885  11.221  0.0389 -0.0639  0.1399
32877ION     NA49061   1.327   7.752   0.734 -0.2932 -0.5435 -0.1677
32878ION     NA49062  11.859  14.925   6.391  0.0891 -0.2570  0.0729
32879ION     NA49063   9.376  16.071  10.555  0.1469 -0.3204  0.0138
32880ION     NA49064  11.230   4.914   4.496 -0.0023  0.1723 -0.0554
32881ION     NA49065  11.318  16.475  11.175  0.0674 -0.1336  0.2332
32882ION     NA49066  16.116   0.509  10.242  0.0066 -0.0698 -0.1447
32883ION     NA49067   2.243  12.826  10.832  0.3097 -0.1020 -0.2037
32884ION     NA49068  12.027   2.824  10.877 -0.1038  0.1233 -0.0632
32885ION     NA49069   6.522   4.476   0.740 -0.1663  0.2942 -0.0658
32886ION     NA49070   1.454  17.027   3.574 -0.1296  0.3095 -0.3339
32887ION     NA49071   1.853  14.454  16.457 -0.3133 -0.1171 -0.0538
32888ION     NA49072  13.094   8.590  10.541  0.0165 -0.0607 -0.0691
32889ION     NA49073   1.160   0.777  10.283 -0.1506 -0.1918 -0.0208
32890ION     NA49074   4.042   6.383   6.168  0.0568  0.0767  0.0117
32891ION     NA49075   4.947   6.834  10.794 -0.4478 -0.0775  0.1405
32892ION     NA49076  17.897   1.458  16.008 -0.3926  0.0155  0.1108
32893ION     NA49077   6.535  12.010  11.105 -0.0846  0.2616  0.0042
32894ION     NA49078   7.843  15.965  11.252  0.2854  0.0683  0.0585
32895ION     NA49079  11.938   6.624  10.979 -0.0910 -0.0338  0.0344
32896ION     NA49080   3.310   3.648  10.249  0.0355 -0.2018 -0.4119
32897ION     NA49081   5.076   5.441  10.548 -0.0774 -0.0450 -0.2069
32898ION     NA49082   0.650   7.790  13.640  0.0395 -0.2493 -0.1427
32899ION     NA49083   4.345  13.049  11.123 -0.2732  0.1262 -0.0845
32900ION     NA49084   7.333  14.970   6.330 -0.1222 -0.0614 -0.1172
32901ION     NA49085  12.518   9.332   6.115  0.1446 -0.1904  0.2581
32902ION     NA49086   1.189  16.656  10.734  0.1003  0.0516 -0.2423
32903ION     NA49087   3.946   8.919  10.704 -0.0076  0.1298 -0.3368
32904ION     NA49088  17.897   0.828   5.353  0.2614  0.2435 -0.2654
32905ION     NA49089  14.064   9.746  13.365 -0.0972 -0.0746  0.0191
32906ION     NA49090  11.866   7.149   6.056  0.0027 -0.0966  0.1180
32907ION     NA49091  16.262   1.335   2.296  0.0215 -0.0096  0.1831
32908ION     NA49092  16.440   6.080   9.649  0.0089  0.0078  0.1125
32909ION     NA49093  10.802   2.121  10.728 -0.2668  0.0963  0.1492
32910ION     NA49094   8.492   9.272  10.857 -0.1249  0.0532 -0.0631
32911ION     NA49095  18.008  12.206  11.107 -0.1308 -0.0854 -0.1077
32912ION     NA49096  17.984   4.197   1.215  0.1679 -0.0847  0.3940
32913ION     NA49097  12.446   0.714  12.081  0.1886  0.1332  0.4545
32914ION     NA49098   8.576   6.689  10.651 -0.3020 -0.1622 -0.1461
32915ION     NA49099  16.575   3.276   9.533 -0.0266 -0.0135  0.3458
32916ION     NA49100  10.580   5.530  10.816  0.2292 -0.2916  0.0916
32917ION     NA49101  16.479  11.016  12.904 -0.0728 -0.2665 -0.0933
32918ION     NA49102  15.973   8.481  10.646 -0.0127 -0.2130  0.1433
32919ION     NA49103   0.283   8.410   5.340  0.1248  0.3843  0.2059
32920ION     NA49104  16.194  15.463  13.419  0.0343  0.0965  0.0300
32921ION     NA49105  15.783   9.252  13.260 -0.2835 -0.0094  0.0020
32922ION     NA49106   7.963  11.498  14.920  0.0637 -0.0473  0.2041
32923ION     NA49107   4.753   1.665   2.029 -0.0590  0.0462  0.1222
32924ION     NA49108   4.523   7.049   6.043  0.5386 -0.0373 -0.1979
32925ION     NA49109   9.338  13.499   5.885  0.1708 -0.1948  0.0127
32926ION     NA49110   0.282  16.068  10.696 -0.1207 -0.1233 -0.2556
32927ION     NA49111   2.723   7.714  10.461 -0.1223 -0.4067  0.2326
32928ION     NA49112  16.798   8.457  10.112 -0.2719  0.4350 -0.0189
32929ION     NA49113  16.427  10.673  10.641 -0.2520  0.3942  0.0084
32930ION     NA49114   7.539  10.737  10.996 -0.1986 -0.2464  0.0881
32931ION     NA49115  11.606  11.018   6.029  0.1973  0.1625 -0.1843
32932ION     NA49116   9.128   4.570   6.057  0.0213 -0.0301 -0.0819
32933ION     NA49117   2.459   6.371   5.532 -0.2166 -0.3529  0.0932
32934ION     NA49118  17.224   7.708   9.950  0.1318  0.1789  0.0735
32935ION     NA49119   3.913   8.535   2.147 -0.0223 -0.1687  0.0525
32936ION     NA49120  16.911  17.017  13.122 -0.0583 -0.0648 -0.0891
32937ION     NA49121  16.467  13.218  15.727 -0.1471 -0.2680 -0.0595
32938ION     NA49122   4.091  13.732  11.242 -0.1020 -0.0139 -0.0278
32939ION     NA49123   9.646   8.185   5.197  0.1168  0.0239 -0.1540
32940ION     NA49124   5.929   2.419  11.004 -0.1814 -0.0290 -0.1455
32941ION     NA49125   0.484  13.504  12.804 -0.1107  0.2925 -0.2031
32942ION     NA49126  14.756   6.031   9.739 -0.1576  0.2614 -0.1057
32943ION     NA49127   0.514   7.416  10.071  0.0508 -0.2054 -0.0038
32944ION     NA49128   8.555   6.281  15.420  0.1672  0.0972 -0.2026
32945ION     NA49129   5.423   8.282  13.857 -0.2454  0.0494  0.0161
32946ION     NA49130  13.339   5.305   4.224  0.3468  0.3079  0.3270
32947ION     NA49131   3.566   0.145  10.917 -0.0985 -0.1321 -0.1045
32948ION     NA49132  12.692   4.472  10.634  0.0773 -0.1632 -0.2308
32949ION     NA49133   2.087   2.913  10.033 -0.0920 -0.0250  0.2374
32950ION     NA49134   8.847   5.642   5.553 -0.0918 -0.2061  0.1253
32951ION     NA49135   5.027   9.408   6.241  0.2376  0.0190 -0.0596
32952ION     NA49136   6.877   0.393  10.705 -0.1467  0.4346 -0.0066
32953ION     NA49137   7.883   9.622  16.155  0.0499 -0.1525 -0.2829
32954ION     NA49138  15.201   5.082  15.378 -0.0439 -0.1950  0.1280
32955ION     NA49139   8.189   6.180   5.804  0.1297 -0.2591 -0.2616
32956ION     NA49140  14.633  15.504  10.771  0.0843  0.1182  0.0608
32957ION     NA49141  14.816   2.613  10.110  0.2874 -0.0038 -0.2719
32958ION     NA49142   9.149   7.513  10.976 -0.0656  0.0484  0.0206
32959ION     NA49143  11.279   5.207  10.757  0.1981 -0.0828  0.3226
32960ION     NA49144  16.756   4.580   9.554  0.2527  0.0511 -0.3160
32961ION     NA49145  15.453  12.473  12.750  0.1152 -0.0812 -0.2620
32962ION     NA49146  16.684  12.260  10.785 -0.1364  0.1153 -0.0031
32963ION     NA49147  11.856  11.379  10.692  0.0720 -0.1684  0.0478
32964ION     NA49148  17.341   9.252  10.903 -0.0313  0.0690 -0.2229
32965ION     NA49149  12.789  14.885   0.088  0.1664 -0.0076  0.0735
32966ION     NA49150   1.888  16.062  13.808  0.1122  0.0880 -0.1778
32967ION     NA49151  11.210  17.440  11.020 -0.1323 -0.0741 -0.0473
32968ION     NA49152   6.662  10.992  10.979  0.2124  0.0121  0.1544
32969ION     NA49153  16.775   5.076  12.194 -0.2630  0.1188 -0.0681
32970ION     NA49154   2.559   9.802   6.083  0.2320  0.0807 -0.3437
32971ION     NA49155  17.042   5.233  16.198 -0.2994 -0.0264 -0.0280
32972ION     NA49156  14.641  11.612  11.066  0.0012 -0.3858 -0.1188
32973ION     NA49157  16.229  17.514  14.721  0.2190  0.0534 -0.1922
32974ION     NA49158   9.516   6.392  10.972  0.0475  0.0227 -0.0913
32975ION     NA49159  16.675  17.068   5.256  0.0733 -0.0529  0.0934
32976ION     NA49160  15.350   0.594   0.990  0.1757  0.3408 -0.2006
32977ION     NA49161  14.352   0.258   5.160  0.0661  0.0188 -0.0262
32978ION     NA49162  11.437   4.239  11.009  0.1127 -0.1526 -0.0597
32979ION     NA49163  16.554   4.245   5.224 -0.0846 -0.4390  0.1836
32980ION     NA49164   6.628  13.908  13.097  0.2149  0.1283 -0.5563
32981ION     NA49165   1.726   4.747   9.555 -0.4524 -0.2654 -0.2336
32982ION     NA49166   3.711  15.627   3.744 -0.0526  0.0511 -0.1198
32983ION     NA49167   2.458   1.818   5.167  0.2651 -0.3743 -0.0415
32984ION     NA49168   4.488  11.314  11.072 -0.2251 -0.0288  0.1005
32985ION     NA49169  14.184  10.906  10.773  0.1847  0.0523 -0.2147
32986ION     NA49170   2.940   6.216  10.153  0.0984 -0.0390 -0.0382
32987ION     NA49171   3.601  17.061  11.966  0.1964 -0.2345  0.1072
32988ION     NA49172  12.803   1.692   5.493  0.1816 -0.0318 -0.0742
32989ION     NA49173  10.952  15.422   5.265  0.1241  0.2251 -0.0238
32990ION     NA49174  14.691   9.989  10.579  0.0633  0.1546  0.0797
32991ION     NA49175   7.289  17.151  11.004 -0.1442  0.1079 -0.3639
32992ION     NA49176   9.348   0.435  11.890  0.0752 -0.4320  0.2262
32993ION     NA49177   8.261  14.659  10.832  0.2121  0.0536 -0.1487
32994ION     NA49178  16.388   7.967   1.018  0.1095 -0.2186 -0.0148
32995ION     NA49179  10.734  17.726  11.156 -0.1328  0.0828  0.0138
32996ION     NA49180   6.797  14.777  12.666  0.1989 -0.0551 -0.1797
32997ION     NA49181   5.797   5.066  10.827 -0.1891 -0.1239  0.1290
32998ION     NA49182  12.839  17.817  13.394  0.1997  0.2720  0.2359
32999ION     NA49183   3.567   9.586   6.302 -0.2428 -0.2633 -0.3972
33000ION     NA49184  11.046   5.421   5.677  0.2833  0.0445 -0.2728
33001ION     NA49185   2.776   1.195  10.684 -0.1034  0.0750  0.2066
33002ION     NA49186   9.841   2.080  10.682  0.0420  0.2655  0.0237
33003ION     NA49187   6.262   4.278  10.866  0.0220  0.4294  0.0004
33004ION     NA49188  13.040   7.357  13.676 -0.0214  0.1448  0.0246
33005ION     NA49189   6.437   6.154   3.062  0.0196 -0.0455  0.1832
33006ION     NA49190   1.280   3.333   5.694  0.1529  0.0472  0.0152
33007ION     NA49191   2.345   6.917   4.235  0.2502 -0.1615  0.0719
33008ION     NA49192   3.397  16.220   3.740  0.1541  0.1580  0.1452
33009ION     NA49193   0.258  10.182  11.936  0.1285  0.3326  0.1509
33010ION     NA49194  17.721  15.474  10.622  0.1124  0.0007 -0.0531
33011ION     NA49195  12.407   4.903  10.535 -0.2682 -0.1783  0.0041
33012ION     NA49196  10.861   7.871  10.862  0.0134  0.0696 -0.1220
33013ION     NA49197   0.230  15.052  10.752 -0.0468  0.3385 -0.2668
33014ION     NA49198  14.568   0.582   5.731  0.0076  0.2435  0.1926
33015ION     NA49199  14.580  16.067  10.743 -0.0634 -0.0881 -0.1327
33016ION     NA49200   2.690   0.161   3.431 -0.0036 -0.0510 -0.3188
33017ION     NA49201  15.972   6.895   9.865  0.3656  0.0602  0.0414
33018ION     NA49202  12.125  11.229  11.858  0.2691  0.2744 -0.1279
33019ION     NA49203   6.000   3.393  10.846 -0.3382 -0.4006  0.2552
33020ION     NA49204  17.334  11.788   6.107 -0.3207 -0.0460 -0.1664
33021ION     NA49205   7.192   1.085  10.923 -0.1678 -0.1460 -0.3386
33022ION     NA49206   1.982  15.710   5.967  0.1526  0.1316 -0.0133
33023ION     NA49207   6.645  13.485   3.337 -0.2227 -0.1046  0.0620
33024ION     NA49208  14.781   5.527  12.895 -0.2105  0.2418 -0.0124
33025ION     NA49209   6.647  13.440  12.332 -0.1573 -0.0037 -0.1240
33026ION     NA49210  14.012  17.528  10.911 -0.1076 -0.0978  0.0702
33027ION     NA49211   8.709  14.656   6.160  0.0653  0.3135 -0.2449
33028ION     NA49212  12.685  13.033  10.908 -0.0260 -0.2385  0.0078
33029ION     NA49213  12.307   5.378   0.452 -0.3357  0.2022 -0.1309
33030ION     NA49214   1.802   7.110   9.986 -0.0440  0.1604  0.2499
33031ION     NA49215   5.170   7.929  10.988 -0.1102  0.3035  0.4139
33032ION     NA49216   2.030  17.981  10.554 -0.1100 -0.0745 -0.1111
33033ION     NA49217   9.216  17.236  10.610  0.0469 -0.0922  0.0449
33034ION     NA49218   4.267  11.814  16.393  0.2051 -0.1493  0.1017
33035ION     NA49219  16.838  13.195  10.934  0.1573  0.0455 -0.2713
33036ION     NA49220  12.593   9.198  10.771  0.0881 -0.0898 -0.0721
33037ION     NA49221  11.183   3.149  10.987  0.0884  0.1242  0.2128
33038ION     NA49222  10.176  14.567   1.987 -0.0039  0.1181 -0.5397
33039ION     NA49223  15.698   6.195   9.947 -0.2374  0.2134  0.0911
33040ION     NA49224  15.178  13.658  11.202  0.3636  0.2052  0.1560
33041ION     NA49225   5.563   7.173   6.257 -0.3835 -0.0629  0.1344
33042ION     NA49226  14.637   1.447  10.412  0.4785  0.1747  0.0222
33043ION     NA49227   5.392   9.119  12.929  0.0896  0.0228 -0.2038
33044ION     NA49228   3.893  15.117  10.809 -0.0796  0.1683  0.1715
33045ION     NA49229   4.269   4.554  15.318  0.0125  0.0556  0.1797
33046ION     NA49230   1.477  11.044  10.780  0.2707 -0.1225  0.0182
33047ION     NA49231  13.475  10.167   3.998 -0.0086 -0.2816 -0.2211
33048ION     NA49232  11.671   7.591  10.739 -0.2732  0.1118  0.0966
33049ION     NA49233   0.257   4.769   9.833  0.3485  0.0580  0.0182
33050ION     NA49234  14.847  17.126  10.579 -0.1634 -0.1589 -0.0681
33051ION     NA49235   2.537   7.344   2.326  0.0480  0.3440  0.2015
33052ION     NA49236   6.303   0.791   6.296 -0.2026 -0.0697  0.0278
33053ION     NA49237  13.521  16.520   1.327  0.1918  0.0095 -0.1196
33054ION     NA49238   8.088   2.165  11.267  0.0204 -0.3720 -0.0835
33055ION     NA49239  17.771   0.178  15.327 -0.1868  0.4847  0.1302
33056ION     NA49240   9.815   9.925   6.004  0.1199 -0.0366  0.0951
33057ION     NA49241  16.994  13.837  11.194  0.3563  0.1231 -0.0901
33058ION     NA49242  13.008   1.678  10.956 -0.1119 -0.0185  0.0074
33059ION     NA49243  12.180  11.504   6.043 -0.1235  0.0825  0.3612
33060ION     NA49244  10.730   9.136  10.696 -0.0011 -0.0891 -0.2786
33061ION     NA49245  10.709  13.364   1.467 -0.1383 -0.0137  0.2584
33062ION     NA49246  16.219   2.231   9.960  0.1063  0.2930  0.0843
33063ION     NA49247   1.050  10.229  10.991  0.0758  0.0419  0.0167
33064ION     NA49248   3.807   5.266  10.096 -0.2573  0.1264  0.3828
33065ION     NA49249  12.827   5.849  14.714 -0.2017 -0.1330  0.1718
33066ION     NA49250   3.081   4.739  10.058 -0.0039 -0.1607  0.1844
33067ION     NA49251  10.271  15.368  10.857 -0.2202  0.0019  0.0656
33068ION     NA49252   7.379   6.693   3.193 -0.0102  0.0635  0.1157
33069ION     NA49253  17.257   1.032   2.537 -0.1689 -0.0271 -0.0528
33070ION     NA49254   9.106   8.432  10.765 -0.3901 -0.0097 -0.0908
33071ION     NA49255  13.411   7.922  10.249  0.1006  0.1230 -0.2075
33072ION     NA49256  15.426   5.321   5.263  0.1741  0.1986  0.0171
33073ION     NA49257   1.366   2.819  10.108  0.0274  0.1036 -0.1821
33074ION     NA49258  15.024   9.403  14.110 -0.0411 -0.1592 -0.0326
33075ION     NA49259   7.897  17.033   3.670 -0.2498  0.2429  0.0165
33076ION     NA49260   6.797  12.719  10.657 -0.2177 -0.1282  0.0408
33077ION     NA49261  15.861   0.688  15.388 -0.0014  0.1653  0.0379
33078ION     NA49262   3.060  11.255   6.417 -0.1472  0.0068 -0.3360
33079ION     NA49263   2.379  16.306  10.860 -0.1574  0.2580 -0.0390
33080ION     NA49264  10.162   9.374   1.336  0.0539  0.3546 -0.2424
33081ION     NA49265  15.806   2.998   4.849  0.1356 -0.2323  0.0674
33082ION     NA49266   4.077   4.818  10.230 -0.2845 -0.0022 -0.0341
33083ION     NA49267   3.274  12.301   3.448  0.3334 -0.0324 -0.0457
33084ION     NA49268  17.043   0.903  10.122  0.2147  0.1600 -0.1673
33085ION     NA49269   7.838   2.179  10.753 -0.1098 -0.1582 -0.1249
33086ION     NA49270   9.531  18.044  10.678 -0.0080  0.3192  0.0094
33087ION     NA49271   5.440   4.160  10.610 -0.1790 -0.1635 -0.2241
33088ION     NA49272   7.581   8.668  11.114 -0.0175 -0.0239 -0.2359
33089ION     NA49273   5.355  10.925  11.121 -0.0941  0.6307  0.1230
33090ION     NA49274   0.432  17.397  10.558 -0.2213 -0.1911  0.3548
33091ION     NA49275   5.982  15.543  10.816 -0.2454 -0.0786 -0.0226
33092ION     NA49276   1.654   6.160  10.055  0.3092  0.2702  0.0192
33093ION     NA49277   5.381  15.965  11.081 -0.1080 -0.0850 -0.0329
33094ION     NA49278  15.999  15.820  14.981 -0.0333  0.0279  0.0395
33095ION     NA49279   7.019   7.981  10.894 -0.0713 -0.1247 -0.2575
33096ION     NA49280  17.174   6.643   9.925 -0.0273  0.0491  0.1530
33097ION     NA49281   6.232   4.206   6.032  0.2073 -0.0614 -0.0074
33098ION     NA49282   6.146   0.752  10.833 -0.0142  0.1412 -0.2481
33099ION     NA49283   1.731  10.155  10.814 -0.0752 -0.0640 -0.1065
33100ION     NA49284   9.650   2.955  10.514  0.0147  0.2301  0.2681
33101ION     NA49285   6.002   9.973  11.094  0.2277 -0.0260  0.1480
33102ION     NA49286   5.845  16.481  11.055  0.0865  0.0380 -0.0928
33103ION     NA49287  15.813   7.930  12.227  0.2825 -0.1731 -0.0055
33104ION     NA49288   6.386  12.167  13.776 -0.2877  0.0295 -0.0665
33105ION     NA49289   7.555  12.565  11.114 -0.1343  0.3367  0.1125
33106ION     NA49290  12.641   5.838  10.428 -0.0715  0.0365 -0.0077
33107ION     NA49291   7.737  14.714   5.177  0.0913 -0.1109 -0.3831
33108ION     NA49292   6.523   9.981   5.006 -0.1525 -0.0056  0.2650
33109ION     NA49293   6.982  12.683   1.045 -0.1873  0.4615  0.0386
33110ION     NA49294  13.356  10.314  10.720 -0.1537 -0.1187 -0.0975
33111ION     NA49295   3.818  16.631  11.221 -0.3918 -0.1858  0.0244
33112ION     NA49296  13.563  13.965  11.975 -0.0407  0.0625 -0.2077
33113ION     NA49297   3.014  15.432  15.209  0.1194 -0.2065 -0.0787
33114ION     NA49298  10.281  15.929   6.326  0.0149  0.0752  0.1334
33115ION     NA49299   8.835   5.698  11.003  0.0872  0.3390 -0.1272
33116ION     NA49300   3.356  17.098  16.625  0.0635  0.1443  0.1996
33117ION     NA49301  10.722   4.333  10.778  0.0718 -0.1591 -0.1871
33118ION     NA49302   6.515   2.725  10.878 -0.0983  0.1932 -0.1404
33119ION     NA49303   8.769   0.772  10.804  0.1365 -0.0654  0.4286
33120ION     NA49304  10.250   3.412  10.906  0.1486  0.2423 -0.2141
33121ION     NA49305  10.876  10.308  12.576  0.0922 -0.0992 -0.0733
33122ION     NA49306   6.392  17.086  10.796 -0.1357 -0.2198  0.0064
33123ION     NA49307   6.278  14.361  14.434 -0.1816 -0.0339  0.2777
33124ION     NA49308  15.029  15.766  16.112  0.0054 -0.2186  0.2101
33125ION     NA49309  13.076  17.800  16.683  0.0553  0.2091  0.2160
33126ION     NA49310   8.601   5.165  11.109 -0.1834  0.1991  0.0141
33127ION     NA49311  13.145   0.748  11.035  0.3444  0.2217  0.0911
33128ION     NA49312  14.295   7.853  10.045 -0.0528 -0.2137  0.1393
33129ION     NA49313   2.595   4.752  11.159 -0.0387  0.0458 -0.2344
33130ION     NA49314   3.842   3.183  10.317  0.1477  0.3728 -0.2663
33131ION     NA49315   6.106   2.124  13.650  0.3981 -0.0551  0.0970
33132ION     NA49316   0.587   5.987   5.588  0.1429  0.4086  0.1867
33133ION     NA49317   6.098   7.776  10.826  0.0452  0.1983  0.1172
33134ION     NA49318  13.809   1.654  12.189  0.0311  0.3342 -0.2788
33135ION     NA49319   4.198   4.623   1.340  0.1010  0.1894  0.1010
33136ION     NA49320   1.901   9.135  10.714  0.3531 -0.0388 -0.0540
33137ION     NA49321   7.443  16.120   1.303  0.6024  0.1345 -0.2321
33138ION     NA49322  16.568   6.918   2.729  0.3113 -0.1681  0.2041
33139ION     NA49323  12.314  15.511  10.711 -0.1089 -0.0288 -0.1944
33140ION     NA49324   5.013  16.646   6.476  0.0960  0.1500  0.0371
33141ION     NA49325  14.806  17.963  10.600 -0.1825  0.0660  0.1172
33142ION     NA49326  13.357  17.425   2.600  0.1428  0.0254 -0.2090
33143ION     NA49327   5.951   1.919   5.849 -0.0166 -0.0186  0.1843
33144ION     NA49328   7.457  17.470   6.102 -0.1673 -0.0819  0.1381
33145ION     NA49329   2.037   8.216  10.594 -0.1030  0.2026 -0.1666
33146ION     NA49330   4.318   3.902  10.575 -0.0304 -0.1907 -0.1277
33147ION     NA49331  11.375   5.720   4.793 -0.0722  0.1770  0.1232
33148ION     NA49332   0.460  13.399  10.711  0.3384 -0.1501 -0.1005
33149ION     NA49333   2.526  13.095  13.913  0.1545  0.1194 -0.0855
33150ION     NA49334   0.479   1.401  10.239 -0.1072  0.0365  0.0124
33151ION     NA49335  10.310   5.340   3.277  0.1252  0.3896 -0.2669
33152ION     NA49336   9.379  12.021  11.446 -0.1239 -0.0503 -0.0273
33153ION     NA49337   6.138   0.108   4.035  0.2710 -0.1690  0.2106
33154ION     NA49338  11.462  11.861  11.411  0.2950  0.0818 -0.2085
33155ION     NA49339   4.478   8.676  10.821  0.0153  0.0449  0.2606
33156ION     NA49340   5.378   5.454   3.475  0.1804  0.1017 -0.2580
33157ION     NA49341  16.522  16.422   2.583 -0.2016  0.0767 -0.0428
33158ION     NA49342   2.093   3.125   4.496  0.2453  0.0240  0.0128
33159ION     NA49343  11.864   6.661  14.078  0.3470  0.0966 -0.3501
33160ION     NA49344  14.410  14.100  10.937  0.3426  0.2738  0.1317
33161ION     NA49345   4.481   1.363   6.158  0.2697 -0.0038 -0.4014
33162ION     NA49346  17.744  13.144  10.820  0.1588 -0.3005 -0.2737
33163ION     NA49347  12.037  12.346  10.786 -0.2564  0.0977 -0.0241
33164ION     NA49348   9.217  11.181  10.856  0.2181 -0.0323  0.1308
  18.17170  18.17170  16.68365
