INSANE! Membrane UpperLeaflet>loPI:POPI:DPPI:PYPI:ERGO=180.0:5.0:3.0:2.0:10.0 LowerLeaflet>PSPI:POPI:POPS:YOPS:POPE:YOPE:POPC:YOPC:ERGO=6.0:14.0:21.0:9.0:9.0:21.0:12.0:48.0:60.0
49348
    1loPI    C1    1   3.377   6.119  11.204  0.3647 -0.2914 -0.2084
    1loPI    C2    2   3.541   5.863  11.464  0.2117 -0.0534  0.1296
    1loPI    C3    3   3.740   6.192  11.353  0.1601 -0.0087  0.1691
    1loPI   PO4    4   3.224   5.968  11.055  0.4390  0.1365 -0.0277
    1loPI   GL1    5   3.197   5.801  10.735 -0.0135 -0.2406 -0.1135
    1loPI   GL2    6   2.902   5.771  10.764  0.0951 -0.0427  0.1375
    1loPI   C1A    7   3.299   5.778  10.410 -0.0479  0.2274  0.1421
    1loPI   C2A    8   3.365   5.864   9.974  0.0685 -0.0697  0.0317
    1loPI   C3A    9   3.325   5.841   9.539  0.2332 -0.1286  0.2127
    1loPI   C4A   10   3.410   5.874   9.084  0.2105 -0.4019  0.0631
    1loPI   C5A   11   3.525   5.566   8.684 -0.0514 -0.0102  0.3292
    1loPI   C6A   12   3.293   5.156   8.473 -0.1898  0.0233  0.0013
    1loPI   C1B   13   2.777   5.716  10.422 -0.0242  0.0048 -0.1382
    1loPI   C2B   14   2.845   5.736   9.979  0.1392  0.1226 -0.2686
    1loPI   C3B   15   2.800   5.752   9.563  0.0036 -0.2375 -0.1740
    1loPI   C4B   16   2.880   5.803   9.170 -0.1932  0.1474 -0.2319
    2loPI    C1   17   2.612   7.613  11.203  0.2406 -0.0664 -0.0296
    2loPI    C2   18   2.851   7.831  11.438  0.2532  0.1285 -0.2205
    2loPI    C3   19   2.834   7.434  11.484  0.1923  0.1713  0.1631
    2loPI   PO4   20   2.607   7.642  10.995  0.0018  0.0776  0.0668
    2loPI   GL1   21   2.686   7.771  10.634  0.2616  0.2961  0.1536
    2loPI   GL2   22   2.335   7.635  10.587 -0.0700  0.0185  0.2698
    2loPI   C1A   23   2.734   7.590  10.182  0.0446  0.1875 -0.0636
    2loPI   C2A   24   2.615   7.556   9.798  0.2278 -0.3369 -0.2104
    2loPI   C3A   25   2.669   7.607   9.420 -0.2811  0.0586 -0.0852
    2loPI   C4A   26   2.674   7.567   9.048  0.0139 -0.0796 -0.1033
    2loPI   C5A   27   2.822   7.299   8.734  0.0661 -0.1917  0.0108
    2loPI   C6A   28   3.146   6.924   8.646  0.1916 -0.4492  0.0295
    2loPI   C1B   29   2.181   7.507  10.179  0.3141  0.0644 -0.1269
    2loPI   C2B   30   2.078   7.477   9.663 -0.0588 -0.0016 -0.1256
    2loPI   C3B   31   2.179   7.495   9.185 -0.1069 -0.0775 -0.2588
    2loPI   C4B   32   2.276   7.429   8.764 -0.0792 -0.0069 -0.0123
    3loPI    C1   33  13.914   2.125  11.321 -0.0568 -0.0927  0.0776
    3loPI    C2   34  13.914   2.523  11.287  0.1385 -0.0913  0.0818
    3loPI    C3   35  13.919   2.354  11.649 -0.0839 -0.0994  0.0827
    3loPI   PO4   36  14.111   2.013  11.153 -0.1785 -0.0936  0.2342
    3loPI   GL1   37  14.410   2.148  10.800 -0.0108  0.2653 -0.1898
    3loPI   GL2   38  14.690   2.179  10.629 -0.2129 -0.1570 -0.3215
    3loPI   C1A   39  14.385   2.048  10.253 -0.0085 -0.3012 -0.3509
    3loPI   C2A   40  14.453   2.160   9.859 -0.2729 -0.3333  0.1115
    3loPI   C3A   41  14.534   2.116   9.481 -0.0429 -0.1955 -0.0830
    3loPI   C4A   42  14.418   2.027   9.067  0.1638 -0.1135  0.0791
    3loPI   C5A   43  14.377   2.163   8.714 -0.0561  0.2981 -0.1411
    3loPI   C6A   44  14.549   2.022   8.220  0.3181  0.0237  0.0944
    3loPI   C1B   45  14.701   2.440  10.247 -0.2237  0.2413 -0.0264
    3loPI   C2B   46  14.661   2.595   9.733  0.1496 -0.0232  0.0710
    3loPI   C3B   47  14.603   2.586   9.288 -0.1364 -0.0627  0.3590
    3loPI   C4B   48  14.727   2.527   8.932 -0.4967  0.1313 -0.2246
    4loPI    C1   49   4.252  13.156  10.628 -0.0143 -0.0100  0.1068
    4loPI    C2   50   4.316  13.521  10.780  0.2088  0.0413 -0.1032
    4loPI    C3   51   4.288  13.204  11.023 -0.1135  0.2126  0.0907
    4loPI   PO4   52   4.110  13.222  10.421  0.3455  0.0619  0.0047
    4loPI   GL1   53   4.345  13.060  10.063  0.3128 -0.1179  0.0186
    4loPI   GL2   54   4.285  13.375   9.913 -0.0747 -0.2097 -0.0293
    4loPI   C1A   55   4.573  12.945   9.709  0.1775 -0.0345 -0.0203
    4loPI   C2A   56   4.553  12.785   9.321  0.0293  0.3081  0.0965
    4loPI   C3A   57   4.518  12.683   8.880 -0.4597 -0.0434  0.0136
    4loPI   C4A   58   4.544  12.607   8.448 -0.0970 -0.2016  0.0856
    4loPI   C5A   59   4.390  12.394   8.199  0.1760  0.1608 -0.0113
    4loPI   C6A   60   4.239  12.188   7.885  0.2222 -0.0671 -0.0730
    4loPI   C1B   61   4.216  13.210   9.564 -0.2364 -0.2122 -0.0341
    4loPI   C2B   62   4.190  13.033   9.092  0.1796  0.0680  0.3196
    4loPI   C3B   63   4.177  12.963   8.600  0.0939  0.1438  0.2962
    4loPI   C4B   64   3.992  12.652   8.355  0.4279 -0.0812  0.3996
    5loPI    C1   65   1.174  15.650  10.804  0.0766 -0.0081  0.1827
    5loPI    C2   66   1.110  15.337  11.044 -0.0664  0.0510  0.2228
    5loPI    C3   67   1.449  15.547  11.075  0.0534 -0.1306  0.1602
    5loPI   PO4   68   1.091  15.569  10.499 -0.4026 -0.1013  0.1410
    5loPI   GL1   69   1.058  15.796  10.212 -0.0504  0.0057  0.2184
    5loPI   GL2   70   0.958  16.100  10.189  0.0894 -0.1480 -0.1323
    5loPI   C1A   71   1.158  15.723   9.807  0.0439 -0.0398 -0.1160
    5loPI   C2A   72   1.117  15.771   9.396  0.0562  0.2013 -0.2149
    5loPI   C3A   73   0.986  15.765   8.943  0.2722  0.1892 -0.2867
    5loPI   C4A   74   1.110  15.964   8.523  0.0688  0.0293 -0.0921
    5loPI   C5A   75   1.284  15.867   8.091 -0.1974 -0.1875 -0.0442
    5loPI   C6A   76   1.232  15.917   7.608  0.2162 -0.2038  0.0520
    5loPI   C1B   77   0.943  16.255   9.860  0.1903  0.0873  0.0071
    5loPI   C2B   78   0.848  16.176   9.494 -0.0507  0.1840  0.2430
    5loPI   C3B   79   0.814  16.295   9.178  0.1947 -0.1362 -0.1051
    5loPI   C4B   80   0.749  16.192   8.809 -0.0213  0.2891  0.1737
    6loPI    C1   81  13.529  12.418  11.214 -0.2427  0.0192 -0.0916
    6loPI    C2   82  13.269  12.302  11.495 -0.0623 -0.2343 -0.0257
    6loPI    C3   83  13.624  12.455  11.601 -0.1966  0.1498 -0.1151
    6loPI   PO4   84  13.590  12.346  10.967 -0.2746 -0.0452 -0.1221
    6loPI   GL1   85  13.844  12.511  10.608 -0.1062  0.1198  0.1547
    6loPI   GL2   86  14.011  12.646  10.383 -0.0287 -0.0459 -0.0729
    6loPI   C1A   87  13.710  12.313  10.248  0.2222  0.3453 -0.1026
    6loPI   C2A   88  13.656  12.169   9.827  0.1977  0.1253 -0.0188
    6loPI   C3A   89  13.699  12.252   9.431  0.1631 -0.0250 -0.2834
    6loPI   C4A   90  13.823  12.265   8.984  0.1881 -0.1979  0.2568
    6loPI   C5A   91  13.912  12.315   8.548  0.0998  0.1626 -0.1227
    6loPI   C6A   92  13.613  12.212   8.270  0.2173  0.0269 -0.2999
    6loPI   C1B   93  13.947  12.667   9.953  0.3827  0.1719 -0.2223
    6loPI   C2B   94  13.873  12.793   9.636 -0.1070  0.0715 -0.2815
    6loPI   C3B   95  13.981  12.733   9.230  0.1533  0.2553 -0.2508
    6loPI   C4B   96  13.962  12.769   8.841 -0.2066 -0.0186  0.0351
    7loPI    C1   97  10.507  17.191  10.913  0.1705 -0.1052  0.0688
    7loPI    C2   98  10.518  17.259  11.307  0.0960 -0.0498  0.0616
    7loPI    C3   99  10.810  17.050  11.132  0.3885  0.3433  0.0672
    7loPI   PO4  100  10.328  17.167  10.843 -0.0527  0.1922 -0.0980
    7loPI   GL1  101  10.006  17.111  10.543 -0.2508  0.1632  0.0389
    7loPI   GL2  102  10.192  16.975  10.325 -0.0188  0.1392  0.1900
    7loPI   C1A  103   9.994  17.430  10.153  0.2474 -0.0938  0.1000
    7loPI   C2A  104   9.954  17.617   9.859  0.2390  0.3154 -0.1693
    7loPI   C3A  105   9.917  17.700   9.485  0.1615 -0.1626  0.0015
    7loPI   C4A  106  10.084  17.734   9.000 -0.1009  0.1290  0.2914
    7loPI   C5A  107  10.043  17.777   8.597  0.1953  0.0627 -0.3685
    7loPI   C6A  108   9.757  18.085   8.443 -0.0627 -0.0585 -0.1710
    7loPI   C1B  109  10.233  17.056   9.884  0.0942  0.0938 -0.1090
    7loPI   C2B  110  10.248  17.312   9.488  0.3129 -0.1943  0.3996
    7loPI   C3B  111  10.381  17.331   9.007 -0.3239  0.1515  0.0942
    7loPI   C4B  112  10.359  17.294   8.645  0.1440 -0.0962 -0.0478
    8loPI    C1  113  16.658  13.536  11.447  0.0130  0.1807  0.1485
    8loPI    C2  114  16.327  13.515  11.670 -0.0654 -0.0788  0.0116
    8loPI    C3  115  16.552  13.189  11.616  0.1956  0.0882  0.0758
    8loPI   PO4  116  16.609  13.622  11.243 -0.2607  0.0637  0.2314
    8loPI   GL1  117  16.504  13.567  10.732 -0.2368 -0.2673  0.0388
    8loPI   GL2  118  16.598  13.799  10.527 -0.0020  0.1460  0.1328
    8loPI   C1A  119  16.348  13.382  10.377  0.0027  0.1607  0.1790
    8loPI   C2A  120  16.322  13.384   9.944 -0.0658  0.1938  0.2041
    8loPI   C3A  121  16.325  13.284   9.517  0.0912 -0.2291 -0.2338
    8loPI   C4A  122  16.236  13.285   9.038 -0.1144 -0.1703 -0.1617
    8loPI   C5A  123  16.270  13.385   8.664 -0.1560  0.3850  0.1210
    8loPI   C6A  124  16.542  13.729   8.384  0.1631  0.0350  0.2323
    8loPI   C1B  125  16.502  13.855  10.072 -0.0788 -0.0447 -0.1746
    8loPI   C2B  126  16.550  13.781   9.713 -0.2366 -0.2111 -0.0805
    8loPI   C3B  127  16.410  13.783   9.317  0.0460 -0.0585  0.3543
    8loPI   C4B  128  16.426  13.825   8.938  0.1189 -0.0243  0.0608
    9loPI    C1  129   3.903   7.550  11.489  0.0436  0.3172 -0.1683
    9loPI    C2  130   4.108   7.808  11.714  0.2846 -0.1558  0.1728
    9loPI    C3  131   3.708   7.808  11.724  0.2719  0.3648 -0.0289
    9loPI   PO4  132   4.151   7.456  11.357 -0.4302 -0.1338  0.0934
    9loPI   GL1  133   4.251   7.412  10.956  0.1880  0.1491  0.2197
    9loPI   GL2  134   4.026   7.607  10.891  0.2245 -0.3125  0.0912
    9loPI   C1A  135   4.477   7.365  10.638 -0.2538  0.1228  0.1055
    9loPI   C2A  136   4.497   7.318  10.269  0.1704  0.3287 -0.1778
    9loPI   C3A  137   4.464   7.340   9.940  0.1312 -0.0523  0.2601
    9loPI   C4A  138   4.574   7.226   9.462 -0.3664  0.1871  0.1729
    9loPI   C5A  139   4.603   7.194   9.091 -0.2091 -0.0099 -0.0782
    9loPI   C6A  140   4.895   7.340   8.796  0.0909  0.0686 -0.0342
    9loPI   C1B  141   4.113   7.676  10.429 -0.1443 -0.1794 -0.1119
    9loPI   C2B  142   4.157   7.739  10.020 -0.0550 -0.1732  0.1682
    9loPI   C3B  143   4.111   7.734   9.617 -0.1845 -0.0117  0.1231
    9loPI   C4B  144   4.303   7.706   9.254 -0.1387 -0.0234  0.0148
   10loPI    C1  145   5.863   9.678  11.194 -0.0662 -0.0566 -0.0014
   10loPI    C2  146   5.628   9.673  11.518  0.1009 -0.0112  0.1219
   10loPI    C3  147   6.025   9.646  11.558  0.1112 -0.2147 -0.0926
   10loPI   PO4  148   5.739   9.538  11.005 -0.3479  0.0109 -0.3343
   10loPI   GL1  149   5.825   9.356  10.643  0.2624  0.3001 -0.2460
   10loPI   GL2  150   6.077   9.185  10.771  0.2980  0.0650  0.1640
   10loPI   C1A  151   5.841   9.330  10.213 -0.0330 -0.0625 -0.2601
   10loPI   C2A  152   5.943   9.321   9.729  0.4162 -0.1593  0.0447
   10loPI   C3A  153   5.854   9.291   9.388 -0.0168 -0.0233 -0.0903
   10loPI   C4A  154   5.906   9.272   9.005 -0.0146 -0.0111  0.5538
   10loPI   C5A  155   6.189   9.034   8.640 -0.2987 -0.2495 -0.2059
   10loPI   C6A  156   6.445   8.654   8.613  0.0840 -0.0900  0.0559
   10loPI   C1B  157   6.184   8.947  10.447  0.2288 -0.1169 -0.0631
   10loPI   C2B  158   6.101   8.930  10.072  0.2774 -0.0866 -0.1238
   10loPI   C3B  159   6.178   8.901   9.622  0.0228 -0.0251  0.1473
   10loPI   C4B  160   6.240   8.816   9.104  0.0525 -0.0431 -0.2991
   11loPI    C1  161   5.026   0.248  10.653  0.0013  0.2434  0.2091
   11loPI    C2  162   5.040  -0.062  10.907 -0.1408 -0.0627 -0.1474
   11loPI    C3  163   4.924   0.299  11.037  0.2037 -0.1092  0.3144
   11loPI   PO4  164   5.234   0.261  10.493  0.2703 -0.3089  0.1681
   11loPI   GL1  165   5.611   0.286  10.271 -0.0521  0.1439  0.1058
   11loPI   GL2  166   5.783   0.480  10.248 -0.0300  0.1808 -0.1598
   11loPI   C1A  167   5.678   0.181   9.799  0.1956 -0.0391 -0.0867
   11loPI   C2A  168   5.679   0.263   9.323  0.0433 -0.1838 -0.1940
   11loPI   C3A  169   5.778   0.318   8.862  0.0105 -0.1992 -0.1565
   11loPI   C4A  170   5.719   0.164   8.433  0.0305  0.0133 -0.0915
   11loPI   C5A  171   5.559  -0.035   8.086 -0.0042 -0.0247 -0.1818
   11loPI   C6A  172   5.309   0.210   7.842 -0.1902  0.0166  0.1846
   11loPI   C1B  173   5.952   0.668   9.939  0.2537 -0.1923  0.1678
   11loPI   C2B  174   6.018   0.664   9.516  0.0382  0.0546 -0.1096
   11loPI   C3B  175   5.927   0.716   9.109  0.0542  0.2062 -0.0863
   11loPI   C4B  176   5.948   0.855   8.732 -0.1448 -0.0079 -0.1019
   12loPI    C1  177   2.792  12.952  10.771 -0.0022  0.0907  0.0006
   12loPI    C2  178   2.756  12.649  11.031  0.0070  0.1233  0.0400
   12loPI    C3  179   2.588  13.003  11.111  0.0069  0.1325 -0.0002
   12loPI   PO4  180   2.675  12.838  10.542 -0.0621  0.1727  0.1438
   12loPI   GL1  181   2.331  12.536  10.285  0.2086  0.2147 -0.0081
   12loPI   GL2  182   2.319  12.835  10.137 -0.1524  0.1475 -0.3476
   12loPI   C1A  183   2.393  12.420   9.866 -0.2008  0.0901 -0.0023
   12loPI   C2A  184   2.453  12.365   9.400 -0.3221  0.0780  0.2205
   12loPI   C3A  185   2.443  12.336   8.934  0.0213  0.1193  0.3505
   12loPI   C4A  186   2.466  12.315   8.466  0.1741 -0.0431  0.0593
   12loPI   C5A  187   2.282  12.048   8.126 -0.1446  0.2879  0.1666
   12loPI   C6A  188   2.104  11.899   7.798 -0.2997 -0.0283 -0.2379
   12loPI   C1B  189   2.108  12.762   9.674  0.3172 -0.1840  0.1552
   12loPI   C2B  190   2.073  12.735   9.227  0.0440  0.1898 -0.0687
   12loPI   C3B  191   2.118  12.838   8.763 -0.2483  0.2782 -0.2366
   12loPI   C4B  192   2.166  12.686   8.362 -0.0543 -0.1394  0.1394
   13loPI    C1  193  16.005  14.448  10.954  0.1256 -0.2477 -0.1653
   13loPI    C2  194  16.043  14.785  11.167 -0.0826 -0.1519 -0.2774
   13loPI    C3  195  16.257  14.462  11.265  0.0079 -0.0332 -0.0772
   13loPI   PO4  196  15.917  14.537  10.726  0.1018  0.1354  0.1960
   13loPI   GL1  197  15.940  14.715  10.288 -0.0525  0.1136  0.0343
   13loPI   GL2  198  16.236  14.684  10.356 -0.1840  0.0618 -0.0874
   13loPI   C1A  199  15.866  14.704   9.862  0.0600  0.1913  0.1586
   13loPI   C2A  200  15.882  14.634   9.454 -0.1598  0.2849  0.1764
   13loPI   C3A  201  15.857  14.664   8.942 -0.3552  0.3819 -0.0311
   13loPI   C4A  202  15.851  14.604   8.515  0.1267  0.0774  0.0033
   13loPI   C5A  203  16.184  14.593   8.209  0.0478  0.0835 -0.1311
   13loPI   C6A  204  16.591  14.288   8.106 -0.3004  0.1404  0.0469
   13loPI   C1B  205  16.419  14.768  10.016 -0.1600  0.4667  0.0497
   13loPI   C2B  206  16.374  14.705   9.613  0.2019 -0.0867 -0.1255
   13loPI   C3B  207  16.351  14.619   9.150  0.0445 -0.0657 -0.1741
   13loPI   C4B  208  16.389  14.709   8.683 -0.0307  0.1260 -0.1107
   14loPI    C1  209  15.347   8.032  10.970  0.1352 -0.1479 -0.0068
   14loPI    C2  210  15.338   8.342  11.223 -0.1446 -0.2685  0.1354
   14loPI    C3  211  15.640   8.081  11.237  0.2184  0.1220 -0.1433
   14loPI   PO4  212  15.340   8.097  10.786 -0.0742  0.0190  0.1143
   14loPI   GL1  213  15.072   7.893  10.477  0.0762  0.0286  0.1644
   14loPI   GL2  214  14.749   7.976  10.389 -0.0117  0.3089  0.2839
   14loPI   C1A  215  15.242   7.770  10.144  0.0161  0.1276  0.1273
   14loPI   C2A  216  15.546   7.538   9.819 -0.2198  0.0254 -0.0388
   14loPI   C3A  217  15.619   7.550   9.454 -0.2150 -0.1383  0.0856
   14loPI   C4A  218  15.614   7.465   9.137 -0.3243  0.2818 -0.0794
   14loPI   C5A  219  15.599   7.419   8.663 -0.3690 -0.2396 -0.2664
   14loPI   C6A  220  15.571   7.823   8.333  0.1671  0.2206  0.0145
   14loPI   C1B  221  14.797   7.958  10.017 -0.0617  0.0083 -0.0703
   14loPI   C2B  222  14.707   7.883   9.673  0.1750  0.2492  0.0384
   14loPI   C3B  223  14.740   7.880   9.195  0.0668  0.0409 -0.2985
   14loPI   C4B  224  14.873   7.847   8.790 -0.1403 -0.0880  0.2950
   15loPI    C1  225   1.119   1.660  11.295 -0.1086  0.0754  0.1376
   15loPI    C2  226   0.784   1.443  11.323 -0.1240  0.1037  0.1729
   15loPI    C3  227   1.010   1.504  11.647 -0.0714  0.0636  0.1440
   15loPI   PO4  228   1.053   1.884  11.112  0.3054 -0.0461 -0.0802
   15loPI   GL1  229   1.268   1.917  10.728  0.0268  0.1147 -0.3752
   15loPI   GL2  230   0.982   2.038  10.643  0.1799 -0.0650  0.1786
   15loPI   C1A  231   1.528   2.106  10.368 -0.0884  0.0927  0.0117
   15loPI   C2A  232   1.492   2.063   9.893  0.0813  0.0113  0.1432
   15loPI   C3A  233   1.587   2.031   9.503 -0.0871 -0.1491  0.2268
   15loPI   C4A  234   1.600   2.167   9.060  0.1645  0.0489 -0.1315
   15loPI   C5A  235   1.465   2.051   8.610 -0.2768  0.0537  0.0168
   15loPI   C6A  236   1.235   1.826   8.265  0.1135 -0.0251 -0.1791
   15loPI   C1B  237   1.025   2.010  10.158  0.2572 -0.0123  0.0586
   15loPI   C2B  238   1.006   1.922   9.766  0.0219 -0.0385  0.2165
   15loPI   C3B  239   0.978   1.958   9.387  0.1003 -0.2526  0.3312
   15loPI   C4B  240   1.080   2.002   8.964 -0.0917  0.0164 -0.3569
   16loPI    C1  241  13.571   2.573  10.858 -0.0971 -0.0660  0.1173
   16loPI    C2  242  13.909   2.787  10.860 -0.1252 -0.0216  0.1752
   16loPI    C3  243  13.922   2.391  10.800 -0.0928  0.0284 -0.1713
   16loPI   PO4  244  13.479   2.699  10.676  0.2142 -0.0262  0.0585
   16loPI   GL1  245  13.750   2.892  10.406  0.1534  0.2403 -0.1273
   16loPI   GL2  246  13.560   3.196  10.375  0.0845  0.2031  0.0276
   16loPI   C1A  247  13.805   2.908   9.923  0.0562 -0.3169  0.0823
   16loPI   C2A  248  13.854   2.977   9.526 -0.0480 -0.0907  0.1600
   16loPI   C3A  249  13.933   2.878   9.081 -0.0477  0.1053 -0.0716
   16loPI   C4A  250  14.021   2.912   8.610  0.3874 -0.2065 -0.0857
   16loPI   C5A  251  14.239   2.953   8.137  0.0209 -0.0775 -0.2303
   16loPI   C6A  252  14.528   2.569   8.074 -0.0546 -0.3685  0.2638
   16loPI   C1B  253  13.478   3.304   9.925 -0.1611 -0.1581 -0.0057
   16loPI   C2B  254  13.418   3.311   9.488 -0.2890 -0.2149 -0.0251
   16loPI   C3B  255  13.540   3.323   9.054  0.0933  0.0812  0.0251
   16loPI   C4B  256  13.698   3.361   8.709  0.0473 -0.1487 -0.2633
   17loPI    C1  257  13.081   2.316  11.051 -0.0138 -0.7110  0.1204
   17loPI    C2  258  13.438   2.313  11.231  0.0907 -0.2349 -0.0635
   17loPI    C3  259  13.106   2.374  11.446  0.2188  0.3865 -0.0237
   17loPI   PO4  260  13.135   2.175  10.832 -0.0804 -0.2301 -0.2457
   17loPI   GL1  261  13.374   2.082  10.537 -0.2812 -0.0761  0.3145
   17loPI   GL2  262  13.568   2.318  10.405 -0.1382 -0.2326  0.2437
   17loPI   C1A  263  13.401   1.886  10.174 -0.1662  0.1406  0.2897
   17loPI   C2A  264  13.504   1.933   9.789 -0.0429 -0.1444 -0.0386
   17loPI   C3A  265  13.494   2.008   9.436  0.3031 -0.0673 -0.0640
   17loPI   C4A  266  13.445   2.017   8.997 -0.1227  0.3659 -0.2078
   17loPI   C5A  267  13.437   2.146   8.636  0.1332 -0.0523  0.0497
   17loPI   C6A  268  13.328   2.371   8.276  0.4072 -0.2661  0.1638
   17loPI   C1B  269  13.581   2.326  10.074 -0.2075 -0.0744  0.1272
   17loPI   C2B  270  13.686   2.449   9.724  0.0943  0.0018 -0.0189
   17loPI   C3B  271  13.692   2.445   9.256  0.0018 -0.0750  0.3039
   17loPI   C4B  272  13.750   2.472   8.778 -0.1571  0.3894 -0.1163
   18loPI    C1  273   7.034  10.847  10.774 -0.1323  0.1920  0.1257
   18loPI    C2  274   7.352  10.925  11.004  0.0924 -0.0314 -0.1039
   18loPI    C3  275   7.398  10.733  10.656 -0.2880 -0.0112 -0.1697
   18loPI   PO4  276   6.859  10.999  10.751 -0.0914 -0.1575 -0.0802
   18loPI   GL1  277   6.634  11.041  10.284  0.0143 -0.0368 -0.0143
   18loPI   GL2  278   6.448  10.771  10.232  0.2340  0.0769  0.1955
   18loPI   C1A  279   6.627  11.209   9.852 -0.1669 -0.0797  0.1602
   18loPI   C2A  280   6.705  11.289   9.412  0.0710  0.1241  0.0526
   18loPI   C3A  281   6.814  11.157   8.925  0.1029  0.2415 -0.1355
   18loPI   C4A  282   6.766  11.283   8.478 -0.1135 -0.0122  0.2487
   18loPI   C5A  283   6.864  11.433   8.065  0.0828 -0.0153  0.1289
   18loPI   C6A  284   6.959  11.925   7.962  0.0433 -0.1822  0.0536
   18loPI   C1B  285   6.510  10.710   9.844  0.0523 -0.2240  0.0286
   18loPI   C2B  286   6.526  10.644   9.426 -0.2076  0.0611  0.5295
   18loPI   C3B  287   6.632  10.729   9.093 -0.4393  0.1500 -0.1375
   18loPI   C4B  288   6.551  10.733   8.680 -0.2031  0.1190 -0.2097
   19loPI    C1  289  17.801  15.122  10.775 -0.0284 -0.1740 -0.0663
   19loPI    C2  290  17.586  14.787  10.817 -0.1475 -0.0824  0.0635
   19loPI    C3  291  17.705  14.990  11.141 -0.2089  0.0842 -0.0171
   19loPI   PO4  292  17.727  15.165  10.567 -0.0653 -0.0511  0.0482
   19loPI   GL1  293  17.964  15.189  10.239 -0.2933  0.1713  0.0548
   19loPI   GL2  294  18.067  15.011  10.284 -0.1954  0.0092  0.1066
   19loPI   C1A  295  17.778  15.354   9.820  0.1083 -0.0175  0.0354
   19loPI   C2A  296  17.558  15.244   9.428  0.0474 -0.0970 -0.0925
   19loPI   C3A  297  17.588  15.306   9.024 -0.0263  0.2297  0.2532
   19loPI   C4A  298  17.645  15.211   8.685 -0.1432 -0.0090  0.2057
   19loPI   C5A  299  17.677  15.072   8.323 -0.1001  0.0377  0.0457
   19loPI   C6A  300  17.851  14.905   7.950  0.1190 -0.0751 -0.1356
   19loPI   C1B  301  17.991  14.914   9.873 -0.4584  0.1051 -0.1404
   19loPI   C2B  302  17.857  14.789   9.625 -0.1383 -0.1492 -0.3106
   19loPI   C3B  303  17.901  14.848   9.207  0.0672 -0.2874 -0.0088
   19loPI   C4B  304  17.889  14.753   8.796 -0.2625 -0.1957  0.1113
   20loPI    C1  305   9.113  16.623  10.589  0.2685 -0.1342  0.0426
   20loPI    C2  306   9.014  16.725  10.963 -0.1175 -0.0664 -0.0736
   20loPI    C3  307   8.879  16.382  10.807  0.1605 -0.1641 -0.1049
   20loPI   PO4  308   9.037  16.807  10.409  0.0187 -0.0033 -0.1977
   20loPI   GL1  309   9.369  16.980  10.176 -0.1002  0.0380  0.1272
   20loPI   GL2  310   9.656  16.978  10.172  0.2168  0.0951 -0.3742
   20loPI   C1A  311   9.184  17.074   9.759  0.0622  0.0324  0.1631
   20loPI   C2A  312   9.322  17.190   9.383 -0.2806 -0.1460  0.1558
   20loPI   C3A  313   9.311  17.187   8.952  0.0882 -0.2236 -0.1026
   20loPI   C4A  314   9.405  17.058   8.616  0.0867 -0.0627  0.1320
   20loPI   C5A  315   9.362  17.064   8.186 -0.1527 -0.0430 -0.2853
   20loPI   C6A  316   9.087  16.938   7.930  0.0359  0.1418  0.0120
   20loPI   C1B  317   9.728  17.168   9.674 -0.0446  0.0421 -0.2195
   20loPI   C2B  318   9.858  17.275   9.222  0.1521 -0.0171 -0.0878
   20loPI   C3B  319   9.909  17.198   8.894 -0.1786  0.0537  0.2832
   20loPI   C4B  320   9.818  17.128   8.433  0.1757 -0.2411  0.0743
   21loPI    C1  321   0.169   4.452  11.398 -0.2365 -0.0915  0.0317
   21loPI    C2  322   0.551   4.336  11.428 -0.2006 -0.0192 -0.1308
   21loPI    C3  323   0.307   4.307  11.744 -0.0178  0.0889  0.0229
   21loPI   PO4  324   0.048   4.264  11.193  0.3292  0.0637 -0.2692
   21loPI   GL1  325   0.232   4.180  10.832  0.1486 -0.2875 -0.0710
   21loPI   GL2  326   0.036   3.940  10.659  0.2315  0.3764 -0.0450
   21loPI   C1A  327   0.549   4.157  10.617 -0.1197  0.0737 -0.0822
   21loPI   C2A  328   0.697   4.157  10.225 -0.1389  0.0470 -0.0174
   21loPI   C3A  329   0.600   4.118   9.839 -0.0684 -0.0594 -0.1243
   21loPI   C4A  330   0.694   4.157   9.461 -0.3100 -0.2664 -0.0507
   21loPI   C5A  331   0.624   4.191   9.039  0.0877 -0.2658 -0.1056
   21loPI   C6A  332   0.578   4.326   8.602  0.0173  0.1587  0.2254
   21loPI   C1B  333   0.065   4.023  10.289  0.2646 -0.1608  0.0632
   21loPI   C2B  334   0.045   4.067   9.780 -0.0439  0.2072 -0.0735
   21loPI   C3B  335   0.110   4.099   9.320 -0.2984  0.0455  0.2340
   21loPI   C4B  336   0.156   4.176   8.882  0.0877  0.1349 -0.1151
   22loPI    C1  337  13.948  11.390  10.981 -0.1117 -0.0077 -0.0595
   22loPI    C2  338  13.864  11.778  10.933  0.0770  0.0209 -0.1673
   22loPI    C3  339  13.928  11.632  11.300 -0.0597  0.0772 -0.1203
   22loPI   PO4  340  13.771  11.301  10.833  0.0249  0.3554  0.0590
   22loPI   GL1  341  13.718  11.391  10.390 -0.1643  0.1853 -0.1648
   22loPI   GL2  342  13.335  11.435  10.521  0.0444  0.1873  0.1087
   22loPI   C1A  343  13.683  11.424   9.878 -0.1550  0.0798  0.0304
   22loPI   C2A  344  13.688  11.335   9.455  0.3756  0.2107 -0.2010
   22loPI   C3A  345  13.871  11.278   9.021 -0.1591 -0.0981 -0.0792
   22loPI   C4A  346  14.009  11.360   8.619 -0.2301 -0.0779  0.0683
   22loPI   C5A  347  14.029  11.029   8.314  0.0924 -0.2487  0.1303
   22loPI   C6A  348  14.078  10.708   7.990 -0.1298  0.1825 -0.0463
   22loPI   C1B  349  13.223  11.403  10.138  0.0918  0.0324 -0.2800
   22loPI   C2B  350  13.221  11.343   9.693  0.1979 -0.1045  0.0550
   22loPI   C3B  351  13.276  11.303   9.222 -0.0645  0.1178  0.2679
   22loPI   C4B  352  13.396  11.307   8.856 -0.0634  0.1883  0.1748
   23loPI    C1  353   5.121   5.138  11.321 -0.0678  0.2073  0.0394
   23loPI    C2  354   5.423   5.283  11.540  0.3712 -0.1967 -0.2769
   23loPI    C3  355   5.221   4.962  11.666  0.1322  0.0133 -0.1145
   23loPI   PO4  356   4.983   5.278  11.278 -0.1606  0.2313 -0.1083
   23loPI   GL1  357   4.826   5.280  10.828  0.2014 -0.1559 -0.3062
   23loPI   GL2  358   5.140   5.502  10.788 -0.1403  0.0877  0.1791
   23loPI   C1A  359   4.732   5.499  10.500 -0.3393  0.4191  0.0871
   23loPI   C2A  360   4.642   5.502  10.059  0.0540  0.0621 -0.0822
   23loPI   C3A  361   4.689   5.542   9.580 -0.1367 -0.0920  0.0967
   23loPI   C4A  362   4.646   5.593   9.164 -0.1409  0.0176 -0.1308
   23loPI   C5A  363   4.265   5.396   8.907  0.0119  0.1874  0.0377
   23loPI   C6A  364   4.399   5.239   8.528  0.1251 -0.2483  0.1287
   23loPI   C1B  365   5.294   5.550  10.292  0.0702  0.2266 -0.0117
   23loPI   C2B  366   5.175   5.498   9.799  0.3985 -0.1539  0.0746
   23loPI   C3B  367   5.245   5.588   9.355 -0.0205 -0.3393  0.1345
   23loPI   C4B  368   5.354   5.613   8.857  0.1320 -0.3823 -0.0860
   24loPI    C1  369   9.005  17.214  10.739  0.0335  0.2508  0.2329
   24loPI    C2  370   8.786  17.350  11.044 -0.0259  0.1828  0.2210
   24loPI    C3  371   8.662  17.033  10.835  0.0023  0.2443  0.1103
   24loPI   PO4  372   9.093  17.362  10.541  0.0996  0.1924  0.3408
   24loPI   GL1  373   9.096  17.675  10.308 -0.0052 -0.0948  0.0695
   24loPI   GL2  374   9.116  18.052  10.302  0.0999  0.3690  0.1169
   24loPI   C1A  375   8.837  17.459   9.909 -0.0306 -0.0759  0.0173
   24loPI   C2A  376   8.894  17.503   9.457 -0.1787 -0.3211 -0.1598
   24loPI   C3A  377   9.050  17.583   9.034 -0.0034  0.1576  0.1976
   24loPI   C4A  378   9.063  17.513   8.645 -0.2568  0.2753  0.0254
   24loPI   C5A  379   8.845  17.550   8.302  0.2574 -0.0291  0.0359
   24loPI   C6A  380   8.817  17.435   7.877  0.1212  0.4338 -0.3967
   24loPI   C1B  381   9.164  18.001   9.875  0.2054  0.2423  0.1024
   24loPI   C2B  382   9.122  17.983   9.432  0.2110  0.0754  0.1010
   24loPI   C3B  383   9.176  18.077   8.982  0.0879  0.0955  0.1170
   24loPI   C4B  384   9.204  17.966   8.490 -0.3441 -0.0179  0.0262
   25loPI    C1  385  17.628   8.170  11.490  0.2345 -0.0768 -0.0410
   25loPI    C2  386  17.765   8.545  11.496  0.0979 -0.0282  0.1499
   25loPI    C3  387  17.432   8.451  11.696 -0.0184 -0.1944 -0.1169
   25loPI   PO4  388  17.691   8.149  11.152  0.3624 -0.1884  0.2189
   25loPI   GL1  389  17.617   8.050  10.664 -0.2614 -0.0835  0.5770
   25loPI   GL2  390  17.883   8.242  10.707  0.0874  0.0612  0.0165
   25loPI   C1A  391  17.325   8.192  10.370 -0.2151 -0.0425  0.0004
   25loPI   C2A  392  17.325   8.148   9.928  0.2705 -0.1337 -0.1490
   25loPI   C3A  393  17.358   8.090   9.572  0.2209 -0.1144 -0.2445
   25loPI   C4A  394  17.352   8.063   9.161 -0.2016  0.1944 -0.2911
   25loPI   C5A  395  17.456   8.018   8.807  0.0582  0.1299  0.0333
   25loPI   C6A  396  17.171   8.334   8.464 -0.0059 -0.0258  0.0677
   25loPI   C1B  397  17.879   8.185  10.219  0.0414  0.1270 -0.2577
   25loPI   C2B  398  17.869   8.118   9.777  0.3040  0.2804  0.1137
   25loPI   C3B  399  17.898   8.127   9.385  0.0584  0.1341  0.1007
   25loPI   C4B  400  17.978   8.048   8.933 -0.1677 -0.2407  0.0430
   26loPI    C1  401  17.465  11.486  11.159 -0.0635 -0.1927 -0.0250
   26loPI    C2  402  17.542  11.274  11.489  0.1080 -0.0662  0.0179
   26loPI    C3  403  17.785  11.246  11.173  0.1593  0.1019  0.0414
   26loPI   PO4  404  17.285  11.453  11.008 -0.1635  0.2631  0.0791
   26loPI   GL1  405  17.286  11.640  10.687  0.3579 -0.2575 -0.0092
   26loPI   GL2  406  17.058  11.638  10.489 -0.1770 -0.3870  0.3192
   26loPI   C1A  407  17.528  11.609  10.233  0.1372  0.2977  0.2839
   26loPI   C2A  408  17.441  11.610   9.845 -0.2004 -0.0795  0.0794
   26loPI   C3A  409  17.568  11.661   9.542 -0.1752  0.0507  0.2396
   26loPI   C4A  410  17.604  11.713   9.113 -0.1338  0.2575  0.0625
   26loPI   C5A  411  17.685  11.662   8.731 -0.3150  0.0677 -0.2696
   26loPI   C6A  412  17.543  11.819   8.336 -0.0753  0.0087  0.3248
   26loPI   C1B  413  16.995  11.654  10.051  0.1144 -0.1106 -0.0369
   26loPI   C2B  414  17.018  11.542   9.585  0.1722 -0.2004  0.0003
   26loPI   C3B  415  17.077  11.661   9.210  0.1555  0.0389  0.2497
   26loPI   C4B  416  17.161  11.612   8.828 -0.0639 -0.0042  0.0287
   27loPI    C1  417  16.177   5.081  11.113  0.1799 -0.2751 -0.2645
   27loPI    C2  418  16.450   5.173  11.391 -0.1303  0.1528 -0.0906
   27loPI    C3  419  16.225   4.845  11.432 -0.1676  0.2080  0.1618
   27loPI   PO4  420  16.383   5.056  10.854  0.1513 -0.0946  0.2121
   27loPI   GL1  421  16.220   5.216  10.476  0.0924  0.0953 -0.1781
   27loPI   GL2  422  16.223   5.577  10.406 -0.1169 -0.0989 -0.0824
   27loPI   C1A  423  16.020   5.259  10.039  0.2011  0.2189  0.1027
   27loPI   C2A  424  15.992   5.343   9.593 -0.0140  0.0350 -0.4435
   27loPI   C3A  425  15.983   5.264   9.219  0.0128  0.2481 -0.0115
   27loPI   C4A  426  15.958   5.203   8.777 -0.0842 -0.1500 -0.2562
   27loPI   C5A  427  16.180   5.013   8.328 -0.1660  0.0593 -0.1585
   27loPI   C6A  428  16.528   4.850   8.118 -0.1532 -0.1937  0.3314
   27loPI   C1B  429  16.202   5.742   9.885  0.1659  0.0012 -0.0687
   27loPI   C2B  430  16.218   5.789   9.442 -0.2893  0.0646  0.0816
   27loPI   C3B  431  16.326   5.766   8.988  0.0634  0.2860 -0.0790
   27loPI   C4B  432  16.306   5.613   8.515 -0.0898  0.1338 -0.0532
   28loPI    C1  433   4.533   9.163  11.182 -0.0424 -0.0848 -0.1453
   28loPI    C2  434   4.663   9.541  11.185 -0.5068  0.0820  0.2670
   28loPI    C3  435   4.856   9.262  11.397 -0.1065  0.0584 -0.1139
   28loPI   PO4  436   4.503   9.123  10.897 -0.0209  0.0689 -0.1109
   28loPI   GL1  437   4.610   8.887  10.654  0.3498 -0.1106  0.1044
   28loPI   GL2  438   4.381   8.641  10.713 -0.1610 -0.1375  0.0735
   28loPI   C1A  439   4.628   8.729  10.237 -0.0772  0.0505  0.3036
   28loPI   C2A  440   4.630   8.728   9.840  0.3774 -0.0625  0.1140
   28loPI   C3A  441   4.652   8.658   9.421 -0.0066  0.1435  0.0018
   28loPI   C4A  442   4.691   8.639   9.001 -0.0848 -0.2055  0.2567
   28loPI   C5A  443   4.341   8.559   8.746  0.0054 -0.0381  0.1451
   28loPI   C6A  444   4.000   8.791   8.390 -0.2314 -0.2124 -0.0016
   28loPI   C1B  445   4.136   8.757  10.411 -0.3132 -0.1994 -0.2453
   28loPI   C2B  446   4.154   8.708  10.008 -0.0071 -0.0839 -0.1192
   28loPI   C3B  447   4.110   8.599   9.622  0.0715  0.1513  0.1691
   28loPI   C4B  448   4.136   8.501   9.195 -0.1552 -0.1334  0.1717
   29loPI    C1  449   8.869  10.976  10.996 -0.0088 -0.1481 -0.0186
   29loPI    C2  450   9.126  10.687  11.099  0.0801 -0.0799 -0.0473
   29loPI    C3  451   8.762  10.701  11.265  0.1747 -0.0475  0.1599
   29loPI   PO4  452   8.853  10.976  10.709  0.3337  0.0752 -0.1031
   29loPI   GL1  453   9.062  11.199  10.387 -0.1392  0.1139 -0.0742
   29loPI   GL2  454   9.315  11.290  10.404 -0.1652 -0.2502  0.0602
   29loPI   C1A  455   9.214  11.025  10.035  0.1850  0.3528 -0.1177
   29loPI   C2A  456   9.160  11.038   9.631  0.2541  0.1289  0.0170
   29loPI   C3A  457   9.304  10.913   9.358  0.0277 -0.0090 -0.1959
   29loPI   C4A  458   9.167  11.003   8.969 -0.0692 -0.0647 -0.0966
   29loPI   C5A  459   9.205  10.817   8.683 -0.0272 -0.1150  0.1287
   29loPI   C6A  460   8.927  10.548   8.504 -0.3355  0.1375 -0.4867
   29loPI   C1B  461   9.430  11.486   9.948 -0.0975 -0.1009  0.1052
   29loPI   C2B  462   9.408  11.462   9.544 -0.1334  0.1154 -0.1241
   29loPI   C3B  463   9.396  11.424   9.211  0.4384  0.1536  0.2680
   29loPI   C4B  464   9.407  11.475   8.848 -0.0030  0.0782  0.0304
   30loPI    C1  465   6.101   7.758  11.488 -0.0979  0.1748 -0.2262
   30loPI    C2  466   5.929   7.618  11.821 -0.0624  0.0155 -0.2742
   30loPI    C3  467   6.138   7.959  11.832 -0.0965  0.0328 -0.1426
   30loPI   PO4  468   6.247   7.567  11.416  0.0561  0.2010 -0.0741
   30loPI   GL1  469   6.440   7.570  10.984  0.1784 -0.1782  0.1422
   30loPI   GL2  470   6.519   7.857  11.015  0.1880 -0.1253  0.0444
   30loPI   C1A  471   6.469   7.565  10.598 -0.1461 -0.0761 -0.0128
   30loPI   C2A  472   6.576   7.549  10.129 -0.1479 -0.1212  0.3696
   30loPI   C3A  473   6.565   7.621   9.767  0.0623  0.0270  0.0094
   30loPI   C4A  474   6.656   7.598   9.330  0.0082  0.1056  0.0149
   30loPI   C5A  475   6.438   7.413   9.038 -0.2193  0.1802 -0.1094
   30loPI   C6A  476   6.360   6.966   8.863 -0.1500 -0.0302  0.2516
   30loPI   C1B  477   6.677   8.011  10.503 -0.0422  0.0012 -0.1252
   30loPI   C2B  478   6.732   8.034  10.043  0.3144 -0.1797  0.0653
   30loPI   C3B  479   6.787   8.026   9.551 -0.0668 -0.2802 -0.3638
   30loPI   C4B  480   6.813   8.011   9.117  0.2621  0.0209 -0.2229
   31loPI    C1  481   2.793   2.215  10.869  0.1392 -0.0548 -0.0919
   31loPI    C2  482   2.403   2.253  10.787  0.1523 -0.0107 -0.1343
   31loPI    C3  483   2.521   2.068  11.122  0.0922  0.1141 -0.0437
   31loPI   PO4  484   2.921   2.478  10.909  0.1173  0.2500 -0.2063
   31loPI   GL1  485   3.039   2.906  10.626  0.0247 -0.1238 -0.2029
   31loPI   GL2  486   2.891   2.638  10.468 -0.5075  0.2635 -0.2055
   31loPI   C1A  487   3.067   3.061  10.170  0.1879  0.2000 -0.1967
   31loPI   C2A  488   2.988   3.106   9.766 -0.4147  0.0005  0.1072
   31loPI   C3A  489   3.104   3.096   9.452  0.3085 -0.1842  0.2230
   31loPI   C4A  490   3.165   3.107   9.016  0.2238  0.1630 -0.1530
   31loPI   C5A  491   3.159   3.150   8.559 -0.0399  0.1146  0.0416
   31loPI   C6A  492   3.008   2.933   8.228 -0.1019 -0.0203 -0.2023
   31loPI   C1B  493   2.854   2.582  10.087  0.1732  0.2769  0.3907
   31loPI   C2B  494   2.712   2.645   9.660  0.1010 -0.4117 -0.5348
   31loPI   C3B  495   2.919   2.661   9.218 -0.1793 -0.2153  0.3541
   31loPI   C4B  496   3.031   2.632   8.770 -0.0592  0.1435 -0.0278
   32loPI    C1  497  14.337  17.280  11.040  0.0672  0.0388 -0.1209
   32loPI    C2  498  14.480  17.532  11.316 -0.2979 -0.0327  0.1395
   32loPI    C3  499  14.471  17.139  11.389 -0.1218 -0.0831 -0.0965
   32loPI   PO4  500  14.420  17.305  10.850 -0.0690 -0.3844  0.0576
   32loPI   GL1  501  14.298  17.505  10.528  0.0456 -0.3434  0.2963
   32loPI   GL2  502  14.222  17.168  10.285  0.2652  0.1111  0.1887
   32loPI   C1A  503  14.428  17.591  10.100  0.2563 -0.2596 -0.2109
   32loPI   C2A  504  14.358  17.708   9.610  0.0500 -0.2177 -0.1178
   32loPI   C3A  505  14.285  17.629   9.178  0.2821  0.3074  0.4583
   32loPI   C4A  506  14.378  17.636   8.766 -0.2583  0.0368 -0.1390
   32loPI   C5A  507  14.384  17.648   8.361  0.0496 -0.2419  0.2093
   32loPI   C6A  508  14.390  17.976   8.011  0.0867  0.0260 -0.2188
   32loPI   C1B  509  14.141  17.066   9.977 -0.1229  0.1354 -0.1370
   32loPI   C2B  510  14.157  17.245   9.504 -0.0024 -0.1325 -0.0610
   32loPI   C3B  511  14.138  17.150   9.087  0.0598 -0.1071  0.0387
   32loPI   C4B  512  14.183  17.217   8.656 -0.0084  0.0117 -0.4441
   33loPI    C1  513   0.947   2.868  11.442  0.0861  0.1695 -0.0027
   33loPI    C2  514   1.060   3.227  11.577 -0.1018  0.1772  0.1375
   33loPI    C3  515   1.090   2.906  11.814 -0.2842  0.1642  0.1445
   33loPI   PO4  516   0.911   2.891  11.170 -0.1030 -0.1710 -0.0167
   33loPI   GL1  517   0.712   2.826  10.823 -0.0950 -0.0055  0.0643
   33loPI   GL2  518   0.718   2.530  10.667  0.1803  0.0185 -0.2109
   33loPI   C1A  519   0.674   3.135  10.495 -0.0588  0.2848  0.3179
   33loPI   C2A  520   0.641   3.268  10.073 -0.0960 -0.0605  0.1281
   33loPI   C3A  521   0.667   3.287   9.726 -0.2344  0.0510 -0.3555
   33loPI   C4A  522   0.788   3.353   9.367  0.0845  0.0251  0.1020
   33loPI   C5A  523   0.990   3.291   9.011 -0.0267  0.2355 -0.1577
   33loPI   C6A  524   0.909   3.315   8.509 -0.2288 -0.0163  0.0545
   33loPI   C1B  525   0.764   2.377  10.309  0.1625  0.4173 -0.2453
   33loPI   C2B  526   0.770   2.334   9.866 -0.1306 -0.1577 -0.3164
   33loPI   C3B  527   0.705   2.440   9.528  0.3550  0.2503  0.2741
   33loPI   C4B  528   0.686   2.408   9.120  0.1907 -0.1869  0.0222
   34loPI    C1  529  17.346   0.788  10.887 -0.1615  0.0484 -0.0987
   34loPI    C2  530  17.660   0.631  11.080 -0.0471 -0.0646 -0.3720
   34loPI    C3  531  17.307   0.662  11.265  0.0837 -0.0830 -0.1147
   34loPI   PO4  532  17.502   0.988  10.741 -0.2242 -0.0884 -0.1748
   34loPI   GL1  533  17.394   0.968  10.389 -0.1736  0.1663  0.1346
   34loPI   GL2  534  17.248   1.218  10.307  0.1903  0.1588 -0.2692
   34loPI   C1A  535  17.419   0.943   9.947  0.0212 -0.0289  0.1650
   34loPI   C2A  536  17.397   0.922   9.513  0.0316  0.2168 -0.2028
   34loPI   C3A  537  17.332   0.948   9.072  0.1664  0.2533  0.2953
   34loPI   C4A  538  17.596   0.797   8.691  0.1755  0.0154 -0.4446
   34loPI   C5A  539  17.413   0.506   8.386  0.1545  0.2553 -0.2249
   34loPI   C6A  540  17.128   0.162   8.325 -0.0823  0.1334 -0.0992
   34loPI   C1B  541  17.140   1.341   9.884  0.1721 -0.1744  0.2410
   34loPI   C2B  542  17.193   1.390   9.469  0.0410 -0.0267 -0.0767
   34loPI   C3B  543  17.101   1.387   9.035  0.0421  0.1871 -0.0068
   34loPI   C4B  544  17.027   1.222   8.646 -0.0166  0.0190  0.1822
   35loPI    C1  545   2.724   9.967  11.291  0.0060  0.2045  0.2218
   35loPI    C2  546   2.785   9.712  11.593 -0.1450 -0.0479  0.0428
   35loPI    C3  547   2.415   9.838  11.509 -0.0699  0.2439  0.1382
   35loPI   PO4  548   2.875   9.872  11.042 -0.1071  0.0877 -0.0358
   35loPI   GL1  549   2.803   9.988  10.589 -0.0397 -0.1835 -0.3175
   35loPI   GL2  550   2.622   9.727  10.544 -0.1208 -0.0170 -0.1757
   35loPI   C1A  551   2.866  10.291  10.292  0.2842  0.0770 -0.0885
   35loPI   C2A  552   2.904  10.264   9.798 -0.3503  0.2288  0.1306
   35loPI   C3A  553   2.962  10.308   9.357  0.1619 -0.1016  0.2147
   35loPI   C4A  554   2.869  10.178   8.848 -0.2078 -0.1506 -0.3305
   35loPI   C5A  555   2.714   9.948   8.442  0.0536 -0.2373  0.1318
   35loPI   C6A  556   2.405   9.816   8.200 -0.2839  0.0071 -0.2704
   35loPI   C1B  557   2.642   9.789  10.134  0.0224  0.1427  0.1289
   35loPI   C2B  558   2.644   9.807   9.787 -0.1442  0.3247 -0.1190
   35loPI   C3B  559   2.699   9.760   9.342 -0.2154  0.0208 -0.0767
   35loPI   C4B  560   2.720   9.702   8.980  0.0947 -0.0393  0.0190
   36loPI    C1  561   9.913   3.409  11.247  0.1006  0.1244  0.1932
   36loPI    C2  562  10.290   3.409  11.380  0.0883  0.3834  0.2341
   36loPI    C3  563   9.995   3.274  11.614  0.1809 -0.0364  0.1171
   36loPI   PO4  564   9.835   3.225  11.045 -0.1529 -0.1675 -0.1278
   36loPI   GL1  565   9.759   3.212  10.651  0.1803 -0.1762  0.1944
   36loPI   GL2  566   9.487   3.144  10.501  0.1156  0.1966 -0.2986
   36loPI   C1A  567   9.962   3.327  10.244  0.1945 -0.0542 -0.0745
   36loPI   C2A  568   9.989   3.327   9.854  0.0950  0.1192  0.2188
   36loPI   C3A  569  10.007   3.349   9.452  0.2046 -0.3280  0.3135
   36loPI   C4A  570  10.007   3.412   9.024 -0.0710  0.0436 -0.1954
   36loPI   C5A  571  10.038   3.383   8.574 -0.0823  0.0350 -0.0469
   36loPI   C6A  572   9.651   3.438   8.297 -0.0563 -0.1126  0.0155
   36loPI   C1B  573   9.506   3.205  10.078 -0.0180  0.0005 -0.2072
   36loPI   C2B  574   9.465   3.300   9.664  0.0026  0.0261  0.0574
   36loPI   C3B  575   9.563   3.238   9.191 -0.0470 -0.1480  0.1079
   36loPI   C4B  576   9.585   3.291   8.751  0.0128 -0.0617  0.0986
   37loPI    C1  577   5.542   0.029  10.806 -0.1467  0.1060  0.0645
   37loPI    C2  578   5.452  -0.342  10.927 -0.3268  0.0680 -0.1779
   37loPI    C3  579   5.552  -0.063  11.195 -0.4588 -0.0832  0.0319
   37loPI   PO4  580   5.777  -0.115  10.533 -0.2060  0.1176 -0.2207
   37loPI   GL1  581   5.755  -0.266  10.148 -0.0997 -0.2615  0.0807
   37loPI   GL2  582   5.405  -0.273   9.900  0.1409 -0.0117  0.0947
   37loPI   C1A  583   5.931  -0.244   9.695 -0.0044 -0.2720  0.0522
   37loPI   C2A  584   6.038  -0.266   9.275 -0.1647  0.3128  0.0796
   37loPI   C3A  585   6.070  -0.256   8.872 -0.0216 -0.0759 -0.0079
   37loPI   C4A  586   6.039  -0.435   8.440  0.0337  0.0082 -0.2435
   37loPI   C5A  587   6.325  -0.602   8.258  0.0712  0.0556 -0.0593
   37loPI   C6A  588   6.677  -0.787   8.064 -0.2737  0.1362  0.0010
   37loPI   C1B  589   5.465  -0.153   9.465  0.0836 -0.0279  0.0855
   37loPI   C2B  590   5.581  -0.249   9.026 -0.2661 -0.4786 -0.0995
   37loPI   C3B  591   5.546  -0.322   8.555  0.0852  0.1347  0.1821
   37loPI   C4B  592   5.435  -0.525   8.229  0.2705 -0.0715 -0.0142
   38loPI    C1  593   7.461  13.148  10.687  0.0189 -0.0092  0.0309
   38loPI    C2  594   7.323  13.100  11.059 -0.3827 -0.1140 -0.1265
   38loPI    C3  595   7.337  13.466  10.897  0.0678 -0.0289  0.0897
   38loPI   PO4  596   7.411  12.927  10.495  0.0725 -0.0224  0.0553
   38loPI   GL1  597   7.530  12.751  10.044 -0.0858 -0.1791  0.1612
   38loPI   GL2  598   7.689  13.063  10.078 -0.1201 -0.1720 -0.6216
   38loPI   C1A  599   7.598  12.719   9.692 -0.0088  0.1455  0.0226
   38loPI   C2A  600   7.577  12.668   9.377  0.2508 -0.0516  0.0803
   38loPI   C3A  601   7.521  12.582   8.919  0.1279 -0.1157  0.3744
   38loPI   C4A  602   7.369  12.712   8.529  0.0725  0.3228 -0.1962
   38loPI   C5A  603   7.612  12.648   8.053 -0.2692 -0.1668 -0.1216
   38loPI   C6A  604   7.690  12.596   7.606 -0.0019 -0.0836 -0.1315
   38loPI   C1B  605   7.412  13.200   9.757 -0.0418 -0.7564 -0.4287
   38loPI   C2B  606   7.464  13.150   9.363  0.0768  0.2533  0.3543
   38loPI   C3B  607   7.546  13.072   8.949  0.0430  0.1821 -0.2657
   38loPI   C4B  608   7.734  13.305   8.623  0.0504  0.0066 -0.0486
   39loPI    C1  609   4.715  15.216  10.331  0.1946 -0.1166 -0.1820
   39loPI    C2  610   5.111  15.165  10.303  0.1952 -0.1483 -0.1180
   39loPI    C3  611   4.937  15.186  10.662  0.1285 -0.2152 -0.1461
   39loPI   PO4  612   4.631  15.420  10.228  0.1142  0.1963 -0.0311
   39loPI   GL1  613   4.810  15.548   9.897  0.0654 -0.4591 -0.0705
   39loPI   GL2  614   4.830  15.194   9.787 -0.1236 -0.0826 -0.1641
   39loPI   C1A  615   4.773  15.707   9.535 -0.2774  0.2302 -0.0402
   39loPI   C2A  616   4.763  15.789   9.117 -0.1219 -0.0990  0.0268
   39loPI   C3A  617   4.845  15.771   8.634  0.1771  0.1324 -0.0457
   39loPI   C4A  618   4.948  15.730   8.254 -0.1105 -0.1706 -0.1125
   39loPI   C5A  619   4.945  15.472   7.852 -0.1488  0.1571 -0.1753
   39loPI   C6A  620   4.882  15.006   7.887 -0.0058 -0.0477 -0.0327
   39loPI   C1B  621   4.772  15.149   9.302  0.2382  0.2003 -0.0715
   39loPI   C2B  622   4.663  14.878   9.063 -0.0410 -0.0117  0.0622
   39loPI   C3B  623   4.746  14.789   8.685 -0.0305 -0.0197  0.2185
   39loPI   C4B  624   5.152  14.642   8.362 -0.2936 -0.0585  0.2075
   40loPI    C1  625   6.693   9.467  11.115  0.0958 -0.0156  0.2036
   40loPI    C2  626   6.470   9.684  11.367 -0.1691 -0.0884  0.0360
   40loPI    C3  627   6.701   9.389  11.508 -0.1816 -0.0156  0.2117
   40loPI   PO4  628   6.558   9.339  10.975  0.2971  0.1060  0.0158
   40loPI   GL1  629   6.471   9.393  10.552  0.2352 -0.1110  0.1818
   40loPI   GL2  630   6.684   9.117  10.560 -0.2541 -0.1497  0.2032
   40loPI   C1A  631   6.303   9.434  10.195 -0.0819  0.2261  0.1307
   40loPI   C2A  632   6.382   9.347   9.862  0.1644 -0.3338  0.1431
   40loPI   C3A  633   6.366   9.293   9.459 -0.2372 -0.1646  0.0332
   40loPI   C4A  634   6.430   9.327   9.058 -0.4819 -0.1582  0.0767
   40loPI   C5A  635   6.603   9.401   8.694 -0.1128  0.1458 -0.1771
   40loPI   C6A  636   6.651   9.098   8.391  0.0964  0.1615  0.1174
   40loPI   C1B  637   6.608   8.911  10.149  0.1190 -0.3251 -0.0841
   40loPI   C2B  638   6.681   8.951   9.744 -0.0010  0.4622 -0.0088
   40loPI   C3B  639   6.653   8.864   9.341 -0.2823  0.0675  0.0279
   40loPI   C4B  640   6.755   8.904   8.881 -0.1391  0.2781  0.0303
   41loPI    C1  641   6.156   2.971  11.292  0.1688 -0.2209 -0.1581
   41loPI    C2  642   5.898   2.918  11.593  0.3057  0.0286  0.0070
   41loPI    C3  643   6.289   2.856  11.651  0.3310  0.0618 -0.1245
   41loPI   PO4  644   6.013   3.103  11.096 -0.2047  0.1168 -0.0918
   41loPI   GL1  645   5.911   3.142  10.618 -0.3753  0.2665  0.1307
   41loPI   GL2  646   5.773   2.863  10.424  0.1450 -0.1267  0.1162
   41loPI   C1A  647   6.059   3.334  10.237  0.0911  0.1488  0.1010
   41loPI   C2A  648   6.187   3.328   9.889 -0.0453 -0.1991  0.2382
   41loPI   C3A  649   6.241   3.415   9.480 -0.0371  0.3128 -0.0096
   41loPI   C4A  650   6.167   3.496   9.094 -0.1935  0.0851  0.2359
   41loPI   C5A  651   6.147   3.539   8.717 -0.0427  0.1537 -0.0337
   41loPI   C6A  652   5.912   3.407   8.402 -0.1220  0.2224  0.0285
   41loPI   C1B  653   5.869   2.884  10.020 -0.2593  0.0103  0.0875
   41loPI   C2B  654   6.011   2.929   9.656  0.3745 -0.1015  0.0258
   41loPI   C3B  655   6.039   3.001   9.261  0.0934 -0.0448 -0.2895
   41loPI   C4B  656   5.986   3.074   8.832 -0.1430  0.0454  0.1501
   42loPI    C1  657  10.969  11.294  10.878 -0.0360 -0.0872 -0.0284
   42loPI    C2  658  10.586  11.305  10.764 -0.0524 -0.2348  0.0094
   42loPI    C3  659  10.678  11.286  11.152 -0.0028 -0.0425  0.0083
   42loPI   PO4  660  11.080  11.128  10.675  0.2017 -0.1352 -0.0978
   42loPI   GL1  661  11.223  11.107  10.284  0.0763 -0.0250 -0.1606
   42loPI   GL2  662  11.504  11.293  10.433 -0.0754 -0.1586  0.0362
   42loPI   C1A  663  11.247  11.131   9.830 -0.0035  0.0279  0.4270
   42loPI   C2A  664  11.211  11.103   9.399  0.0465 -0.1120  0.1205
   42loPI   C3A  665  11.308  11.144   8.961 -0.1356  0.2994 -0.0469
   42loPI   C4A  666  11.431  11.082   8.526  0.1130  0.1845 -0.0279
   42loPI   C5A  667  11.854  11.208   8.330 -0.1232 -0.2874  0.1770
   42loPI   C6A  668  11.994  11.602   8.208  0.2317  0.1549  0.3337
   42loPI   C1B  669  11.706  11.247  10.028 -0.1864  0.1111 -0.1490
   42loPI   C2B  670  11.710  11.164   9.624  0.0469 -0.0328 -0.0566
   42loPI   C3B  671  11.805  11.159   9.204 -0.0880 -0.3629 -0.0146
   42loPI   C4B  672  11.905  11.258   8.834 -0.1408  0.3222 -0.2119
   43loPI    C1  673  11.824  14.148  11.246 -0.0352  0.0148  0.1498
   43loPI    C2  674  12.050  13.946  11.507  0.1622  0.1840  0.1122
   43loPI    C3  675  11.890  13.757  11.193  0.3303  0.0812  0.0871
   43loPI   PO4  676  12.032  14.329  11.127 -0.0959  0.0828 -0.0891
   43loPI   GL1  677  12.035  14.395  10.724  0.0820  0.1824 -0.0138
   43loPI   GL2  678  11.948  14.081  10.630 -0.1230  0.0373 -0.0449
   43loPI   C1A  679  12.227  14.384  10.267  0.6300 -0.0716  0.0321
   43loPI   C2A  680  12.365  14.348   9.779  0.3362 -0.2267 -0.4228
   43loPI   C3A  681  12.349  14.410   9.308  0.0600  0.0548  0.1883
   43loPI   C4A  682  12.337  14.424   8.882 -0.1717 -0.0807 -0.0695
   43loPI   C5A  683  12.290  14.375   8.453 -0.3342 -0.2463 -0.3869
   43loPI   C6A  684  12.315  14.292   8.036 -0.0989  0.1240  0.0291
   43loPI   C1B  685  12.084  13.844  10.362 -0.0518 -0.0253 -0.1212
   43loPI   C2B  686  12.102  13.856   9.912  0.0319  0.4893  0.0372
   43loPI   C3B  687  12.062  13.891   9.424 -0.0982 -0.2302  0.1875
   43loPI   C4B  688  12.082  13.987   8.924  0.0330  0.1812  0.3266
   44loPI    C1  689  12.564  13.666  11.356  0.2343  0.0341 -0.1609
   44loPI    C2  690  12.805  13.598  11.668 -0.0951 -0.0091  0.0896
   44loPI    C3  691  12.487  13.837  11.709 -0.1566 -0.0359 -0.2075
   44loPI   PO4  692  12.751  13.771  11.145 -0.2269  0.0671  0.1744
   44loPI   GL1  693  12.804  13.919  10.751 -0.2517  0.2962  0.2225
   44loPI   GL2  694  12.565  13.934  10.525 -0.0149 -0.0112  0.2769
   44loPI   C1A  695  13.044  14.067  10.332 -0.0050 -0.0339  0.0895
   44loPI   C2A  696  13.135  14.010   9.904 -0.0548 -0.3638 -0.0594
   44loPI   C3A  697  13.089  14.039   9.433  0.0369  0.0455  0.0215
   44loPI   C4A  698  13.093  14.018   9.002 -0.0987  0.1184 -0.1626
   44loPI   C5A  699  13.065  13.769   8.607 -0.2796 -0.2518 -0.0317
   44loPI   C6A  700  13.231  13.527   8.333 -0.0781  0.2820  0.0358
   44loPI   C1B  701  12.543  13.981  10.051  0.0626  0.2008  0.3190
   44loPI   C2B  702  12.668  14.024   9.662 -0.2525  0.2543  0.0453
   44loPI   C3B  703  12.592  13.926   9.239  0.2494  0.0616  0.1301
   44loPI   C4B  704  12.601  13.930   8.794 -0.0571  0.1195 -0.1834
   45loPI    C1  705  16.181   7.638  11.093 -0.1403 -0.3315 -0.1574
   45loPI    C2  706  16.228   7.573  11.485 -0.0643  0.1001 -0.0903
   45loPI    C3  707  15.860   7.601  11.329 -0.0946  0.1592 -0.0086
   45loPI   PO4  708  16.282   7.472  10.993  0.0807  0.1252  0.0462
   45loPI   GL1  709  16.575   7.422  10.623 -0.1755 -0.0525 -0.1765
   45loPI   GL2  710  16.423   7.090  10.579 -0.1936  0.2129 -0.2667
   45loPI   C1A  711  16.500   7.641  10.215  0.0756 -0.0045  0.0073
   45loPI   C2A  712  16.616   7.556   9.839 -0.0916 -0.0850 -0.0062
   45loPI   C3A  713  16.649   7.622   9.285  0.1643  0.1065 -0.3150
   45loPI   C4A  714  16.547   7.633   8.901  0.2844  0.0534 -0.1658
   45loPI   C5A  715  16.308   7.845   8.483 -0.0411 -0.0589  0.1824
   45loPI   C6A  716  16.504   8.263   8.248  0.3026 -0.2294 -0.0244
   45loPI   C1B  717  16.389   7.130  10.134 -0.0095 -0.0836  0.0331
   45loPI   C2B  718  16.386   7.073   9.641  0.0446  0.3537 -0.0936
   45loPI   C3B  719  16.434   7.183   9.172 -0.0205  0.0554 -0.2491
   45loPI   C4B  720  16.531   7.145   8.783  0.0721 -0.0330 -0.2261
   46loPI    C1  721  13.620   0.742  11.233 -0.0085  0.0472 -0.1002
   46loPI    C2  722  13.512   1.121  11.300 -0.1002  0.0107 -0.0402
   46loPI    C3  723  13.544   0.865  11.606  0.2073  0.0335 -0.0501
   46loPI   PO4  724  13.437   0.675  10.929 -0.2720 -0.0476 -0.0175
   46loPI   GL1  725  13.432   0.780  10.544 -0.1842  0.2320 -0.1124
   46loPI   GL2  726  13.188   0.852  10.467 -0.0347  0.3008  0.2266
   46loPI   C1A  727  13.509   1.031  10.154  0.1190  0.1243 -0.3555
   46loPI   C2A  728  13.466   1.049   9.738  0.0322 -0.1755  0.1758
   46loPI   C3A  729  13.406   1.115   9.349 -0.1649 -0.1278  0.0183
   46loPI   C4A  730  13.503   1.115   8.936  0.1420  0.3183  0.1768
   46loPI   C5A  731  13.616   1.211   8.542 -0.2162  0.0945  0.0948
   46loPI   C6A  732  13.953   1.404   8.299 -0.2733 -0.0470  0.0900
   46loPI   C1B  733  13.341   0.609  10.057 -0.0505  0.2507 -0.2089
   46loPI   C2B  734  13.203   0.599   9.685  0.0227  0.1846 -0.3511
   46loPI   C3B  735  13.228   0.595   9.327  0.1646  0.1273  0.1660
   46loPI   C4B  736  13.431   0.596   8.970  0.5648  0.1340  0.1498
   47loPI    C1  737  16.473   6.212  11.042 -0.0617  0.2887  0.0002
   47loPI    C2  738  16.501   6.565  11.227  0.2463  0.2645  0.0037
   47loPI    C3  739  16.640   6.235  11.405  0.2102  0.1842 -0.1164
   47loPI   PO4  740  16.650   6.208  10.796 -0.2441  0.4904  0.1971
   47loPI   GL1  741  16.470   6.102  10.390 -0.1212 -0.2830 -0.0008
   47loPI   GL2  742  16.739   5.838  10.373  0.1356  0.0536  0.2524
   47loPI   C1A  743  16.439   6.241   9.951  0.4015 -0.1364  0.2857
   47loPI   C2A  744  16.499   6.300   9.530 -0.0560  0.0197  0.1154
   47loPI   C3A  745  16.515   6.261   9.087  0.1877  0.3110 -0.4599
   47loPI   C4A  746  16.592   6.121   8.616  0.2377  0.0299  0.1212
   47loPI   C5A  747  16.616   6.008   8.156  0.2616 -0.0320  0.1963
   47loPI   C6A  748  16.678   5.695   7.847  0.1569 -0.0375 -0.4789
   47loPI   C1B  749  16.701   5.830   9.912 -0.0362 -0.3161 -0.1351
   47loPI   C2B  750  16.719   5.816   9.451 -0.1681  0.1289 -0.2827
   47loPI   C3B  751  16.904   5.767   9.061 -0.0383  0.0520 -0.0710
   47loPI   C4B  752  16.832   5.671   8.706 -0.1345 -0.2093  0.2390
   48loPI    C1  753  11.641   0.156  11.099 -0.0460  0.1712  0.1524
   48loPI    C2  754  11.337   0.273  11.331 -0.0568  0.0198  0.2158
   48loPI    C3  755  11.673   0.132  11.497 -0.0079  0.0496  0.1427
   48loPI   PO4  756  11.551   0.186  10.850 -0.0702 -0.0006  0.0841
   48loPI   GL1  757  11.696  -0.063  10.535 -0.2614  0.0083  0.2375
   48loPI   GL2  758  11.939   0.109  10.478  0.2066 -0.3256  0.0819
   48loPI   C1A  759  11.523  -0.107  10.088 -0.1765 -0.1316 -0.3930
   48loPI   C2A  760  11.412  -0.000   9.625  0.1361  0.0723  0.2589
   48loPI   C3A  761  11.491  -0.017   9.184 -0.1752 -0.1126  0.0235
   48loPI   C4A  762  11.611  -0.012   8.761 -0.0568 -0.1866 -0.0481
   48loPI   C5A  763  11.699   0.191   8.412  0.0353  0.2096 -0.0825
   48loPI   C6A  764  11.442   0.377   8.110  0.0000  0.0638  0.1245
   48loPI   C1B  765  12.030   0.073  10.002  0.0800 -0.1924  0.3098
   48loPI   C2B  766  12.016   0.075   9.545 -0.0462  0.0924  0.1541
   48loPI   C3B  767  12.032   0.118   9.136  0.1380  0.0257  0.1946
   48loPI   C4B  768  12.113   0.011   8.662  0.0320  0.1128  0.0794
   49loPI    C1  769   6.445   2.590  11.253 -0.1806 -0.0101 -0.1177
   49loPI    C2  770   6.063   2.492  11.323 -0.0792 -0.1730  0.2267
   49loPI    C3  771   6.355   2.230  11.402  0.0914 -0.1415 -0.2642
   49loPI   PO4  772   6.405   2.641  10.991  0.0591  0.0690 -0.0402
   49loPI   GL1  773   6.376   2.885  10.695  0.1712 -0.1885  0.1141
   49loPI   GL2  774   6.745   2.750  10.657 -0.2941  0.2172  0.0071
   49loPI   C1A  775   6.376   2.989  10.366  0.0173  0.2196  0.0214
   49loPI   C2A  776   6.474   2.945   9.961  0.2259  0.0059  0.3379
   49loPI   C3A  777   6.526   3.004   9.575 -0.1266 -0.0743 -0.0867
   49loPI   C4A  778   6.504   3.064   9.175  0.1086  0.0738  0.2733
   49loPI   C5A  779   6.506   3.116   8.753  0.1084 -0.0991  0.1950
   49loPI   C6A  780   6.321   3.160   8.326 -0.2051 -0.1323  0.0982
   49loPI   C1B  781   6.957   2.932  10.245  0.1612 -0.1824 -0.0566
   49loPI   C2B  782   7.024   3.028   9.778 -0.0530  0.1506 -0.0997
   49loPI   C3B  783   6.991   3.123   9.367  0.1879  0.0405 -0.1150
   49loPI   C4B  784   6.999   3.055   9.044  0.0511 -0.2174 -0.0592
   50loPI    C1  785  16.709  15.876  10.754  0.0475  0.0617 -0.1434
   50loPI    C2  786  16.552  15.654  11.048  0.3032 -0.0790 -0.1107
   50loPI    C3  787  16.692  16.020  11.127 -0.0459  0.0659 -0.1491
   50loPI   PO4  788  16.609  15.868  10.554 -0.0556  0.5793 -0.2058
   50loPI   GL1  789  16.267  15.702  10.235 -0.0515  0.1595 -0.0766
   50loPI   GL2  790  15.864  15.689  10.246  0.0568  0.1378 -0.0701
   50loPI   C1A  791  16.311  15.712   9.836 -0.1108 -0.1771  0.2061
   50loPI   C2A  792  16.365  15.610   9.420  0.2427  0.3030 -0.2683
   50loPI   C3A  793  16.366  15.540   9.032 -0.0693  0.0500 -0.3360
   50loPI   C4A  794  16.343  15.581   8.694 -0.2429 -0.0994  0.1328
   50loPI   C5A  795  16.329  15.591   8.298 -0.1257 -0.1430 -0.4692
   50loPI   C6A  796  16.179  15.745   7.895 -0.1560  0.1029  0.1390
   50loPI   C1B  797  15.814  15.580   9.802  0.0783 -0.0787 -0.1321
   50loPI   C2B  798  15.890  15.516   9.327 -0.0639  0.0221 -0.1588
   50loPI   C3B  799  15.767  15.570   8.884 -0.0042  0.3182  0.0689
   50loPI   C4B  800  15.822  15.512   8.505 -0.1135 -0.0080  0.1294
   51loPI    C1  801   6.813   8.400  11.444  0.3545  0.0483 -0.0219
   51loPI    C2  802   7.062   8.640  11.645  0.1640  0.1382  0.1103
   51loPI    C3  803   6.711   8.536  11.806  0.2444 -0.2311  0.0546
   51loPI   PO4  804   6.795   8.455  11.207  0.1293  0.0243 -0.0557
   51loPI   GL1  805   6.884   8.469  10.732 -0.1047 -0.3501  0.2091
   51loPI   GL2  806   6.477   8.439  10.797  0.1741  0.0269  0.2366
   51loPI   C1A  807   6.873   8.489  10.255 -0.0951 -0.2909  0.0125
   51loPI   C2A  808   6.952   8.555   9.827  0.2129  0.3548  0.0621
   51loPI   C3A  809   6.987   8.472   9.392  0.1476  0.0994 -0.0682
   51loPI   C4A  810   6.919   8.439   8.915  0.0744 -0.0447 -0.0833
   51loPI   C5A  811   7.221   8.412   8.560  0.1334  0.1546 -0.1404
   51loPI   C6A  812   7.652   8.590   8.587 -0.1216 -0.0805  0.0505
   51loPI   C1B  813   6.393   8.453  10.452 -0.0386 -0.1190 -0.0260
   51loPI   C2B  814   6.369   8.486   9.998 -0.0003  0.0660 -0.0199
   51loPI   C3B  815   6.464   8.449   9.577 -0.2012  0.4065 -0.1094
   51loPI   C4B  816   6.478   8.380   9.160  0.1434 -0.0218 -0.1767
   52loPI    C1  817  12.602   8.407  11.079  0.2539 -0.0015 -0.0941
   52loPI    C2  818  12.441   8.502  11.433 -0.2196  0.0455 -0.3148
   52loPI    C3  819  12.605   8.141  11.379  0.0146  0.1000  0.0006
   52loPI   PO4  820  12.468   8.524  10.874  0.1232 -0.0526 -0.3296
   52loPI   GL1  821  12.207   8.780  10.492  0.0080 -0.3058 -0.0201
   52loPI   GL2  822  12.314   9.062  10.426 -0.1524 -0.3697 -0.1271
   52loPI   C1A  823  12.073   8.602  10.171 -0.0464 -0.3633 -0.1263
   52loPI   C2A  824  12.009   8.548   9.778  0.2227  0.1779  0.0611
   52loPI   C3A  825  12.010   8.443   9.378  0.1770  0.3058 -0.2706
   52loPI   C4A  826  12.047   8.566   8.985 -0.4373  0.0003  0.2990
   52loPI   C5A  827  12.100   8.518   8.567 -0.1420  0.2677 -0.1972
   52loPI   C6A  828  12.120   8.866   8.184 -0.0966  0.5042 -0.0632
   52loPI   C1B  829  12.299   9.028   9.952 -0.0494  0.0098  0.0872
   52loPI   C2B  830  12.219   9.003   9.448  0.2565 -0.0130  0.4663
   52loPI   C3B  831  12.170   9.092   9.099  0.1386  0.0442 -0.0881
   52loPI   C4B  832  12.213   9.063   8.629 -0.0520  0.2890 -0.0847
   53loPI    C1  833   8.482  15.190  10.399 -0.3318  0.1598 -0.0539
   53loPI    C2  834   8.442  15.221  10.795 -0.0695 -0.0657 -0.0064
   53loPI    C3  835   8.345  15.529  10.559 -0.2742  0.0526  0.2279
   53loPI   PO4  836   8.366  15.042  10.311 -0.2359  0.3042  0.0579
   53loPI   GL1  837   8.332  14.874   9.940 -0.4380 -0.3153 -0.3579
   53loPI   GL2  838   8.045  15.019   9.932  0.0594 -0.0594  0.3586
   53loPI   C1A  839   8.325  14.849   9.510  0.2043  0.1028 -0.1425
   53loPI   C2A  840   8.261  14.961   9.127  0.1669 -0.1150 -0.1020
   53loPI   C3A  841   8.421  14.976   8.715 -0.0174 -0.0434 -0.4161
   53loPI   C4A  842   8.429  14.970   8.276 -0.2112  0.1395 -0.1910
   53loPI   C5A  843   8.564  14.867   7.851 -0.0452 -0.2518 -0.2120
   53loPI   C6A  844   8.642  14.458   7.710  0.2319 -0.2457 -0.3762
   53loPI   C1B  845   8.063  15.250   9.475 -0.1320  0.1245 -0.1521
   53loPI   C2B  846   8.122  15.447   9.098 -0.1407 -0.0359 -0.1092
   53loPI   C3B  847   8.172  15.552   8.676 -0.0003 -0.0107 -0.1010
   53loPI   C4B  848   8.275  15.655   8.352 -0.1436  0.0111  0.0602
   54loPI    C1  849   0.989   4.018  11.503  0.3302 -0.1302  0.0611
   54loPI    C2  850   1.314   3.861  11.674  0.1898 -0.1626  0.3023
   54loPI    C3  851   0.958   3.688  11.726  0.1507 -0.1986 -0.0629
   54loPI   PO4  852   1.112   4.139  11.227  0.0503 -0.2034  0.1045
   54loPI   GL1  853   1.085   4.091  10.898 -0.1490  0.1154 -0.1039
   54loPI   GL2  854   1.252   3.746  10.832 -0.1507 -0.1512 -0.1220
   54loPI   C1A  855   1.116   4.218  10.535  0.1908 -0.1591  0.1757
   54loPI   C2A  856   1.152   4.270  10.082  0.0297  0.1187 -0.1475
   54loPI   C3A  857   1.194   4.254   9.668  0.2665  0.0243  0.3279
   54loPI   C4A  858   1.162   4.249   9.235  0.1208  0.2591 -0.0355
   54loPI   C5A  859   1.051   4.290   8.783  0.0137  0.1340 -0.1126
   54loPI   C6A  860   0.948   4.669   8.622  0.3029 -0.3294 -0.0501
   54loPI   C1B  861   1.323   3.817  10.366  0.0228  0.0141 -0.0716
   54loPI   C2B  862   1.445   3.827   9.911 -0.0093 -0.1819 -0.3881
   54loPI   C3B  863   1.404   3.859   9.534  0.1458  0.0789  0.2665
   54loPI   C4B  864   1.498   3.860   9.182 -0.0443  0.0540  0.0590
   55loPI    C1  865   0.553   1.872  11.176  0.0235  0.0061  0.0285
   55loPI    C2  866   0.386   2.126  11.437 -0.0999 -0.1844  0.1378
   55loPI    C3  867   0.660   1.862  11.561 -0.0892 -0.2123  0.0559
   55loPI   PO4  868   0.537   2.077  10.943 -0.3612  0.0798  0.0561
   55loPI   GL1  869   0.418   1.902  10.535  0.1227 -0.2153  0.2189
   55loPI   GL2  870   0.213   2.183  10.561  0.0748  0.1306 -0.2418
   55loPI   C1A  871   0.460   1.962  10.089 -0.1579  0.1118  0.0150
   55loPI   C2A  872   0.491   1.938   9.705 -0.0980 -0.0143  0.0261
   55loPI   C3A  873   0.461   1.945   9.265  0.2411  0.0794  0.1131
   55loPI   C4A  874   0.625   1.947   8.795  0.3805  0.0267  0.2461
   55loPI   C5A  875   0.756   2.074   8.340 -0.0572 -0.0347 -0.0027
   55loPI   C6A  876   0.907   2.213   8.014 -0.1540  0.0478  0.0768
   55loPI   C1B  877   0.176   2.327  10.185  0.2332  0.4753  0.0785
   55loPI   C2B  878   0.227   2.365   9.767  0.2798  0.1283  0.0221
   55loPI   C3B  879   0.155   2.359   9.388  0.1787 -0.1579  0.0489
   55loPI   C4B  880   0.151   2.277   8.979  0.0012  0.2219  0.2102
   56loPI    C1  881  12.179   2.483  11.111  0.0726 -0.0714  0.1006
   56loPI    C2  882  11.935   2.379  11.411  0.1208 -0.2506  0.0788
   56loPI    C3  883  12.222   2.651  11.472  0.0070 -0.1436  0.1423
   56loPI   PO4  884  12.091   2.245  10.918  0.1064 -0.0886 -0.2843
   56loPI   GL1  885  11.839   1.924  10.701  0.3268 -0.1785 -0.0757
   56loPI   GL2  886  11.740   2.169  10.602  0.1228 -0.0584  0.2011
   56loPI   C1A  887  11.766   1.828  10.200 -0.1437  0.1009  0.2746
   56loPI   C2A  888  11.858   1.720   9.797 -0.1836 -0.2058 -0.1570
   56loPI   C3A  889  11.834   1.874   9.341 -0.2696  0.0079 -0.0535
   56loPI   C4A  890  11.868   1.840   8.960 -0.2842 -0.3232  0.0127
   56loPI   C5A  891  11.789   1.838   8.616 -0.2042  0.0677 -0.0265
   56loPI   C6A  892  11.449   1.727   8.365 -0.2447  0.0787  0.1422
   56loPI   C1B  893  11.975   2.309  10.270  0.2750 -0.1858 -0.0271
   56loPI   C2B  894  11.959   2.259   9.839 -0.0534  0.0820  0.2049
   56loPI   C3B  895  11.982   2.327   9.353  0.1119 -0.0231 -0.2529
   56loPI   C4B  896  12.151   2.213   9.009  0.1099  0.0113  0.2224
   57loPI    C1  897   8.752  17.816  11.221 -0.1018 -0.2206  0.0854
   57loPI    C2  898   8.477  17.878  11.505 -0.1320  0.1658 -0.0225
   57loPI    C3  899   8.865  17.924  11.590 -0.1287  0.0865  0.0063
   57loPI   PO4  900   8.613  17.989  10.951 -0.1138 -0.0984 -0.0332
   57loPI   GL1  901   8.626  18.094  10.531 -0.2464 -0.1132 -0.2350
   57loPI   GL2  902   8.371  18.308  10.562 -0.0123  0.0962  0.2584
   57loPI   C1A  903   8.735  18.350  10.104  0.0273 -0.0121  0.2952
   57loPI   C2A  904   8.802  18.320   9.686  0.2413 -0.0729  0.2154
   57loPI   C3A  905   8.803  18.448   9.341  0.1347  0.1024 -0.3400
   57loPI   C4A  906   8.800  18.376   8.872  0.1879 -0.1525  0.0580
   57loPI   C5A  907   8.892  18.442   8.458  0.0625 -0.2065  0.1967
   57loPI   C6A  908   9.050  18.322   8.072 -0.3086 -0.0414 -0.1200
   57loPI   C1B  909   8.271  18.217  10.164 -0.0105  0.1783 -0.0349
   57loPI   C2B  910   8.322  18.354   9.695  0.0363  0.1526 -0.2380
   57loPI   C3B  911   8.303  18.370   9.211 -0.2840  0.2176 -0.5406
   57loPI   C4B  912   8.311  18.385   8.747  0.4473 -0.1708  0.3627
   58loPI    C1  913   8.875   9.729  11.103  0.1161 -0.0238  0.0453
   58loPI    C2  914   8.536   9.702  11.315 -0.0019  0.0083 -0.1374
   58loPI    C3  915   8.880   9.792  11.498 -0.0983  0.0123  0.0434
   58loPI   PO4  916   8.902   9.867  10.901 -0.1805 -0.4000  0.1258
   58loPI   GL1  917   8.922  10.011  10.542  0.1189  0.0298 -0.0953
   58loPI   GL2  918   9.094  10.178  10.410  0.1823  0.3123  0.0110
   58loPI   C1A  919   8.653  10.176  10.146 -0.4178  0.0461 -0.1054
   58loPI   C2A  920   8.661  10.156   9.693 -0.1101  0.1204 -0.0300
   58loPI   C3A  921   8.732  10.073   9.276 -0.0115 -0.1764 -0.2297
   58loPI   C4A  922   8.671  10.046   8.893 -0.1672 -0.1640  0.0427
   58loPI   C5A  923   8.671  10.097   8.491 -0.1461 -0.1094 -0.3113
   58loPI   C6A  924   8.501   9.915   8.057 -0.0113 -0.1929 -0.2543
   58loPI   C1B  925   9.236  10.127   9.973  0.1349 -0.0377 -0.1769
   58loPI   C2B  926   9.338  10.021   9.538  0.0871 -0.0073 -0.3254
   58loPI   C3B  927   9.245  10.050   9.120 -0.0636 -0.0174 -0.3292
   58loPI   C4B  928   9.230   9.902   8.683 -0.1574 -0.2261 -0.0582
   59loPI    C1  929   2.485   6.529  11.386  0.1383 -0.2245 -0.1842
   59loPI    C2  930   2.768   6.293  11.544  0.0377 -0.2248 -0.0018
   59loPI    C3  931   2.564   6.545  11.778 -0.1226 -0.2337 -0.1296
   59loPI   PO4  932   2.546   6.614  11.193 -0.1851 -0.0814  0.0430
   59loPI   GL1  933   2.671   6.573  10.733  0.0977 -0.0874 -0.0268
   59loPI   GL2  934   2.844   6.764  10.685 -0.0799  0.3612 -0.0914
   59loPI   C1A  935   2.518   6.156  10.437 -0.0141 -0.3660 -0.1347
   59loPI   C2A  936   2.463   6.100   9.947  0.0912  0.1100  0.0060
   59loPI   C3A  937   2.508   6.169   9.484  0.3540 -0.1021  0.4234
   59loPI   C4A  938   2.614   6.178   9.003 -0.0163 -0.0125  0.0940
   59loPI   C5A  939   2.586   6.451   8.620  0.2535  0.3594  0.2390
   59loPI   C6A  940   2.405   6.469   8.264  0.2237 -0.0257  0.2125
   59loPI   C1B  941   2.688   6.627  10.266  0.1693 -0.0615  0.0315
   59loPI   C2B  942   2.694   6.582   9.849  0.0170  0.1143  0.1526
   59loPI   C3B  943   2.648   6.682   9.387  0.1460  0.2932 -0.1255
   59loPI   C4B  944   2.822   6.728   8.955  0.4535  0.0118  0.0743
   60loPI    C1  945  10.087   7.857  11.110 -0.0328  0.0163 -0.0986
   60loPI    C2  946   9.977   7.764  11.483  0.0702  0.0269 -0.0650
   60loPI    C3  947  10.214   8.079  11.417 -0.0877  0.1282 -0.1564
   60loPI   PO4  948   9.852   7.770  10.914  0.1260 -0.0514  0.1604
   60loPI   GL1  949   9.820   7.866  10.576  0.1464 -0.3134 -0.1062
   60loPI   GL2  950  10.168   7.830  10.409  0.0496  0.1673  0.2829
   60loPI   C1A  951   9.761   7.844  10.144  0.0537 -0.0293  0.1617
   60loPI   C2A  952   9.688   7.856   9.663  0.1218  0.1278  0.0177
   60loPI   C3A  953   9.706   7.829   9.201  0.0329  0.1465 -0.0988
   60loPI   C4A  954   9.650   7.792   8.799 -0.0186 -0.1858  0.1986
   60loPI   C5A  955   9.720   7.903   8.415 -0.1569 -0.1754  0.2234
   60loPI   C6A  956   9.924   8.268   8.167  0.1530  0.1467 -0.0099
   60loPI   C1B  957  10.228   7.974  10.034 -0.0593 -0.1102 -0.1523
   60loPI   C2B  958  10.210   7.901   9.716  0.0628  0.1122  0.2095
   60loPI   C3B  959  10.317   7.915   9.192  0.2505  0.1338 -0.0549
   60loPI   C4B  960  10.153   7.848   8.841 -0.1118 -0.1787 -0.2576
   61loPI    C1  961   2.628   8.306  11.514 -0.1829  0.0086  0.1297
   61loPI    C2  962   2.920   8.200  11.766 -0.0614  0.0542  0.0095
   61loPI    C3  963   2.543   8.229  11.896  0.0166  0.1818  0.2112
   61loPI   PO4  964   2.898   8.384  11.286  0.3403 -0.1882  0.2705
   61loPI   GL1  965   2.945   8.477  10.836  0.1668  0.0323 -0.1517
   61loPI   GL2  966   3.153   8.673  10.694  0.4032 -0.1927 -0.1335
   61loPI   C1A  967   2.901   8.174  10.512  0.0765 -0.0311  0.0295
   61loPI   C2A  968   2.822   8.111  10.040 -0.1145 -0.2504  0.3002
   61loPI   C3A  969   2.865   8.122   9.587  0.1450  0.0706  0.0543
   61loPI   C4A  970   2.917   8.142   9.142 -0.1244  0.1866  0.0131
   61loPI   C5A  971   2.934   7.949   8.753 -0.0260 -0.2902 -0.2489
   61loPI   C6A  972   2.673   7.783   8.486  0.0799  0.1726  0.0191
   61loPI   C1B  973   3.191   8.580  10.294  0.1775 -0.0377 -0.1232
   61loPI   C2B  974   3.063   8.546   9.927 -0.0313  0.3102  0.0097
   61loPI   C3B  975   3.105   8.514   9.471 -0.0268 -0.2741 -0.2573
   61loPI   C4B  976   3.286   8.441   9.016  0.1114  0.2898  0.1763
   62loPI    C1  977   9.836  15.619  10.429  0.1380 -0.0477 -0.1775
   62loPI    C2  978  10.046  15.317  10.584  0.3052  0.0406 -0.2296
   62loPI    C3  979  10.112  15.691  10.709 -0.0032  0.0417 -0.0593
   62loPI   PO4  980   9.870  15.672  10.184 -0.1293 -0.1624 -0.0347
   62loPI   GL1  981   9.961  15.986   9.893 -0.1628  0.1848  0.0827
   62loPI   GL2  982   9.702  16.160   9.839  0.0379  0.2944  0.0755
   62loPI   C1A  983  10.103  15.804   9.559  0.1727 -0.3257 -0.1553
   62loPI   C2A  984  10.094  15.901   9.151  0.0185  0.3272 -0.0014
   62loPI   C3A  985  10.193  15.881   8.862  0.1303  0.2225  0.3347
   62loPI   C4A  986  10.338  15.836   8.550  0.1341  0.0490  0.2932
   62loPI   C5A  987  10.401  15.806   8.152  0.2087  0.1467 -0.0603
   62loPI   C6A  988  10.743  15.664   7.754  0.1272 -0.0033 -0.0341
   62loPI   C1B  989   9.836  16.297   9.386  0.0265  0.5780 -0.4149
   62loPI   C2B  990   9.915  16.395   8.953  0.1655 -0.0145  0.1230
   62loPI   C3B  991  10.007  16.236   8.585 -0.0876  0.2541 -0.0957
   62loPI   C4B  992   9.929  16.146   8.204 -0.1042 -0.2489  0.0889
   63loPI    C1  993  17.011  11.766  11.417  0.1523 -0.0456 -0.0520
   63loPI    C2  994  17.003  11.950  11.772 -0.0304 -0.0688 -0.0430
   63loPI    C3  995  17.157  11.582  11.741  0.1590  0.0076 -0.0246
   63loPI   PO4  996  17.061  11.933  11.229  0.1427 -0.3823 -0.3133
   63loPI   GL1  997  16.967  12.086  10.747  0.1005 -0.1530  0.2061
   63loPI   GL2  998  16.765  12.256  10.664  0.0944  0.2040 -0.1435
   63loPI   C1A  999  17.176  12.113  10.321  0.2230  0.3736 -0.2237
   63loPI   C2A 1000  17.261  12.099   9.864 -0.0725  0.0253 -0.1395
   63loPI   C3A 1001  17.301  12.101   9.429 -0.1849  0.1213  0.1116
   63loPI   C4A 1002  17.311  12.100   9.014 -0.0306 -0.1516  0.0315
   63loPI   C5A 1003  17.017  12.272   8.734 -0.0276 -0.1549  0.1881
   63loPI   C6A 1004  16.722  11.944   8.659 -0.1186  0.1966 -0.1180
   63loPI   C1B 1005  16.693  11.989  10.283 -0.1181 -0.1124 -0.1387
   63loPI   C2B 1006  16.640  12.008   9.940 -0.4246 -0.0171  0.1855
   63loPI   C3B 1007  16.680  12.043   9.515 -0.0903 -0.0381  0.1006
   63loPI   C4B 1008  16.719  12.019   9.135  0.0977  0.0158 -0.0320
   64loPI    C1 1009  10.661   8.030  11.182  0.1157 -0.2768 -0.1707
   64loPI    C2 1010  10.697   7.719  11.431 -0.2744 -0.0810  0.1420
   64loPI    C3 1011  10.991   7.989  11.405 -0.0528 -0.3235  0.0732
   64loPI   PO4 1012  10.560   7.869  10.858  0.2915 -0.0367  0.1450
   64loPI   GL1 1013  10.706   7.741  10.475  0.3779  0.3611  0.4803
   64loPI   GL2 1014  10.611   7.439  10.441 -0.1071  0.0025 -0.0648
   64loPI   C1A 1015  10.710   7.958  10.139 -0.1879 -0.1676  0.2496
   64loPI   C2A 1016  10.675   7.963   9.741  0.0743  0.2009  0.0118
   64loPI   C3A 1017  10.819   7.969   9.345  0.0799 -0.2687 -0.2553
   64loPI   C4A 1018  10.818   7.937   8.896  0.2718  0.0155 -0.1413
   64loPI   C5A 1019  10.756   7.920   8.468 -0.0232 -0.0433  0.2814
   64loPI   C6A 1020  10.679   7.665   8.064 -0.0850 -0.2002 -0.1877
   64loPI   C1B 1021  10.506   7.527  10.020 -0.2736  0.1018  0.1685
   64loPI   C2B 1022  10.543   7.490   9.579  0.0296 -0.0209  0.0781
   64loPI   C3B 1023  10.634   7.496   9.142 -0.2280  0.1963  0.1204
   64loPI   C4B 1024  10.604   7.529   8.772  0.3073 -0.0363 -0.0940
   65loPI    C1 1025   0.117   0.796  10.741 -0.1248 -0.0800  0.1092
   65loPI    C2 1026   0.068   1.070  11.028  0.0580 -0.0545  0.1172
   65loPI    C3 1027   0.300   0.750  11.094 -0.0538 -0.1473  0.0641
   65loPI   PO4 1028  -0.030   0.870  10.447  0.1382  0.2426 -0.0931
   65loPI   GL1 1029   0.109   1.019  10.143 -0.1533  0.4370  0.0125
   65loPI   GL2 1030  -0.139   1.269  10.072 -0.1579  0.2114  0.1181
   65loPI   C1A 1031   0.049   0.990   9.736  0.5125 -0.1894 -0.1138
   65loPI   C2A 1032   0.031   0.900   9.326 -0.1289 -0.1297 -0.1724
   65loPI   C3A 1033   0.118   1.043   8.933  0.2521 -0.1424  0.3200
   65loPI   C4A 1034   0.227   1.046   8.434 -0.1792  0.0628  0.0239
   65loPI   C5A 1035  -0.116   0.889   8.176  0.0183 -0.0757 -0.0162
   65loPI   C6A 1036  -0.570   0.970   8.294 -0.0115 -0.1110 -0.1339
   65loPI   C1B 1037  -0.263   1.412   9.665 -0.3269 -0.3143 -0.1506
   65loPI   C2B 1038  -0.219   1.338   9.210 -0.3509  0.1728  0.0836
   65loPI   C3B 1039  -0.233   1.397   8.774 -0.1060  0.0807 -0.3559
   65loPI   C4B 1040  -0.148   1.365   8.371  0.2095 -0.1605  0.1570
   66loPI    C1 1041  14.329  13.707  11.385 -0.2462  0.2649 -0.0895
   66loPI    C2 1042  13.958  13.795  11.506 -0.2356  0.1633  0.0179
   66loPI    C3 1043  14.178  13.531  11.711 -0.1635  0.1005 -0.1388
   66loPI   PO4 1044  14.338  13.633  11.101  0.0757  0.1599 -0.1359
   66loPI   GL1 1045  14.650  13.825  10.769 -0.0358 -0.0236  0.0694
   66loPI   GL2 1046  14.300  13.836  10.680 -0.1404 -0.0386 -0.1340
   66loPI   C1A 1047  14.637  14.072  10.380 -0.1118 -0.4223  0.1097
   66loPI   C2A 1048  14.637  14.145   9.971 -0.2272  0.4401 -0.1775
   66loPI   C3A 1049  14.613  14.152   9.617  0.0371  0.0265  0.1267
   66loPI   C4A 1050  14.595  14.173   9.125  0.4674  0.1913  0.0067
   66loPI   C5A 1051  14.710  14.113   8.695 -0.2584  0.2034  0.0627
   66loPI   C6A 1052  14.943  14.202   8.286 -0.0999 -0.0733 -0.3165
   66loPI   C1B 1053  14.167  13.957  10.356 -0.0605 -0.1062 -0.1763
   66loPI   C2B 1054  14.168  14.063   9.967  0.0261  0.1595 -0.2927
   66loPI   C3B 1055  14.115  14.117   9.564  0.0146  0.0659  0.2662
   66loPI   C4B 1056  14.079  14.074   9.173  0.0013 -0.1063  0.1836
   67loPI    C1 1057   0.066   2.759  11.408 -0.1924  0.2687  0.1754
   67loPI    C2 1058  -0.166   2.758  11.734 -0.1902  0.0268  0.1777
   67loPI    C3 1059   0.190   2.576  11.741 -0.0969  0.2044  0.1049
   67loPI   PO4 1060  -0.091   2.823  11.241 -0.1763 -0.2279  0.0966
   67loPI   GL1 1061  -0.072   2.891  10.779  0.0315 -0.0056 -0.0734
   67loPI   GL2 1062   0.159   2.692  10.734 -0.2661 -0.1952  0.2474
   67loPI   C1A 1063  -0.001   3.088  10.315 -0.1279  0.0378  0.0216
   67loPI   C2A 1064   0.137   3.146   9.817 -0.0075  0.1851  0.2334
   67loPI   C3A 1065   0.250   3.244   9.363  0.1661 -0.0719 -0.2250
   67loPI   C4A 1066   0.173   3.324   8.908  0.2039 -0.2723  0.1198
   67loPI   C5A 1067   0.073   3.568   8.671 -0.0603  0.0914 -0.0915
   67loPI   C6A 1068  -0.134   3.899   8.561  0.2991  0.0048 -0.0808
   67loPI   C1B 1069   0.358   2.788  10.370  0.0201  0.0723  0.1930
   67loPI   C2B 1070   0.489   2.745   9.962  0.2576 -0.1631 -0.2681
   67loPI   C3B 1071   0.423   2.826   9.530 -0.1227 -0.2204  0.0963
   67loPI   C4B 1072   0.524   2.903   9.124  0.0858  0.0338  0.0934
   68loPI    C1 1073   7.280   5.855  11.457 -0.0010 -0.0298 -0.1589
   68loPI    C2 1074   7.652   5.754  11.565 -0.0471  0.0803  0.1094
   68loPI    C3 1075   7.350   5.496  11.620  0.0061 -0.0587 -0.2246
   68loPI   PO4 1076   7.278   5.977  11.159  0.0476 -0.2739 -0.2137
   68loPI   GL1 1077   7.083   5.982  10.809  0.0752 -0.2838 -0.1248
   68loPI   GL2 1078   7.005   6.307  10.627  0.0422 -0.2078  0.0987
   68loPI   C1A 1079   7.274   5.786  10.515 -0.1894 -0.2974 -0.1166
   68loPI   C2A 1080   7.334   5.723  10.174  0.0225  0.1368  0.1907
   68loPI   C3A 1081   7.300   5.876   9.778  0.2208 -0.0766 -0.0476
   68loPI   C4A 1082   7.346   5.859   9.305  0.0219  0.0739  0.1366
   68loPI   C5A 1083   7.217   5.913   8.898 -0.1298 -0.0576 -0.1068
   68loPI   C6A 1084   6.803   5.897   8.708  0.0034 -0.2858  0.2426
   68loPI   C1B 1085   6.981   6.346  10.196  0.2281 -0.1908 -0.1536
   68loPI   C2B 1086   7.079   6.336   9.897 -0.1541  0.1267 -0.0111
   68loPI   C3B 1087   6.969   6.150   9.522  0.0096 -0.1283  0.2435
   68loPI   C4B 1088   6.936   6.228   9.079 -0.1061 -0.0339  0.4021
   69loPI    C1 1089  16.550   5.704  11.319  0.0945 -0.0356  0.2055
   69loPI    C2 1090  16.176   5.591  11.234  0.0400  0.2378  0.0692
   69loPI    C3 1091  16.297   5.611  11.615  0.0853 -0.3687  0.0963
   69loPI   PO4 1092  16.683   5.567  11.069  0.0802 -0.1257 -0.3102
   69loPI   GL1 1093  16.704   5.364  10.665 -0.2592 -0.1248 -0.0616
   69loPI   GL2 1094  17.091   5.202  10.553  0.1657 -0.1358 -0.0313
   69loPI   C1A 1095  16.558   5.283  10.174  0.1780 -0.0878  0.3274
   69loPI   C2A 1096  16.578   5.367   9.768 -0.1935  0.1442  0.1695
   69loPI   C3A 1097  16.479   5.387   9.346 -0.3826  0.3950 -0.1419
   69loPI   C4A 1098  16.588   5.242   8.952  0.0062  0.0335 -0.0461
   69loPI   C5A 1099  16.714   5.132   8.511  0.2935 -0.1584  0.0564
   69loPI   C6A 1100  16.909   5.358   8.134 -0.0375 -0.1409 -0.1736
   69loPI   C1B 1101  17.074   5.335  10.018  0.1140  0.0228 -0.0303
   69loPI   C2B 1102  17.163   5.277   9.575 -0.0145 -0.0061  0.1604
   69loPI   C3B 1103  17.176   5.341   9.141 -0.3382 -0.0440 -0.1759
   69loPI   C4B 1104  17.174   5.336   8.654  0.0596 -0.2887 -0.1202
   70loPI    C1 1105  14.455   9.831  11.034 -0.0689  0.0681 -0.0942
   70loPI    C2 1106  14.169   9.610  11.205 -0.0295 -0.0727 -0.2085
   70loPI    C3 1107  14.546   9.477  11.196  0.0025  0.0195 -0.2383
   70loPI   PO4 1108  14.298   9.977  10.865 -0.0521 -0.0309 -0.0257
   70loPI   GL1 1109  14.361  10.197  10.492 -0.1257 -0.2272  0.0558
   70loPI   GL2 1110  14.580  10.322  10.326  0.1699 -0.0567  0.0921
   70loPI   C1A 1111  14.116  10.131  10.217 -0.0586 -0.2156 -0.2569
   70loPI   C2A 1112  14.145  10.110   9.841  0.0648  0.2548  0.0919
   70loPI   C3A 1113  14.230  10.165   9.404  0.0237  0.0629  0.2031
   70loPI   C4A 1114  14.234  10.015   9.002 -0.5079 -0.0455  0.0528
   70loPI   C5A 1115  14.152  10.084   8.535 -0.3202  0.0817 -0.2187
   70loPI   C6A 1116  13.912  10.249   8.195 -0.2114 -0.0047 -0.0250
   70loPI   C1B 1117  14.613  10.174   9.925 -0.0349 -0.1147 -0.0607
   70loPI   C2B 1118  14.721  10.132   9.484 -0.3231 -0.0394  0.2252
   70loPI   C3B 1119  14.753  10.113   9.023  0.0045 -0.1375 -0.1700
   70loPI   C4B 1120  14.666  10.173   8.529  0.0032  0.0176 -0.4782
   71loPI    C1 1121   9.520   2.274  11.163 -0.1715 -0.1247  0.0714
   71loPI    C2 1122   9.794   2.357  11.442  0.2019  0.0061 -0.3222
   71loPI    C3 1123   9.487   2.115  11.528  0.3873 -0.0706  0.1538
   71loPI   PO4 1124   9.608   2.219  10.856  0.3442 -0.4841  0.1895
   71loPI   GL1 1125   9.930   2.447  10.642  0.0309  0.0227  0.2193
   71loPI   GL2 1126   9.977   2.755  10.553 -0.0659  0.1703  0.1272
   71loPI   C1A 1127  10.197   2.415  10.257 -0.2072 -0.1913 -0.1390
   71loPI   C2A 1128  10.076   2.449   9.752 -0.1249  0.2548  0.2260
   71loPI   C3A 1129  10.222   2.507   9.309  0.1890  0.2293 -0.1285
   71loPI   C4A 1130  10.193   2.477   8.829 -0.0863 -0.0872  0.3012
   71loPI   C5A 1131  10.370   2.407   8.443  0.0272  0.1377 -0.1142
   71loPI   C6A 1132  10.263   2.204   8.017  0.3947 -0.3633  0.0813
   71loPI   C1B 1133   9.890   2.794  10.184 -0.2869 -0.2038 -0.0454
   71loPI   C2B 1134   9.761   2.890   9.867 -0.1769 -0.0200  0.1322
   71loPI   C3B 1135   9.858   2.825   9.400 -0.1059 -0.0566 -0.0295
   71loPI   C4B 1136   9.908   2.858   8.935  0.1046 -0.1079 -0.1274
   72loPI    C1 1137   3.837   6.996  11.648 -0.0247  0.0617 -0.0316
   72loPI    C2 1138   4.223   6.920  11.720 -0.0471  0.1017  0.1323
   72loPI    C3 1139   3.951   6.872  12.010 -0.1716  0.0311  0.0049
   72loPI   PO4 1140   3.905   7.046  11.342 -0.0657  0.2129 -0.1057
   72loPI   GL1 1141   3.897   7.018  10.975  0.1763  0.3300  0.1922
   72loPI   GL2 1142   4.138   6.840  10.813  0.2201  0.1510  0.0457
   72loPI   C1A 1143   3.924   7.214  10.565  0.3784 -0.2591 -0.1998
   72loPI   C2A 1144   3.983   7.307  10.130 -0.2066  0.0399 -0.1190
   72loPI   C3A 1145   4.012   7.198   9.733  0.1433  0.2160  0.1875
   72loPI   C4A 1146   4.031   7.229   9.291  0.0288 -0.2477 -0.0026
   72loPI   C5A 1147   4.138   7.358   8.856  0.1773 -0.2589  0.0923
   72loPI   C6A 1148   4.458   7.622   8.728 -0.0938 -0.1613 -0.0564
   72loPI   C1B 1149   4.349   6.797  10.488  0.0849 -0.0753 -0.1878
   72loPI   C2B 1150   4.375   6.795  10.080 -0.0092  0.2144  0.2093
   72loPI   C3B 1151   4.243   6.810   9.658 -0.0341 -0.0329  0.1668
   72loPI   C4B 1152   4.345   6.790   9.282  0.0374 -0.0282 -0.1956
   73loPI    C1 1153  10.986  12.376  11.146 -0.0021  0.1214 -0.0876
   73loPI    C2 1154  11.280  12.405  11.416  0.0061  0.2145 -0.1062
   73loPI    C3 1155  10.953  12.191  11.499  0.0775  0.1135 -0.0840
   73loPI   PO4 1156  10.991  12.662  11.027  0.0690  0.1946  0.1266
   73loPI   GL1 1157  11.181  12.779  10.633 -0.1750 -0.0072 -0.1383
   73loPI   GL2 1158  11.322  12.536  10.519 -0.1191 -0.2591  0.0659
   73loPI   C1A 1159  11.064  12.934  10.169 -0.1542  0.4927  0.1910
   73loPI   C2A 1160  11.112  12.870   9.670 -0.1193 -0.0888 -0.1034
   73loPI   C3A 1161  11.176  12.884   9.235  0.1271  0.0131  0.0960
   73loPI   C4A 1162  11.123  12.991   8.784  0.1117 -0.1250  0.0610
   73loPI   C5A 1163  11.293  13.286   8.422 -0.3338 -0.0869  0.0111
   73loPI   C6A 1164  11.326  13.713   8.163  0.2197 -0.0501 -0.0509
   73loPI   C1B 1165  11.344  12.477  10.028  0.0103 -0.0211 -0.0834
   73loPI   C2B 1166  11.401  12.473   9.565 -0.1068 -0.2328  0.1811
   73loPI   C3B 1167  11.423  12.460   9.127 -0.1408 -0.0615  0.1062
   73loPI   C4B 1168  11.444  12.624   8.669 -0.0309  0.0791  0.2836
   74loPI    C1 1169   6.663  13.444  10.398 -0.0089  0.0833 -0.1776
   74loPI    C2 1170   6.534  13.700  10.677 -0.0910 -0.2174  0.0656
   74loPI    C3 1171   6.924  13.611  10.652 -0.0530 -0.0214 -0.0626
   74loPI   PO4 1172   6.363  13.486  10.261  0.0408  0.0790 -0.1902
   74loPI   GL1 1173   6.401  13.520   9.757  0.0857  0.0194  0.0398
   74loPI   GL2 1174   6.234  13.823   9.763 -0.0380 -0.0412 -0.1388
   74loPI   C1A 1175   6.454  13.485   9.233  0.0514  0.2950 -0.0598
   74loPI   C2A 1176   6.303  13.554   8.747  0.0668 -0.2428 -0.0906
   74loPI   C3A 1177   6.090  13.500   8.457 -0.2058  0.4097 -0.0306
   74loPI   C4A 1178   5.942  13.349   8.034 -0.1540  0.2613 -0.2826
   74loPI   C5A 1179   5.521  13.278   7.865  0.0434  0.1430  0.0040
   74loPI   C6A 1180   5.155  13.069   8.081  0.5533 -0.1142 -0.0990
   74loPI   C1B 1181   6.098  13.706   9.401  0.5494  0.1419  0.1006
   74loPI   C2B 1182   5.957  13.602   9.044  0.1337 -0.0472 -0.1174
   74loPI   C3B 1183   5.637  13.551   8.832 -0.0408 -0.0332  0.0889
   74loPI   C4B 1184   5.608  13.485   8.366  0.3440 -0.2176 -0.0909
   75loPI    C1 1185  15.062   0.742  11.183 -0.0280 -0.0681  0.0169
   75loPI    C2 1186  15.451   0.661  11.230 -0.0264  0.0092  0.1427
   75loPI    C3 1187  15.237   0.800  11.538 -0.1465 -0.0019  0.0651
   75loPI   PO4 1188  15.019   0.861  10.989 -0.3911  0.1126 -0.2335
   75loPI   GL1 1189  15.223   1.016  10.630  0.0357  0.0273 -0.1872
   75loPI   GL2 1190  15.389   0.794  10.462  0.0020 -0.3128 -0.0891
   75loPI   C1A 1191  15.100   1.200  10.255  0.0624 -0.2896 -0.1155
   75loPI   C2A 1192  15.122   1.291   9.861  0.1137 -0.2646  0.1242
   75loPI   C3A 1193  15.128   1.159   9.395  0.1263 -0.0864  0.2828
   75loPI   C4A 1194  15.061   1.162   8.928  0.0548  0.0326  0.2733
   75loPI   C5A 1195  15.017   1.054   8.557  0.0076 -0.4155  0.3677
   75loPI   C6A 1196  14.820   0.807   8.265 -0.1083  0.3727  0.4701
   75loPI   C1B 1197  15.417   0.862  10.097 -0.0006  0.0967  0.1069
   75loPI   C2B 1198  15.386   0.896   9.666  0.1339 -0.1145 -0.0135
   75loPI   C3B 1199  15.355   0.757   9.228  0.2431  0.1226 -0.1093
   75loPI   C4B 1200  15.360   0.758   8.795  0.0553  0.0762  0.0505
   76loPI    C1 1201  17.052  14.769  10.989  0.1190  0.0353  0.0494
   76loPI    C2 1202  17.179  14.838  11.362 -0.1186  0.2839  0.0879
   76loPI    C3 1203  17.265  15.098  11.070 -0.0139  0.1379 -0.0130
   76loPI   PO4 1204  17.117  14.594  10.807 -0.0722 -0.2088  0.0554
   76loPI   GL1 1205  16.903  14.512  10.436  0.3691  0.0706 -0.0786
   76loPI   GL2 1206  16.720  14.257  10.350  0.2665 -0.0071 -0.0113
   76loPI   C1A 1207  17.121  14.439  10.077 -0.0454 -0.0706  0.2762
   76loPI   C2A 1208  17.198  14.355   9.725 -0.0503 -0.2033 -0.3599
   76loPI   C3A 1209  17.129  14.343   9.275 -0.1272  0.0204  0.0406
   76loPI   C4A 1210  17.243  14.290   8.869 -0.1054  0.0683  0.1030
   76loPI   C5A 1211  17.134  14.292   8.404  0.0140 -0.2302  0.2939
   76loPI   C6A 1212  16.969  13.927   8.222  0.0154  0.1276 -0.0718
   76loPI   C1B 1213  16.730  14.289   9.755  0.0972  0.1920 -0.0734
   76loPI   C2B 1214  16.661  14.208   9.385 -0.6065  0.0707  0.2971
   76loPI   C3B 1215  16.669  14.245   9.022  0.2253  0.2070 -0.4350
   76loPI   C4B 1216  16.644  14.293   8.623  0.2218  0.1299 -0.1233
   77loPI    C1 1217  14.897   8.292  11.004 -0.1266 -0.2062 -0.1721
   77loPI    C2 1218  14.560   8.165  11.177 -0.1145 -0.0686 -0.0458
   77loPI    C3 1219  14.777   8.454  11.349  0.1112 -0.2129 -0.0841
   77loPI   PO4 1220  14.877   8.269  10.781  0.1449 -0.0415  0.2494
   77loPI   GL1 1221  14.799   8.564  10.475  0.0301  0.1340 -0.1927
   77loPI   GL2 1222  14.626   8.406  10.301  0.1292 -0.0223 -0.3867
   77loPI   C1A 1223  14.726   8.821  10.089  0.1499  0.0672  0.3599
   77loPI   C2A 1224  14.617   8.776   9.701  0.1014  0.2006  0.0498
   77loPI   C3A 1225  14.629   8.721   9.312  0.0864  0.0758 -0.0326
   77loPI   C4A 1226  14.814   8.747   8.905  0.1722  0.0794 -0.1388
   77loPI   C5A 1227  15.016   8.505   8.508  0.1393  0.1913  0.1937
   77loPI   C6A 1228  15.152   8.107   8.420 -0.0376 -0.2859  0.1384
   77loPI   C1B 1229  14.457   8.297   9.927 -0.1155  0.0762  0.2393
   77loPI   C2B 1230  14.330   8.349   9.479  0.3796  0.0081 -0.1944
   77loPI   C3B 1231  14.458   8.299   9.102  0.1529  0.0493 -0.2998
   77loPI   C4B 1232  14.597   8.317   8.670  0.0073  0.0862 -0.1642
   78loPI    C1 1233  10.213   3.889  11.201 -0.2235 -0.0758  0.3377
   78loPI    C2 1234  10.371   3.878  11.568  0.0780  0.3304  0.2267
   78loPI    C3 1235  10.114   4.168  11.469 -0.0855  0.1603  0.1466
   78loPI   PO4 1236  10.401   3.817  11.052  0.2826 -0.4317  0.1622
   78loPI   GL1 1237  10.559   3.818  10.669  0.0447 -0.1652 -0.3266
   78loPI   GL2 1238  10.257   3.937  10.517 -0.0410  0.0546 -0.1523
   78loPI   C1A 1239  10.724   3.831  10.288  0.1024 -0.0783  0.1613
   78loPI   C2A 1240  10.777   3.870   9.877 -0.2088 -0.0928 -0.3039
   78loPI   C3A 1241  10.761   3.867   9.492  0.1911  0.0058 -0.1412
   78loPI   C4A 1242  10.830   3.936   9.072 -0.1852 -0.2286 -0.1342
   78loPI   C5A 1243  10.801   3.891   8.609 -0.0911  0.1403 -0.0954
   78loPI   C6A 1244  10.938   3.641   8.248  0.0634  0.1266 -0.0036
   78loPI   C1B 1245  10.187   3.826  10.092 -0.2059  0.1362  0.0675
   78loPI   C2B 1246  10.270   3.833   9.685 -0.1797 -0.0337  0.1437
   78loPI   C3B 1247  10.228   3.821   9.314 -0.1474  0.3571 -0.0388
   78loPI   C4B 1248  10.357   3.804   8.897 -0.2296  0.0024 -0.0104
   79loPI    C1 1249   7.105   0.477  11.182  0.0306  0.2344  0.2062
   79loPI    C2 1250   7.260   0.174  11.393 -0.1239  0.0561  0.0679
   79loPI    C3 1251   7.162   0.516  11.576 -0.1212 -0.0441  0.2587
   79loPI   PO4 1252   7.176   0.430  10.951 -0.1100 -0.0723  0.0671
   79loPI   GL1 1253   7.038   0.644  10.578  0.1297 -0.0876 -0.2564
   79loPI   GL2 1254   7.397   0.731  10.352 -0.3117 -0.2319  0.0034
   79loPI   C1A 1255   6.953   0.751  10.134  0.0997  0.5921 -0.3045
   79loPI   C2A 1256   6.943   0.830   9.707 -0.3255  0.3196 -0.4360
   79loPI   C3A 1257   6.937   0.822   9.237 -0.0723 -0.3804  0.0646
   79loPI   C4A 1258   7.031   0.856   8.740 -0.4354  0.0264 -0.1951
   79loPI   C5A 1259   7.231   1.056   8.370 -0.1459 -0.2501  0.0845
   79loPI   C6A 1260   7.067   1.088   7.862 -0.1353  0.1417  0.0525
   79loPI   C1B 1261   7.409   0.768   9.916 -0.1371  0.0067 -0.1587
   79loPI   C2B 1262   7.476   0.758   9.574  0.0765  0.2976 -0.1317
   79loPI   C3B 1263   7.393   0.855   9.114  0.2408 -0.2014  0.3342
   79loPI   C4B 1264   7.537   0.959   8.791 -0.0272 -0.0669 -0.0267
   80loPI    C1 1265  11.444   3.366  11.302 -0.0717  0.0710  0.0795
   80loPI    C2 1266  11.153   3.423  11.572  0.0423 -0.0346  0.2264
   80loPI    C3 1267  11.476   3.206  11.668  0.0102 -0.2090 -0.0473
   80loPI   PO4 1268  11.313   3.249  11.081 -0.1202 -0.0465 -0.0806
   80loPI   GL1 1269  11.506   3.131  10.605 -0.3076 -0.3210 -0.1552
   80loPI   GL2 1270  11.245   3.208  10.577  0.4220 -0.1669 -0.1176
   80loPI   C1A 1271  11.371   3.102  10.099  0.0312  0.0208 -0.1565
   80loPI   C2A 1272  11.314   3.103   9.660  0.0289 -0.0790  0.1631
   80loPI   C3A 1273  11.395   3.178   9.202 -0.1605 -0.2667  0.0462
   80loPI   C4A 1274  11.468   3.210   8.795  0.0585  0.1283 -0.0963
   80loPI   C5A 1275  11.143   3.163   8.558 -0.0184  0.0122  0.2303
   80loPI   C6A 1276  10.808   3.045   8.317  0.1055  0.0721  0.1465
   80loPI   C1B 1277  11.076   3.498  10.152 -0.1155  0.2686 -0.0558
   80loPI   C2B 1278  11.066   3.506   9.759 -0.0095  0.0403  0.0154
   80loPI   C3B 1279  11.075   3.535   9.373  0.0366  0.0299 -0.0485
   80loPI   C4B 1280  11.117   3.537   8.966 -0.0752 -0.3643 -0.1108
   81loPI    C1 1281   4.763  12.242  10.934 -0.0694 -0.2314 -0.1351
   81loPI    C2 1282   4.786  12.635  10.867  0.2251 -0.2772 -0.3181
   81loPI    C3 1283   5.061  12.454  11.094  0.1439 -0.3933 -0.3113
   81loPI   PO4 1284   4.683  12.124  10.750 -0.0101  0.1021 -0.2356
   81loPI   GL1 1285   4.850  12.100  10.370  0.0279  0.2493  0.3545
   81loPI   GL2 1286   4.985  12.407  10.266  0.0891 -0.0483 -0.1938
   81loPI   C1A 1287   4.634  12.018   9.994  0.0422  0.0508 -0.0733
   81loPI   C2A 1288   4.630  11.840   9.507  0.0343  0.1429  0.1568
   81loPI   C3A 1289   4.645  11.793   9.146  0.2508 -0.0419  0.2318
   81loPI   C4A 1290   4.559  11.766   8.706 -0.0025  0.2081  0.1714
   81loPI   C5A 1291   4.639  11.675   8.315  0.0095 -0.0354 -0.2232
   81loPI   C6A 1292   4.918  11.693   7.904 -0.0748  0.0136 -0.0663
   81loPI   C1B 1293   5.156  12.037   9.856 -0.0418 -0.0720  0.0289
   81loPI   C2B 1294   5.072  11.935   9.395 -0.0551 -0.0187 -0.2460
   81loPI   C3B 1295   5.195  11.885   8.995  0.0832 -0.1584  0.0951
   81loPI   C4B 1296   5.056  11.839   8.570  0.2660 -0.2174 -0.2671
   82loPI    C1 1297   7.119  15.764  10.820  0.1303 -0.0247 -0.0700
   82loPI    C2 1298   7.518  15.738  10.835  0.1434  0.0239 -0.3047
   82loPI    C3 1299   7.295  15.524  11.088  0.3215  0.1548 -0.0318
   82loPI   PO4 1300   7.051  15.604  10.553 -0.0042 -0.0613  0.1470
   82loPI   GL1 1301   7.070  15.601  10.076 -0.3691  0.0965 -0.1131
   82loPI   GL2 1302   6.903  15.443   9.878 -0.0608  0.0789  0.1275
   82loPI   C1A 1303   7.044  15.906   9.690 -0.3206  0.0168  0.0603
   82loPI   C2A 1304   7.078  15.897   9.277  0.0444  0.1392  0.0728
   82loPI   C3A 1305   7.272  15.745   8.832  0.0425 -0.0131  0.1369
   82loPI   C4A 1306   7.233  15.885   8.387  0.0337 -0.2134  0.1051
   82loPI   C5A 1307   7.294  15.552   8.062 -0.2119 -0.1356  0.1933
   82loPI   C6A 1308   7.207  15.568   7.627  0.0047  0.1931 -0.0962
   82loPI   C1B 1309   7.061  15.414   9.463 -0.4251 -0.1442 -0.0012
   82loPI   C2B 1310   6.955  15.413   9.055  0.1062  0.0890 -0.2119
   82loPI   C3B 1311   6.949  15.375   8.701 -0.0521  0.0608  0.0543
   82loPI   C4B 1312   6.870  15.352   8.243  0.4234  0.0493 -0.0923
   83loPI    C1 1313   4.043   5.724  11.558  0.1710  0.0058  0.0950
   83loPI    C2 1314   4.428   5.830  11.582  0.1398  0.1009  0.1779
   83loPI    C3 1315   4.289   5.531  11.808  0.2342 -0.1378 -0.0754
   83loPI   PO4 1316   4.010   5.744  11.293 -0.2901  0.2417  0.3097
   83loPI   GL1 1317   4.196   5.663  10.903 -0.2700  0.0780 -0.2326
   83loPI   GL2 1318   4.235   5.390  10.661  0.0338  0.0152  0.0299
   83loPI   C1A 1319   4.444   5.893  10.619  0.0413 -0.2939 -0.3477
   83loPI   C2A 1320   4.487   5.961  10.231  0.0972 -0.0828  0.1640
   83loPI   C3A 1321   4.417   5.945   9.750 -0.0993  0.3541 -0.1839
   83loPI   C4A 1322   4.455   6.006   9.324  0.0732  0.0543 -0.3290
   83loPI   C5A 1323   4.585   5.972   8.850 -0.0282 -0.1002  0.0515
   83loPI   C6A 1324   4.877   5.652   8.699 -0.1358 -0.1275 -0.3459
   83loPI   C1B 1325   4.065   5.380  10.219 -0.3424 -0.1051  0.0926
   83loPI   C2B 1326   4.151   5.480   9.785 -0.1071  0.1119 -0.3674
   83loPI   C3B 1327   4.207   5.537   9.437  0.0581  0.1903  0.1608
   83loPI   C4B 1328   4.087   5.879   9.049  0.1248 -0.0796  0.0811
   84loPI    C1 1329   1.099   6.048  11.485 -0.3670  0.0642  0.3296
   84loPI    C2 1330   1.303   6.392  11.479 -0.1892 -0.0368 -0.4482
   84loPI    C3 1331   1.351   6.136  11.783  0.2500  0.2867 -0.2345
   84loPI   PO4 1332   0.969   6.085  11.223  0.4736  0.0073 -0.0059
   84loPI   GL1 1333   0.999   6.082  10.817 -0.0030  0.0526 -0.1263
   84loPI   GL2 1334   1.121   6.431  10.816  0.1309  0.2258  0.1957
   84loPI   C1A 1335   0.849   6.017  10.446  0.2532  0.0067  0.2057
   84loPI   C2A 1336   0.932   5.920  10.032  0.5326 -0.2373 -0.0360
   84loPI   C3A 1337   0.979   5.909   9.569 -0.0740  0.1802  0.1337
   84loPI   C4A 1338   1.065   5.993   9.220 -0.1392  0.0131 -0.1809
   84loPI   C5A 1339   1.050   5.927   8.727  0.0767  0.0567  0.2917
   84loPI   C6A 1340   1.161   5.779   8.325 -0.1735 -0.0809 -0.0800
   84loPI   C1B 1341   1.126   6.420  10.382 -0.1036 -0.1382 -0.1574
   84loPI   C2B 1342   1.081   6.467   9.913 -0.0273 -0.3288  0.1969
   84loPI   C3B 1343   1.224   6.455   9.494  0.0505  0.0468  0.3549
   84loPI   C4B 1344   1.222   6.471   9.044  0.5189  0.1366 -0.2626
   85loPI    C1 1345   5.531  12.858  11.077 -0.3267 -0.2483  0.1318
   85loPI    C2 1346   5.148  12.968  11.037 -0.2131  0.1236  0.0281
   85loPI    C3 1347   5.403  13.200  11.240 -0.0001 -0.0293 -0.0606
   85loPI   PO4 1348   5.532  12.603  10.870 -0.0930 -0.0080 -0.1653
   85loPI   GL1 1349   5.552  12.448  10.409 -0.0785 -0.2098  0.1219
   85loPI   GL2 1350   5.550  12.193  10.261  0.2558 -0.0093 -0.4119
   85loPI   C1A 1351   5.377  12.537   9.932  0.0667  0.1390 -0.0313
   85loPI   C2A 1352   5.354  12.363   9.436 -0.3970 -0.1871 -0.0844
   85loPI   C3A 1353   5.353  12.373   8.979  0.0719 -0.2070  0.0407
   85loPI   C4A 1354   5.358  12.241   8.586  0.0424 -0.2593  0.1726
   85loPI   C5A 1355   5.484  12.025   8.191  0.2248 -0.0126 -0.2242
   85loPI   C6A 1356   5.436  11.687   7.824  0.0957  0.0487 -0.1245
   85loPI   C1B 1357   5.652  12.057   9.844  0.0854 -0.0060  0.0200
   85loPI   C2B 1358   5.580  11.957   9.424  0.0754  0.1569 -0.1663
   85loPI   C3B 1359   5.727  11.987   9.034  0.0362 -0.0640  0.2777
   85loPI   C4B 1360   5.600  11.802   8.690 -0.0427  0.0966  0.0518
   86loPI    C1 1361  16.965  11.027  11.004 -0.2253 -0.0486  0.0371
   86loPI    C2 1362  17.027  11.253  11.327 -0.3694  0.0328  0.0086
   86loPI    C3 1363  17.253  10.930  11.264 -0.3244  0.0299  0.1776
   86loPI   PO4 1364  16.938  11.166  10.684  0.3269  0.2417 -0.0089
   86loPI   GL1 1365  17.109  10.893  10.350 -0.3518  0.0661  0.1467
   86loPI   GL2 1366  17.050  11.181  10.183 -0.1385  0.0052 -0.2239
   86loPI   C1A 1367  17.150  10.725   9.993  0.1673 -0.1856  0.0736
   86loPI   C2A 1368  17.113  10.735   9.614  0.2703 -0.0280 -0.0243
   86loPI   C3A 1369  17.205  10.794   9.281 -0.2419 -0.4659  0.0117
   86loPI   C4A 1370  17.225  10.750   8.922 -0.0847 -0.1423  0.1390
   86loPI   C5A 1371  16.958  10.697   8.611 -0.0333 -0.1922  0.0134
   86loPI   C6A 1372  16.846  10.301   8.303 -0.3112  0.1808 -0.2605
   86loPI   C1B 1373  17.294  11.180   9.765  0.0791  0.1495  0.2132
   86loPI   C2B 1374  17.373  11.236   9.289 -0.1008 -0.0186  0.1030
   86loPI   C3B 1375  17.411  11.211   8.870  0.0925  0.1648 -0.0065
   86loPI   C4B 1376  17.395  10.917   8.482  0.2866  0.2866 -0.1017
   87loPI    C1 1377   6.025   1.962  11.137  0.1142 -0.0731 -0.3132
   87loPI    C2 1378   6.336   1.722  11.214  0.0386 -0.1642 -0.2896
   87loPI    C3 1379   5.963   1.583  11.251 -0.0162  0.0785  0.1418
   87loPI   PO4 1380   6.170   2.144  10.935 -0.0631 -0.1398  0.0467
   87loPI   GL1 1381   6.418   2.364  10.584  0.2046 -0.0848 -0.0216
   87loPI   GL2 1382   6.777   2.289  10.568  0.2655  0.1303 -0.1712
   87loPI   C1A 1383   6.174   2.458  10.166 -0.0013 -0.1480 -0.0230
   87loPI   C2A 1384   6.269   2.477   9.729 -0.0004  0.1548 -0.4722
   87loPI   C3A 1385   6.367   2.584   9.380 -0.1015 -0.1444 -0.1185
   87loPI   C4A 1386   6.282   2.646   8.966  0.4057  0.2501  0.0618
   87loPI   C5A 1387   6.407   2.621   8.487 -0.1926 -0.3702  0.1344
   87loPI   C6A 1388   6.240   2.241   8.300  0.0381 -0.0392  0.0537
   87loPI   C1B 1389   6.674   2.512  10.195  0.0013  0.1025  0.2078
   87loPI   C2B 1390   6.774   2.506   9.739 -0.1630 -0.3687 -0.1567
   87loPI   C3B 1391   6.839   2.614   9.374 -0.2661 -0.0755  0.1390
   87loPI   C4B 1392   6.826   2.608   8.997 -0.3699 -0.0949  0.1732
   88loPI    C1 1393  14.881   6.544  10.907 -0.2267 -0.1767  0.3477
   88loPI    C2 1394  14.576   6.521  11.164 -0.1829 -0.0117  0.4155
   88loPI    C3 1395  14.888   6.758  11.244 -0.2366  0.1559  0.1416
   88loPI   PO4 1396  14.937   6.304  10.782  0.2124  0.1025  0.0426
   88loPI   GL1 1397  14.801   6.132  10.483  0.1754 -0.0355 -0.1225
   88loPI   GL2 1398  14.556   6.080  10.419  0.1369  0.2786 -0.1359
   88loPI   C1A 1399  14.933   6.148  10.095  0.0833 -0.1314 -0.1354
   88loPI   C2A 1400  15.087   6.172   9.715 -0.1081  0.0015  0.0378
   88loPI   C3A 1401  15.092   6.084   9.280 -0.2375 -0.1293 -0.1207
   88loPI   C4A 1402  14.913   6.149   8.866 -0.0620  0.3774  0.1848
   88loPI   C5A 1403  14.826   5.993   8.476  0.2976  0.1756  0.1667
   88loPI   C6A 1404  14.471   5.908   8.234  0.0450  0.1049  0.2469
   88loPI   C1B 1405  14.279   5.999  10.042 -0.0999 -0.2776 -0.1438
   88loPI   C2B 1406  14.194   6.001   9.573  0.0712  0.2446  0.0778
   88loPI   C3B 1407  14.306   5.997   9.144  0.0848  0.1611 -0.0523
   88loPI   C4B 1408  14.326   6.011   8.722  0.2677 -0.2528 -0.0669
   89loPI    C1 1409   1.674   6.915  10.872  0.0365 -0.1037  0.0199
   89loPI    C2 1410   1.665   6.986  11.265  0.2305  0.0089  0.0053
   89loPI    C3 1411   1.510   6.648  11.120 -0.1568  0.1226  0.1403
   89loPI   PO4 1412   1.869   7.030  10.808 -0.0676 -0.0143  0.0080
   89loPI   GL1 1413   1.988   7.062  10.380  0.0880 -0.0854  0.1767
   89loPI   GL2 1414   1.690   7.189  10.377  0.2401 -0.2726 -0.2474
   89loPI   C1A 1415   1.884   7.076   9.864  0.2334 -0.1401  0.1251
   89loPI   C2A 1416   1.946   7.000   9.388 -0.1706 -0.2790 -0.0311
   89loPI   C3A 1417   1.997   6.990   8.950  0.1471 -0.0345  0.3577
   89loPI   C4A 1418   1.988   7.026   8.520  0.0469  0.3490  0.0371
   89loPI   C5A 1419   2.006   7.310   8.162  0.1868  0.3028  0.2269
   89loPI   C6A 1420   2.209   7.659   8.171 -0.3381  0.0146 -0.0301
   89loPI   C1B 1421   1.512   7.343  10.015  0.2731 -0.2938  0.1587
   89loPI   C2B 1422   1.587   7.376   9.473  0.3972 -0.1975 -0.1066
   89loPI   C3B 1423   1.659   7.388   9.090  0.0715 -0.1596 -0.0527
   89loPI   C4B 1424   1.801   7.438   8.745  0.0211 -0.2972  0.0320
   90loPI    C1 1425   9.420   1.032  11.226 -0.1184 -0.1950 -0.0214
   90loPI    C2 1426   9.397   1.044  11.625  0.1380  0.1008 -0.0112
   90loPI    C3 1427   9.638   0.779  11.447 -0.2518 -0.2818  0.0121
   90loPI   PO4 1428   9.402   1.252  11.064 -0.0127  0.1248 -0.0068
   90loPI   GL1 1429   9.519   1.480  10.726 -0.0173 -0.2123 -0.3801
   90loPI   GL2 1430   9.524   1.738  10.654 -0.0981 -0.1034  0.0970
   90loPI   C1A 1431   9.349   1.468  10.312  0.4100  0.1286 -0.0036
   90loPI   C2A 1432   9.219   1.481   9.877 -0.1879  0.0313 -0.1590
   90loPI   C3A 1433   9.144   1.467   9.467  0.1798 -0.0147  0.1999
   90loPI   C4A 1434   9.198   1.445   9.132  0.0661 -0.4018  0.1923
   90loPI   C5A 1435   9.316   1.576   8.674 -0.3503 -0.3254  0.0964
   90loPI   C6A 1436   9.436   1.890   8.432 -0.0400  0.0714  0.0862
   90loPI   C1B 1437   9.469   1.961  10.214  0.1982  0.0268  0.1636
   90loPI   C2B 1438   9.468   1.889   9.749 -0.0913  0.3645  0.3080
   90loPI   C3B 1439   9.429   1.944   9.292 -0.1300 -0.4224  0.0804
   90loPI   C4B 1440   9.557   2.015   8.915  0.0803 -0.2592  0.0500
   91loPI    C1 1441   6.784   0.035  11.221 -0.0460  0.3797  0.0950
   91loPI    C2 1442   6.406   0.139  11.298 -0.2288 -0.1723 -0.0189
   91loPI    C3 1443   6.581  -0.152  11.510  0.0466 -0.0983 -0.1403
   91loPI   PO4 1444   6.844  -0.020  10.941  0.1038 -0.3231  0.2175
   91loPI   GL1 1445   6.985   0.030  10.570 -0.0696 -0.1722  0.6034
   91loPI   GL2 1446   7.209  -0.217  10.507  0.0083 -0.0885  0.1461
   91loPI   C1A 1447   6.727   0.314  10.289  0.2334 -0.1288  0.1960
   91loPI   C2A 1448   6.640   0.241   9.890  0.1337  0.0492 -0.2554
   91loPI   C3A 1449   6.784   0.320   9.410  0.4125  0.0077  0.2550
   91loPI   C4A 1450   6.796   0.395   8.918 -0.0897  0.1776 -0.0832
   91loPI   C5A 1451   6.729   0.378   8.518  0.0726 -0.2822  0.0707
   91loPI   C6A 1452   6.832   0.732   8.240 -0.0973  0.2320 -0.0656
   91loPI   C1B 1453   7.487  -0.249  10.133 -0.1418 -0.1679 -0.2083
   91loPI   C2B 1454   7.568  -0.061   9.733 -0.0815  0.1761 -0.0235
   91loPI   C3B 1455   7.603  -0.034   9.262 -0.1342 -0.0117  0.2504
   91loPI   C4B 1456   7.594  -0.055   8.792 -0.0909  0.0455 -0.1399
   92loPI    C1 1457   4.367  16.937  10.527 -0.0651  0.3078  0.1252
   92loPI    C2 1458   4.625  16.931  10.833  0.0575  0.1312  0.0202
   92loPI    C3 1459   4.272  16.746  10.865  0.1535 -0.0606 -0.0154
   92loPI   PO4 1460   4.414  17.111  10.419  0.2728  0.1588  0.1076
   92loPI   GL1 1461   4.460  17.534  10.155 -0.2022  0.0033  0.2009
   92loPI   GL2 1462   4.139  17.584   9.998  0.0164 -0.1572  0.2130
   92loPI   C1A 1463   4.511  17.428   9.746  0.2140  0.2471 -0.1747
   92loPI   C2A 1464   4.552  17.589   9.296 -0.3155  0.1379 -0.1877
   92loPI   C3A 1465   4.447  17.546   8.842  0.1038  0.1749  0.1155
   92loPI   C4A 1466   4.425  17.530   8.431  0.0011 -0.1488 -0.2552
   92loPI   C5A 1467   4.133  17.393   8.120 -0.1022 -0.0995 -0.1343
   92loPI   C6A 1468   4.081  17.232   7.658 -0.2899  0.0412 -0.3399
   92loPI   C1B 1469   4.240  17.865   9.647 -0.2682 -0.1252  0.0398
   92loPI   C2B 1470   4.189  17.916   9.127  0.0682  0.0379  0.1600
   92loPI   C3B 1471   4.186  17.956   8.683 -0.0342  0.0819 -0.1900
   92loPI   C4B 1472   4.083  17.940   8.321 -0.0241 -0.0433  0.1122
   93loPI    C1 1473   7.910  17.856  10.992 -0.1289  0.1297  0.1663
   93loPI    C2 1474   7.654  18.160  11.041 -0.0482  0.1887  0.2249
   93loPI    C3 1475   7.781  17.953  11.359 -0.1496  0.0545  0.1791
   93loPI   PO4 1476   7.770  17.737  10.764 -0.2543  0.0811  0.0024
   93loPI   GL1 1477   7.483  18.160  10.577  0.0277  0.3303  0.1327
   93loPI   GL2 1478   7.855  18.238  10.540  0.2765 -0.0701  0.0388
   93loPI   C1A 1479   7.273  18.092  10.135 -0.0351 -0.0233 -0.0532
   93loPI   C2A 1480   7.155  18.219   9.768  0.0691  0.0809 -0.3563
   93loPI   C3A 1481   7.277  18.319   9.286  0.2426  0.1906 -0.0921
   93loPI   C4A 1482   7.315  18.279   8.788  0.0663  0.1954 -0.0202
   93loPI   C5A 1483   7.384  18.380   8.451  0.0082 -0.1212  0.0108
   93loPI   C6A 1484   7.601  18.719   8.261  0.0353  0.0287 -0.0890
   93loPI   C1B 1485   7.728  18.233  10.071  0.1017  0.0224  0.0636
   93loPI   C2B 1486   7.786  18.252   9.592  0.1086  0.1776 -0.1949
   93loPI   C3B 1487   7.764  18.369   9.142  0.2714  0.0010 -0.1037
   93loPI   C4B 1488   7.828  18.337   8.690 -0.1834  0.0820 -0.4394
   94loPI    C1 1489  12.534   0.886  11.314  0.0261 -0.1850 -0.0948
   94loPI    C2 1490  12.646   0.596  11.566 -0.2163 -0.1545  0.0512
   94loPI    C3 1491  12.612   0.973  11.696  0.3180 -0.0125 -0.1901
   94loPI   PO4 1492  12.496   0.743  11.007 -0.2217 -0.2280 -0.1101
   94loPI   GL1 1493  12.750   0.935  10.628  0.0495  0.1273 -0.0485
   94loPI   GL2 1494  12.723   0.681  10.469 -0.0702 -0.0974 -0.1397
   94loPI   C1A 1495  12.451   1.060  10.207 -0.0602  0.3349 -0.0553
   94loPI   C2A 1496  12.443   0.956   9.762  0.0383  0.3883  0.0017
   94loPI   C3A 1497  12.513   1.055   9.344  0.0403  0.1179 -0.0593
   94loPI   C4A 1498  12.443   1.028   8.924  0.0744 -0.3092  0.2566
   94loPI   C5A 1499  12.409   1.108   8.536  0.2311 -0.3688  0.0463
   94loPI   C6A 1500  12.424   0.760   8.174 -0.1154  0.1942  0.3845
   94loPI   C1B 1501  12.760   0.653   9.995 -0.0785 -0.0799  0.2875
   94loPI   C2B 1502  12.758   0.576   9.469  0.2954  0.0383 -0.1018
   94loPI   C3B 1503  12.785   0.569   9.009  0.1838 -0.0469  0.5120
   94loPI   C4B 1504  12.773   0.678   8.521  0.3282 -0.1002  0.0472
   95loPI    C1 1505  16.555  15.035  10.855 -0.1426  0.2190  0.2713
   95loPI    C2 1506  16.795  15.186  11.137 -0.0631  0.1387  0.2470
   95loPI    C3 1507  16.574  14.862  11.215 -0.1275  0.1839  0.2537
   95loPI   PO4 1508  16.719  14.978  10.620 -0.0759 -0.0194 -0.1165
   95loPI   GL1 1509  16.804  15.015  10.163  0.2911 -0.0191  0.0464
   95loPI   GL2 1510  16.652  15.287  10.055  0.1338  0.0565  0.0406
   95loPI   C1A 1511  16.862  14.795   9.796 -0.5231  0.1156 -0.0701
   95loPI   C2A 1512  16.833  14.753   9.331  0.2073  0.0016  0.1500
   95loPI   C3A 1513  16.919  14.644   8.930  0.2904 -0.4256 -0.0953
   95loPI   C4A 1514  16.885  14.702   8.428  0.1008 -0.0668 -0.0762
   95loPI   C5A 1515  16.672  14.771   8.080 -0.1275  0.2376  0.2494
   95loPI   C6A 1516  16.329  14.817   7.791  0.2173  0.0580  0.0963
   95loPI   C1B 1517  16.614  15.196   9.644  0.1579  0.0287 -0.3074
   95loPI   C2B 1518  16.575  15.169   9.253  0.0580  0.4183 -0.0852
   95loPI   C3B 1519  16.673  15.131   8.929 -0.2273 -0.3915  0.0678
   95loPI   C4B 1520  16.627  15.156   8.424  0.1277  0.0951  0.0541
   96loPI    C1 1521  16.929  15.400  10.738 -0.1195  0.1104  0.2332
   96loPI    C2 1522  17.326  15.447  10.722 -0.0840 -0.2093  0.1022
   96loPI    C3 1523  17.118  15.604  11.025  0.1466 -0.0734  0.1926
   96loPI   PO4 1524  16.874  15.421  10.448 -0.0052 -0.1101  0.0214
   96loPI   GL1 1525  16.785  15.750  10.053 -0.0218 -0.0438 -0.0958
   96loPI   GL2 1526  16.752  15.994  10.105  0.1551  0.0693  0.0150
   96loPI   C1A 1527  16.844  15.665   9.547  0.1431 -0.1862 -0.0402
   96loPI   C2A 1528  16.815  15.629   9.160 -0.1091 -0.1882  0.2617
   96loPI   C3A 1529  16.876  15.625   8.700  0.4760 -0.3485  0.2930
   96loPI   C4A 1530  16.865  15.615   8.250 -0.3827 -0.0799 -0.0174
   96loPI   C5A 1531  16.978  15.566   7.767  0.2447 -0.0822  0.0222
   96loPI   C6A 1532  17.049  15.376   7.394 -0.0863  0.0514  0.3535
   96loPI   C1B 1533  16.644  16.104   9.717  0.1081 -0.1175  0.2139
   96loPI   C2B 1534  16.558  16.053   9.327 -0.0047 -0.0793  0.2247
   96loPI   C3B 1535  16.553  15.997   8.858 -0.1411 -0.0510 -0.0064
   96loPI   C4B 1536  16.672  16.048   8.440 -0.2700  0.3239  0.0171
   97loPI    C1 1537   9.056   3.425  11.407 -0.1297  0.1671 -0.0674
   97loPI    C2 1538   8.722   3.566  11.576 -0.0765  0.0746  0.1177
   97loPI    C3 1539   9.078   3.653  11.735 -0.0216  0.0396  0.0150
   97loPI   PO4 1540   8.943   3.356  11.195 -0.1528 -0.1074 -0.1384
   97loPI   GL1 1541   8.843   3.381  10.762  0.0255 -0.1431  0.0716
   97loPI   GL2 1542   8.980   3.164  10.627 -0.0596 -0.1626 -0.0082
   97loPI   C1A 1543   8.725   3.615  10.414  0.0494  0.1374  0.0320
   97loPI   C2A 1544   8.751   3.625   9.976  0.2856 -0.0342 -0.2965
   97loPI   C3A 1545   8.750   3.700   9.499 -0.1626 -0.2541 -0.2477
   97loPI   C4A 1546   8.704   3.693   9.060  0.0323  0.1108  0.0974
   97loPI   C5A 1547   8.777   3.656   8.706 -0.1074 -0.0198  0.4571
   97loPI   C6A 1548   8.545   3.374   8.399 -0.0066  0.3074  0.3622
   97loPI   C1B 1549   8.946   3.238  10.271 -0.0169  0.0735 -0.0060
   97loPI   C2B 1550   8.992   3.229   9.777 -0.2389  0.2107 -0.1091
   97loPI   C3B 1551   9.103   3.199   9.276  0.0408 -0.0658 -0.0810
   97loPI   C4B 1552   9.051   3.313   8.932  0.1160  0.1258 -0.0616
   98loPI    C1 1553   3.204  10.204  11.182  0.0515 -0.0201  0.0163
   98loPI    C2 1554   3.206  10.568  11.348  0.1478  0.0723 -0.1838
   98loPI    C3 1555   3.131  10.245  11.573  0.0818  0.2132 -0.0017
   98loPI   PO4 1556   3.259  10.284  10.872  0.0422 -0.1410 -0.2437
   98loPI   GL1 1557   3.392  10.094  10.566 -0.2869  0.0633 -0.0525
   98loPI   GL2 1558   3.703  10.132  10.359 -0.0833  0.1645 -0.2207
   98loPI   C1A 1559   3.162   9.900  10.163 -0.2136  0.1557  0.1441
   98loPI   C2A 1560   3.133   9.827   9.642  0.0346 -0.0967 -0.0063
   98loPI   C3A 1561   3.237   9.885   9.164  0.1060  0.2228  0.1700
   98loPI   C4A 1562   3.153   9.746   8.778  0.0457 -0.3082  0.2468
   98loPI   C5A 1563   3.332   9.878   8.322 -0.0861  0.0053  0.0019
   98loPI   C6A 1564   3.431  10.234   8.223  0.0126 -0.1424  0.1222
   98loPI   C1B 1565   3.565   9.985   9.910  0.1122  0.3175  0.2249
   98loPI   C2B 1566   3.604   9.904   9.531  0.3127  0.0711 -0.1114
   98loPI   C3B 1567   3.795   9.981   9.180 -0.0633 -0.2204  0.0758
   98loPI   C4B 1568   3.731   9.969   8.724  0.2706 -0.1008  0.3156
   99loPI    C1 1569   8.267   7.185  11.062 -0.0980 -0.1139  0.0463
   99loPI    C2 1570   8.459   6.848  11.161 -0.0052 -0.0627  0.0419
   99loPI    C3 1571   8.666   7.170  11.046 -0.1049 -0.0817 -0.1970
   99loPI   PO4 1572   8.046   7.080  10.925  0.0247 -0.0507  0.3280
   99loPI   GL1 1573   7.817   7.264  10.579  0.0414  0.2341  0.1392
   99loPI   GL2 1574   7.988   7.606  10.526 -0.0759  0.2432  0.0790
   99loPI   C1A 1575   7.884   7.297  10.081 -0.2888  0.0858  0.3146
   99loPI   C2A 1576   7.977   7.222   9.613 -0.2610  0.2209 -0.0583
   99loPI   C3A 1577   7.915   7.160   9.206  0.1583 -0.2427 -0.1121
   99loPI   C4A 1578   8.066   7.274   8.784 -0.0559  0.0573 -0.1310
   99loPI   C5A 1579   8.323   7.440   8.448 -0.0435 -0.3468 -0.0650
   99loPI   C6A 1580   8.453   7.356   7.974 -0.0566  0.2403  0.0473
   99loPI   C1B 1581   8.069   7.723  10.107  0.0246  0.3138  0.0865
   99loPI   C2B 1582   8.044   7.829   9.737 -0.1224 -0.1150  0.3017
   99loPI   C3B 1583   8.092   7.668   9.399  0.1482 -0.1593 -0.0179
   99loPI   C4B 1584   8.145   7.756   8.954 -0.0804 -0.1019  0.1371
  100loPI    C1 1585   7.793   1.086  11.067  0.3173  0.0913 -0.0401
  100loPI    C2 1586   7.608   1.368  11.281  0.0491 -0.1414  0.0418
  100loPI    C3 1587   7.876   1.129  11.456 -0.1698 -0.3313  0.1229
  100loPI   PO4 1588   7.746   1.217  10.774 -0.1444 -0.0371 -0.4664
  100loPI   GL1 1589   7.819   1.459  10.498  0.1586 -0.2413 -0.1892
  100loPI   GL2 1590   7.467   1.591  10.398 -0.1160 -0.0136 -0.2772
  100loPI   C1A 1591   7.882   1.743  10.144  0.1960 -0.3377  0.1786
  100loPI   C2A 1592   7.902   1.704   9.725 -0.3507  0.2725 -0.1965
  100loPI   C3A 1593   7.873   1.725   9.280 -0.0051  0.3079 -0.0446
  100loPI   C4A 1594   7.999   1.798   8.822  0.3373  0.0847  0.0952
  100loPI   C5A 1595   7.976   1.953   8.406 -0.0456 -0.1754  0.1494
  100loPI   C6A 1596   8.274   2.085   8.144 -0.4185  0.0806  0.2668
  100loPI   C1B 1597   7.425   1.695   9.998 -0.1808  0.2194 -0.0572
  100loPI   C2B 1598   7.356   1.760   9.490  0.1469 -0.0173 -0.2096
  100loPI   C3B 1599   7.387   1.746   9.138  0.2609 -0.0455  0.0325
  100loPI   C4B 1600   7.461   1.826   8.638  0.1541 -0.4317  0.0533
  101loPI    C1 1601   6.085  10.149  11.047 -0.0857 -0.0200  0.1039
  101loPI    C2 1602   5.815  10.164  11.342 -0.0871 -0.0280  0.1030
  101loPI    C3 1603   6.201  10.097  11.426 -0.0277  0.3386  0.1391
  101loPI   PO4 1604   5.992  10.190  10.853  0.0358  0.1157  0.1864
  101loPI   GL1 1605   6.025   9.850  10.455  0.1289 -0.1914 -0.1533
  101loPI   GL2 1606   5.701   9.905  10.500 -0.3539  0.0962 -0.4064
  101loPI   C1A 1607   6.024   9.802  10.000  0.0082  0.4240  0.2571
  101loPI   C2A 1608   6.033   9.767   9.489 -0.4422 -0.0561 -0.1959
  101loPI   C3A 1609   6.118   9.750   9.112  0.0386 -0.2434 -0.1734
  101loPI   C4A 1610   6.174   9.604   8.707 -0.0042 -0.0629 -0.3851
  101loPI   C5A 1611   5.848   9.401   8.450  0.1576 -0.1860 -0.1607
  101loPI   C6A 1612   5.481   9.274   8.162  0.1440  0.0602  0.2545
  101loPI   C1B 1613   5.547   9.761  10.149 -0.3129  0.1438  0.0626
  101loPI   C2B 1614   5.517   9.762   9.703 -0.1410 -0.3057 -0.1054
  101loPI   C3B 1615   5.592   9.645   9.259  0.1625  0.0724  0.0654
  101loPI   C4B 1616   5.576   9.720   8.793  0.2109 -0.4514  0.3568
  102loPI    C1 1617  12.719   2.094  11.217 -0.0803  0.0829 -0.0634
  102loPI    C2 1618  12.373   2.105  11.418 -0.0508 -0.1246  0.0006
  102loPI    C3 1619  12.577   1.762  11.388  0.1487 -0.0042 -0.0388
  102loPI   PO4 1620  12.601   2.220  10.971 -0.1784 -0.1250  0.1052
  102loPI   GL1 1621  12.603   2.044  10.510  0.5527 -0.3410  0.1567
  102loPI   GL2 1622  12.310   1.990  10.494  0.0270 -0.1338  0.0171
  102loPI   C1A 1623  12.451   2.324  10.161 -0.0730  0.0359 -0.0497
  102loPI   C2A 1624  12.452   2.281   9.708 -0.1163 -0.0640 -0.0347
  102loPI   C3A 1625  12.513   2.409   9.369  0.1708  0.1191  0.1125
  102loPI   C4A 1626  12.617   2.320   8.987 -0.3055 -0.3971  0.3343
  102loPI   C5A 1627  12.838   2.511   8.566 -0.1191 -0.1151 -0.3817
  102loPI   C6A 1628  13.199   2.791   8.416 -0.3594  0.0702  0.0084
  102loPI   C1B 1629  12.292   1.843  10.065 -0.0391  0.0701 -0.1494
  102loPI   C2B 1630  12.293   1.811   9.601  0.0339  0.0584 -0.4877
  102loPI   C3B 1631  12.401   1.836   9.141  0.2003 -0.0950 -0.1204
  102loPI   C4B 1632  12.350   1.838   8.718 -0.3588  0.0907 -0.0705
  103loPI    C1 1633   9.126   7.402  11.235  0.2912 -0.1199  0.0966
  103loPI    C2 1634   9.461   7.621  11.243  0.2406 -0.0375 -0.0248
  103loPI    C3 1635   9.296   7.497  11.585  0.3301  0.0213  0.0401
  103loPI   PO4 1636   9.017   7.539  10.905  0.0407 -0.3202  0.0099
  103loPI   GL1 1637   8.779   7.360  10.512  0.1888 -0.2982  0.0816
  103loPI   GL2 1638   8.505   7.376  10.614  0.1793 -0.1712 -0.0015
  103loPI   C1A 1639   8.978   7.379  10.152 -0.1068  0.1888 -0.0195
  103loPI   C2A 1640   9.053   7.139   9.802 -0.1639 -0.1411 -0.0432
  103loPI   C3A 1641   8.951   7.401   9.338  0.0173  0.1248  0.1516
  103loPI   C4A 1642   8.871   7.295   8.870 -0.0821  0.0664  0.0583
  103loPI   C5A 1643   8.807   6.785   8.771  0.2895 -0.1348 -0.2746
  103loPI   C6A 1644   9.106   6.510   8.589 -0.0410  0.0437 -0.2106
  103loPI   C1B 1645   8.372   7.292  10.257  0.0878  0.3512  0.0519
  103loPI   C2B 1646   8.395   7.226   9.870 -0.1568 -0.0445 -0.1073
  103loPI   C3B 1647   8.442   7.205   9.438 -0.0000  0.1221 -0.1713
  103loPI   C4B 1648   8.438   7.374   9.095 -0.1989  0.0253  0.1215
  104loPI    C1 1649   5.603   7.914  11.430  0.1482  0.2198 -0.1526
  104loPI    C2 1650   5.829   8.238  11.493  0.4129  0.0146 -0.0248
  104loPI    C3 1651   5.664   8.047  11.803  0.2528  0.0283 -0.1005
  104loPI   PO4 1652   5.375   7.940  11.274  0.1917  0.2865  0.2108
  104loPI   GL1 1653   5.247   7.758  10.975  0.3017 -0.2146  0.2233
  104loPI   GL2 1654   5.480   7.935  10.764  0.1024 -0.2149  0.0399
  104loPI   C1A 1655   4.952   7.451  10.639 -0.2933 -0.0019  0.1536
  104loPI   C2A 1656   4.960   7.442  10.204 -0.0765  0.0511 -0.0589
  104loPI   C3A 1657   4.969   7.348   9.796  0.2609 -0.0753 -0.0222
  104loPI   C4A 1658   5.050   7.375   9.309  0.0055  0.0284 -0.0910
  104loPI   C5A 1659   5.337   7.378   9.019  0.1056 -0.2427 -0.0565
  104loPI   C6A 1660   5.488   7.402   8.547  0.0079  0.3566 -0.0390
  104loPI   C1B 1661   5.602   8.060  10.401 -0.0395  0.0082  0.0856
  104loPI   C2B 1662   5.603   7.998  10.028  0.2198  0.0241 -0.1221
  104loPI   C3B 1663   5.714   7.940   9.641 -0.1570  0.1164 -0.0441
  104loPI   C4B 1664   5.841   7.847   9.266 -0.1372 -0.3432 -0.0121
  105loPI    C1 1665  10.259  10.296  11.192  0.1221 -0.1759 -0.0763
  105loPI    C2 1666  10.337  10.436  11.558 -0.1861 -0.0591 -0.0529
  105loPI    C3 1667  10.266  10.046  11.504 -0.1121 -0.0808  0.0074
  105loPI   PO4 1668  10.460  10.437  11.054 -0.0970  0.1994  0.2468
  105loPI   GL1 1669  10.405  10.405  10.599 -0.1703  0.1077  0.1407
  105loPI   GL2 1670  10.185  10.187  10.691 -0.0998  0.0079  0.1712
  105loPI   C1A 1671  10.479  10.552  10.127  0.0625 -0.0313  0.2543
  105loPI   C2A 1672  10.497  10.542   9.666  0.0241 -0.2338 -0.0233
  105loPI   C3A 1673  10.567  10.539   9.185 -0.0294 -0.1461  0.1949
  105loPI   C4A 1674  10.574  10.651   8.794 -0.1750 -0.3830 -0.1447
  105loPI   C5A 1675  10.578  10.675   8.304  0.0942 -0.1793 -0.2934
  105loPI   C6A 1676  10.267  10.638   8.041  0.1322  0.0324  0.0388
  105loPI   C1B 1677  10.089  10.194  10.244  0.0519  0.1332 -0.1413
  105loPI   C2B 1678  10.242  10.136   9.817  0.0350  0.1862 -0.0883
  105loPI   C3B 1679  10.306  10.108   9.402 -0.1641 -0.3588 -0.2985
  105loPI   C4B 1680  10.356  10.135   8.897 -0.1269  0.1384  0.2424
  106loPI    C1 1681  17.639   1.993  10.883 -0.0727  0.2338 -0.1392
  106loPI    C2 1682  17.860   1.866  11.191 -0.0193 -0.1141 -0.3163
  106loPI    C3 1683  17.464   1.905  11.232  0.0190  0.0950 -0.1275
  106loPI   PO4 1684  17.749   1.864  10.667 -0.2844 -0.1851 -0.2500
  106loPI   GL1 1685  17.852   1.793  10.218  0.2432  0.2173  0.0619
  106loPI   GL2 1686  17.533   1.683  10.245 -0.1221 -0.1819  0.0335
  106loPI   C1A 1687  17.840   1.861   9.830  0.1459  0.2319 -0.2535
  106loPI   C2A 1688  17.846   1.919   9.452  0.0152 -0.1797 -0.3326
  106loPI   C3A 1689  17.811   1.825   9.034  0.1973  0.0583  0.1352
  106loPI   C4A 1690  17.874   1.842   8.642  0.1145 -0.1258  0.0365
  106loPI   C5A 1691  18.086   2.101   8.393 -0.2555  0.0400 -0.1199
  106loPI   C6A 1692  18.166   2.550   8.227 -0.0950 -0.0737  0.2542
  106loPI   C1B 1693  17.310   1.803   9.874  0.1184  0.0203  0.2982
  106loPI   C2B 1694  17.355   1.868   9.468  0.0558  0.0342  0.0660
  106loPI   C3B 1695  17.274   1.834   9.033 -0.0762 -0.0915  0.1256
  106loPI   C4B 1696  17.265   1.614   8.547 -0.2220 -0.1944  0.0941
  107loPI    C1 1697   9.398   5.555  11.021 -0.1524  0.2526  0.1896
  107loPI    C2 1698   9.718   5.548  11.261 -0.0351  0.0076  0.0299
  107loPI    C3 1699   9.430   5.275  11.305 -0.0106 -0.0414 -0.1103
  107loPI   PO4 1700   9.476   5.614  10.747 -0.3633 -0.1031 -0.0769
  107loPI   GL1 1701   9.561   5.887  10.409  0.2690  0.0897  0.1280
  107loPI   GL2 1702   9.262   6.064  10.274  0.0507 -0.1699  0.1639
  107loPI   C1A 1703   9.673   5.617   9.988  0.1968 -0.0212 -0.1395
  107loPI   C2A 1704   9.672   5.538   9.615 -0.1366 -0.3793  0.1309
  107loPI   C3A 1705   9.566   5.545   9.194 -0.2208  0.3010  0.0274
  107loPI   C4A 1706   9.717   5.648   8.806 -0.3715 -0.1237  0.5685
  107loPI   C5A 1707   9.681   5.401   8.399  0.3261 -0.1637 -0.1236
  107loPI   C6A 1708   9.318   5.309   8.078  0.2425 -0.2128  0.3365
  107loPI   C1B 1709   9.303   5.948   9.973 -0.1999  0.0234 -0.0494
  107loPI   C2B 1710   9.322   5.895   9.636  0.1479  0.3140 -0.2055
  107loPI   C3B 1711   9.403   6.067   9.233 -0.2664  0.1544  0.0485
  107loPI   C4B 1712   9.403   6.058   8.839  0.4931 -0.1674 -0.1650
  108loPI    C1 1713   3.748  15.317  10.623 -0.0576 -0.1488 -0.1089
  108loPI    C2 1714   4.034  15.162  10.857 -0.2469 -0.1454  0.1284
  108loPI    C3 1715   3.904  15.535  10.920 -0.3480 -0.1691  0.0631
  108loPI   PO4 1716   3.880  15.146  10.394  0.0895  0.2729  0.0554
  108loPI   GL1 1717   3.748  15.120  10.059  0.1041  0.0887  0.0503
  108loPI   GL2 1718   3.549  14.916   9.846  0.0901 -0.0296 -0.1201
  108loPI   C1A 1719   3.976  15.124   9.645  0.1079 -0.1450 -0.0661
  108loPI   C2A 1720   3.857  15.261   9.145 -0.3272  0.2543 -0.1936
  108loPI   C3A 1721   3.948  15.595   8.826 -0.0066 -0.1361 -0.0118
  108loPI   C4A 1722   3.929  15.900   8.406  0.0297 -0.1119  0.0495
  108loPI   C5A 1723   3.741  15.800   8.056  0.0121  0.0928 -0.0135
  108loPI   C6A 1724   3.527  15.757   7.749 -0.1712 -0.1972 -0.1150
  108loPI   C1B 1725   3.335  14.731   9.488 -0.1808 -0.0553 -0.0924
  108loPI   C2B 1726   3.285  14.738   9.084  0.0365 -0.2853 -0.2111
  108loPI   C3B 1727   3.374  14.745   8.636  0.1583 -0.0948  0.2133
  108loPI   C4B 1728   3.519  14.892   8.249  0.0249 -0.0651 -0.0463
  109loPI    C1 1729   4.592  16.415  10.644 -0.1040 -0.1184 -0.0734
  109loPI    C2 1730   4.955  16.298  10.525 -0.0831  0.0993 -0.2301
  109loPI    C3 1731   4.754  16.083  10.796  0.1905  0.0144 -0.0917
  109loPI   PO4 1732   4.480  16.453  10.390 -0.4247 -0.2776  0.1279
  109loPI   GL1 1733   4.547  16.653  10.013 -0.3824  0.0287 -0.1789
  109loPI   GL2 1734   4.300  16.942   9.967 -0.2596 -0.1098 -0.1656
  109loPI   C1A 1735   4.552  16.673   9.542 -0.0261 -0.0487  0.0088
  109loPI   C2A 1736   4.503  16.630   9.097 -0.1327  0.0852 -0.0075
  109loPI   C3A 1737   4.501  16.571   8.696  0.3794 -0.0620  0.0349
  109loPI   C4A 1738   4.419  16.492   8.238  0.0225 -0.3925 -0.0907
  109loPI   C5A 1739   4.237  16.075   7.990  0.0937 -0.0290 -0.0908
  109loPI   C6A 1740   4.404  15.719   7.747  0.0546  0.1522  0.0274
  109loPI   C1B 1741   4.211  17.077   9.507 -0.3857  0.0895 -0.0352
  109loPI   C2B 1742   4.017  17.485   9.417 -0.1356 -0.2478  0.0040
  109loPI   C3B 1743   3.948  17.536   8.991  0.0760  0.1937  0.5439
  109loPI   C4B 1744   3.973  17.446   8.587  0.1235  0.0441 -0.1216
  110loPI    C1 1745   7.621   1.836  11.142  0.0669 -0.2637  0.0148
  110loPI    C2 1746   7.686   2.119  11.416  0.1765 -0.1520 -0.1248
  110loPI    C3 1747   7.465   1.799  11.508  0.0668 -0.0309  0.0398
  110loPI   PO4 1748   7.723   1.855  10.921  0.1988  0.3980 -0.0963
  110loPI   GL1 1749   8.000   1.991  10.578  0.0256  0.2273 -0.0998
  110loPI   GL2 1750   8.241   1.755  10.587  0.1119 -0.0177  0.2355
  110loPI   C1A 1751   8.036   2.215  10.189 -0.2842  0.1947  0.0748
  110loPI   C2A 1752   8.080   2.238   9.727 -0.2890  0.0368  0.2471
  110loPI   C3A 1753   8.054   2.188   9.267  0.1216  0.0494 -0.0407
  110loPI   C4A 1754   8.169   2.273   8.784 -0.4141 -0.0587 -0.2652
  110loPI   C5A 1755   8.171   2.472   8.428 -0.1030 -0.0054 -0.3020
  110loPI   C6A 1756   8.116   2.541   7.996 -0.1117  0.0494  0.1528
  110loPI   C1B 1757   8.421   1.768  10.221  0.0456 -0.2500 -0.1251
  110loPI   C2B 1758   8.405   1.837   9.786 -0.1431 -0.0091  0.2282
  110loPI   C3B 1759   8.359   1.780   9.353  0.3148 -0.0513 -0.2500
  110loPI   C4B 1760   8.542   1.909   9.010  0.1380  0.6167 -0.0116
  111loPI    C1 1761  15.672  16.930  11.047  0.0360 -0.0563 -0.2726
  111loPI    C2 1762  15.280  16.860  11.017  0.0269 -0.1193 -0.0313
  111loPI    C3 1763  15.529  16.563  11.114  0.0996 -0.0182  0.0959
  111loPI   PO4 1764  15.687  17.055  10.808 -0.1987  0.1760  0.0191
  111loPI   GL1 1765  15.525  17.071  10.401  0.2899 -0.3163  0.0453
  111loPI   GL2 1766  15.243  17.283  10.222 -0.2546  0.0124 -0.0559
  111loPI   C1A 1767  15.545  16.829   9.965 -0.1744  0.0828  0.1296
  111loPI   C2A 1768  15.460  16.844   9.557 -0.1534 -0.1638 -0.0431
  111loPI   C3A 1769  15.441  16.822   9.116 -0.0118 -0.1572  0.1119
  111loPI   C4A 1770  15.431  16.792   8.638  0.0190 -0.1385 -0.0648
  111loPI   C5A 1771  15.517  16.936   8.325 -0.2645  0.0596 -0.1242
  111loPI   C6A 1772  15.906  17.224   8.088  0.2468  0.2569 -0.1836
  111loPI   C1B 1773  15.126  17.214   9.837  0.2692  0.1749 -0.0316
  111loPI   C2B 1774  15.134  17.351   9.372  0.0301 -0.0913  0.1114
  111loPI   C3B 1775  15.177  17.237   8.964  0.2044 -0.0955  0.3279
  111loPI   C4B 1776  15.183  17.220   8.478  0.0980  0.1159 -0.0897
  112loPI    C1 1777   5.180   8.919  11.388  0.0439 -0.2338  0.1520
  112loPI    C2 1778   5.285   9.173  11.679  0.2878 -0.0701 -0.0749
  112loPI    C3 1779   5.134   8.815  11.772 -0.2431  0.2255  0.2498
  112loPI   PO4 1780   5.310   8.826  11.267  0.0206 -0.0474 -0.1542
  112loPI   GL1 1781   5.334   8.713  10.820 -0.2171 -0.2303 -0.0607
  112loPI   GL2 1782   5.391   8.484  10.622 -0.1708  0.1579 -0.0349
  112loPI   C1A 1783   5.161   8.848  10.368 -0.0795 -0.0093 -0.0409
  112loPI   C2A 1784   5.120   8.759   9.928 -0.2033 -0.3884 -0.2347
  112loPI   C3A 1785   5.179   8.753   9.464 -0.0643 -0.2566 -0.2503
  112loPI   C4A 1786   5.205   8.696   9.048  0.0616 -0.0625 -0.1059
  112loPI   C5A 1787   5.329   8.652   8.698 -0.0868  0.1256 -0.2602
  112loPI   C6A 1788   5.211   8.249   8.454  0.0918 -0.0114  0.1835
  112loPI   C1B 1789   5.318   8.395  10.201 -0.0815 -0.0802 -0.0969
  112loPI   C2B 1790   5.404   8.358   9.790 -0.6198 -0.1269  0.0551
  112loPI   C3B 1791   5.488   8.338   9.353  0.0907 -0.0838 -0.2671
  112loPI   C4B 1792   5.469   8.265   8.947  0.0688 -0.0556  0.0781
  113loPI    C1 1793  16.798  13.137  11.213  0.1061 -0.1127  0.2816
  113loPI    C2 1794  16.548  12.824  11.199 -0.2921  0.2078 -0.0726
  113loPI    C3 1795  16.897  12.794  11.393 -0.3232 -0.4493 -0.0970
  113loPI   PO4 1796  16.778  13.230  10.950 -0.1576 -0.2609 -0.2832
  113loPI   GL1 1797  16.914  13.257  10.554  0.1314 -0.4376 -0.0254
  113loPI   GL2 1798  17.165  13.097  10.610  0.1741 -0.2180 -0.0404
  113loPI   C1A 1799  16.833  13.442  10.203  0.1735  0.1028  0.0861
  113loPI   C2A 1800  16.807  13.380   9.754  0.1538  0.0436 -0.2733
  113loPI   C3A 1801  16.836  13.409   9.324  0.0276  0.1989 -0.2505
  113loPI   C4A 1802  16.849  13.388   8.878  0.4276 -0.1568  0.0195
  113loPI   C5A 1803  16.782  13.233   8.485  0.0741  0.0787 -0.1378
  113loPI   C6A 1804  16.689  12.962   8.199  0.1775  0.2672 -0.1625
  113loPI   C1B 1805  17.106  13.016  10.064  0.1378  0.2519  0.0668
  113loPI   C2B 1806  17.138  12.989   9.597 -0.0351 -0.2455 -0.1572
  113loPI   C3B 1807  17.172  12.945   9.068 -0.1806 -0.0691 -0.1456
  113loPI   C4B 1808  17.019  12.838   8.665 -0.3474 -0.1408 -0.4126
  114loPI    C1 1809   8.395   4.301  11.289 -0.0011  0.0441 -0.0449
  114loPI    C2 1810   8.425   4.004  11.556 -0.2006 -0.0021 -0.0727
  114loPI    C3 1811   8.267   4.356  11.664  0.1874  0.1536  0.0053
  114loPI   PO4 1812   8.333   4.216  11.058  0.1808  0.2515  0.0796
  114loPI   GL1 1813   8.390   4.440  10.701 -0.1652  0.0868  0.0716
  114loPI   GL2 1814   8.547   4.069  10.597  0.0872 -0.1421 -0.3430
  114loPI   C1A 1815   8.584   4.564  10.311 -0.0770  0.4463 -0.3134
  114loPI   C2A 1816   8.729   4.526   9.861  0.3197 -0.5672 -0.2252
  114loPI   C3A 1817   8.673   4.578   9.420  0.2203  0.0962 -0.0434
  114loPI   C4A 1818   8.677   4.539   8.976  0.1341 -0.0939 -0.1448
  114loPI   C5A 1819   8.856   4.546   8.561 -0.0220  0.1552 -0.2070
  114loPI   C6A 1820   9.271   4.424   8.283 -0.1262 -0.1158 -0.2204
  114loPI   C1B 1821   8.359   4.073  10.136 -0.0589 -0.3847  0.0633
  114loPI   C2B 1822   8.435   4.133   9.669  0.0569 -0.1424 -0.0869
  114loPI   C3B 1823   8.526   4.125   9.251  0.1213  0.1281  0.2858
  114loPI   C4B 1824   8.404   4.035   8.908 -0.0899 -0.0300  0.2945
  115loPI    C1 1825   0.638   9.848  10.961 -0.0331  0.2233  0.1516
  115loPI    C2 1826   1.008   9.705  11.014 -0.1293 -0.0473  0.1135
  115loPI    C3 1827   0.747   9.701  11.317 -0.1847 -0.1081  0.0652
  115loPI   PO4 1828   0.673  10.017  10.803 -0.0592  0.0377  0.2272
  115loPI   GL1 1829   0.879   9.919  10.406 -0.1190  0.2691  0.5434
  115loPI   GL2 1830   0.791   9.592  10.562 -0.0879  0.1327 -0.2589
  115loPI   C1A 1831   0.890  10.068   9.908  0.1643  0.1966 -0.2767
  115loPI   C2A 1832   0.889   9.992   9.415 -0.1761 -0.2992 -0.0845
  115loPI   C3A 1833   0.925  10.052   8.957  0.2523  0.0084 -0.1341
  115loPI   C4A 1834   0.744  10.144   8.511 -0.1945 -0.0536  0.2726
  115loPI   C5A 1835   0.338  10.278   8.359 -0.1847  0.0918  0.0843
  115loPI   C6A 1836  -0.054  10.491   8.296 -0.2849  0.0391 -0.0207
  115loPI   C1B 1837   0.617   9.567  10.070  0.2257 -0.0462 -0.1541
  115loPI   C2B 1838   0.565   9.547   9.678  0.0786  0.0664 -0.2172
  115loPI   C3B 1839   0.663   9.593   9.256  0.0237  0.1484 -0.0305
  115loPI   C4B 1840   0.788   9.571   8.821 -0.0998 -0.1582 -0.1017
  116loPI    C1 1841  17.702  10.289  11.238 -0.1449 -0.0812  0.0445
  116loPI    C2 1842  17.332  10.409  11.147 -0.1589 -0.1312  0.0349
  116loPI    C3 1843  17.471  10.456  11.519 -0.0804  0.1279 -0.0250
  116loPI   PO4 1844  17.729  10.084  11.098 -0.1491  0.2030 -0.0964
  116loPI   GL1 1845  18.057  10.005  10.763 -0.2990  0.0105 -0.0102
  116loPI   GL2 1846  17.763   9.939  10.620  0.0860  0.0027 -0.2566
  116loPI   C1A 1847  18.268   9.986  10.263  0.1873  0.0683 -0.1224
  116loPI   C2A 1848  18.216   9.980   9.842  0.1026 -0.0911 -0.0694
  116loPI   C3A 1849  18.268   9.972   9.399  0.1525  0.2438 -0.0167
  116loPI   C4A 1850  18.291  10.028   8.990 -0.0344  0.0471 -0.1158
  116loPI   C5A 1851  18.255   9.817   8.642 -0.1235  0.2300  0.0840
  116loPI   C6A 1852  18.336   9.429   8.462 -0.1960 -0.1419 -0.0317
  116loPI   C1B 1853  17.768  10.008  10.185  0.0147 -0.0154  0.0223
  116loPI   C2B 1854  17.689   9.873   9.775  0.0892 -0.1987 -0.0060
  116loPI   C3B 1855  17.695   9.952   9.285 -0.1342 -0.4173 -0.0240
  116loPI   C4B 1856  17.619   9.867   8.842 -0.1806  0.1007  0.2263
  117loPI    C1 1857   6.078  17.789  11.023 -0.2428  0.0645 -0.0012
  117loPI    C2 1858   5.965  17.442  10.859  0.0144 -0.0470  0.0517
  117loPI    C3 1859   5.913  17.504  11.251 -0.0091 -0.0349  0.0467
  117loPI   PO4 1860   6.346  17.873  10.801  0.0908 -0.0718 -0.0248
  117loPI   GL1 1861   6.307  17.926  10.437 -0.1888  0.0996  0.2309
  117loPI   GL2 1862   6.201  18.096  10.187 -0.0988 -0.3652  0.0610
  117loPI   C1A 1863   6.326  17.647  10.009 -0.1856  0.0333 -0.0964
  117loPI   C2A 1864   6.457  17.736   9.601  0.1011 -0.1135  0.1317
  117loPI   C3A 1865   6.543  17.752   9.250 -0.0640  0.1154  0.0447
  117loPI   C4A 1866   6.558  17.793   8.835 -0.1186 -0.1113 -0.1848
  117loPI   C5A 1867   6.367  17.789   8.480 -0.1465 -0.1845  0.1073
  117loPI   C6A 1868   6.048  17.838   8.085  0.0664  0.2079 -0.0492
  117loPI   C1B 1869   6.133  18.136   9.679 -0.1109 -0.3057  0.0224
  117loPI   C2B 1870   6.238  18.168   9.242 -0.0401 -0.2119  0.0022
  117loPI   C3B 1871   6.308  18.212   8.791  0.0374  0.1549 -0.0521
  117loPI   C4B 1872   6.236  18.249   8.411 -0.0587 -0.0919  0.2314
  118loPI    C1 1873  11.488  16.556  10.954  0.2498  0.1537 -0.2772
  118loPI    C2 1874  11.826  16.419  11.120  0.0943  0.0299 -0.0569
  118loPI    C3 1875  11.763  16.813  11.088  0.1084  0.0561  0.2206
  118loPI   PO4 1876  11.457  16.516  10.715  0.2809  0.1634  0.1216
  118loPI   GL1 1877  11.273  16.790  10.491  0.0883 -0.2536  0.4141
  118loPI   GL2 1878  11.612  16.974  10.577  0.0215  0.1489 -0.2469
  118loPI   C1A 1879  11.238  17.162  10.289 -0.0976 -0.2409 -0.0838
  118loPI   C2A 1880  11.251  17.273   9.917  0.1717 -0.1401 -0.0375
  118loPI   C3A 1881  11.264  17.399   9.541  0.1122 -0.0394 -0.0532
  118loPI   C4A 1882  11.373  17.342   8.950  0.0428 -0.0844 -0.0348
  118loPI   C5A 1883  11.560  17.343   8.586  0.0841 -0.1280  0.0096
  118loPI   C6A 1884  11.884  17.534   8.382 -0.1428  0.1302  0.0232
  118loPI   C1B 1885  11.715  17.352  10.371  0.0825  0.1576 -0.1447
  118loPI   C2B 1886  11.789  17.440   9.924 -0.0797  0.0062  0.2913
  118loPI   C3B 1887  11.782  17.492   9.438 -0.2145 -0.3308 -0.2550
  118loPI   C4B 1888  11.866  17.524   8.952 -0.0302 -0.0014  0.1425
  119loPI    C1 1889  11.649   7.420  11.053  0.1598 -0.0769 -0.0001
  119loPI    C2 1890  11.501   7.096  11.234 -0.0442 -0.0463 -0.1096
  119loPI    C3 1891  11.666   7.389  11.451 -0.0987 -0.1035  0.0101
  119loPI   PO4 1892  11.508   7.414  10.859  0.1123 -0.0917 -0.1636
  119loPI   GL1 1893  11.805   7.365  10.531  0.0873 -0.4047  0.0728
  119loPI   GL2 1894  11.674   7.699  10.411 -0.2410 -0.1422  0.3171
  119loPI   C1A 1895  11.917   7.310  10.165  0.0133  0.1380  0.1637
  119loPI   C2A 1896  11.915   7.185   9.773  0.1519 -0.1421  0.2406
  119loPI   C3A 1897  11.904   7.209   9.356  0.2056 -0.2459 -0.0571
  119loPI   C4A 1898  11.846   7.194   8.933  0.0583 -0.0385 -0.3866
  119loPI   C5A 1899  11.885   7.310   8.501  0.0136 -0.0134 -0.1906
  119loPI   C6A 1900  12.144   7.017   8.207 -0.1700  0.1429  0.0129
  119loPI   C1B 1901  11.628   7.657   9.977  0.1258 -0.0518 -0.1024
  119loPI   C2B 1902  11.616   7.542   9.554 -0.0649  0.2494  0.0778
  119loPI   C3B 1903  11.594   7.560   9.123  0.2446 -0.1777 -0.1273
  119loPI   C4B 1904  11.550   7.574   8.749 -0.3763  0.2042 -0.1137
  120loPI    C1 1905  12.634  15.448  11.219 -0.0663  0.1156  0.0742
  120loPI    C2 1906  12.351  15.174  11.150  0.1664 -0.1166  0.0232
  120loPI    C3 1907  12.350  15.380  11.493 -0.0299 -0.1559  0.0479
  120loPI   PO4 1908  12.576  15.550  10.917  0.2704 -0.2802  0.2487
  120loPI   GL1 1909  12.649  15.686  10.499  0.0852  0.1267  0.0891
  120loPI   GL2 1910  12.529  15.759  10.271  0.1832 -0.3159 -0.0160
  120loPI   C1A 1911  13.016  15.704  10.165  0.2278 -0.0218  0.1621
  120loPI   C2A 1912  13.032  15.757   9.659  0.0712  0.1715 -0.1800
  120loPI   C3A 1913  13.006  15.800   9.212 -0.2093  0.0443 -0.0670
  120loPI   C4A 1914  12.990  15.838   8.687 -0.1436  0.1671  0.0224
  120loPI   C5A 1915  13.129  15.891   8.363  0.1788 -0.1972 -0.2406
  120loPI   C6A 1916  13.220  16.232   7.915 -0.1692 -0.0365 -0.0280
  120loPI   C1B 1917  12.536  15.746   9.786 -0.0425  0.1690 -0.2934
  120loPI   C2B 1918  12.484  15.672   9.333  0.0352 -0.2893  0.1089
  120loPI   C3B 1919  12.544  15.729   8.888 -0.3287 -0.0126 -0.1091
  120loPI   C4B 1920  12.590  15.723   8.443  0.1747 -0.1005  0.1061
  121loPI    C1 1921   9.727   8.268  10.927  0.0311  0.1347  0.0447
  121loPI    C2 1922   9.957   8.434  11.210 -0.1303  0.1636  0.1607
  121loPI    C3 1923   9.705   8.138  11.305  0.0053 -0.0081 -0.0051
  121loPI   PO4 1924   9.605   8.521  10.799 -0.0695  0.1727  0.3553
  121loPI   GL1 1925   9.739   8.628  10.394  0.1652 -0.2539  0.1118
  121loPI   GL2 1926   9.875   8.340  10.294  0.0667  0.0756 -0.1185
  121loPI   C1A 1927   9.692   8.752   9.875  0.0257  0.0791 -0.1381
  121loPI   C2A 1928   9.660   8.813   9.440 -0.0732 -0.3226 -0.2768
  121loPI   C3A 1929   9.589   8.645   9.032  0.0080 -0.3161  0.1406
  121loPI   C4A 1930   9.563   8.838   8.645 -0.4241  0.0109  0.0359
  121loPI   C5A 1931   9.756   8.880   8.206 -0.0686 -0.2270 -0.2768
  121loPI   C6A 1932  10.114   8.688   7.859 -0.0990 -0.1874 -0.2008
  121loPI   C1B 1933   9.975   8.355   9.818  0.0530  0.2228  0.0336
  121loPI   C2B 1934   9.962   8.254   9.410 -0.1582 -0.3815 -0.2716
  121loPI   C3B 1935   9.907   8.260   9.020 -0.0079 -0.0335 -0.0668
  121loPI   C4B 1936   9.748   8.347   8.658  0.0390 -0.0550 -0.1672
  122loPI    C1 1937  14.232   2.951  11.245 -0.1441 -0.1711  0.2057
  122loPI    C2 1938  14.401   3.130  11.561 -0.0447 -0.1794  0.1575
  122loPI    C3 1939  14.292   2.745  11.583 -0.1637 -0.1425  0.2266
  122loPI   PO4 1940  14.378   2.971  11.049  0.2410  0.2768 -0.2849
  122loPI   GL1 1941  14.253   3.136  10.652  0.0600  0.1449 -0.0265
  122loPI   GL2 1942  14.071   3.388  10.516 -0.1342 -0.2995  0.1097
  122loPI   C1A 1943  14.231   2.932  10.218  0.1465 -0.1574  0.0605
  122loPI   C2A 1944  14.359   2.983   9.761 -0.0787  0.0432 -0.3911
  122loPI   C3A 1945  14.357   3.035   9.293 -0.0662 -0.0626 -0.2289
  122loPI   C4A 1946  14.426   2.920   8.905  0.4896  0.2093  0.1232
  122loPI   C5A 1947  14.423   2.663   8.531 -0.0935  0.1437  0.0616
  122loPI   C6A 1948  14.067   2.448   8.401 -0.1567 -0.0993 -0.1233
  122loPI   C1B 1949  13.959   3.457  10.093  0.1317 -0.0035  0.0719
  122loPI   C2B 1950  14.049   3.413   9.601  0.0867  0.2112 -0.2287
  122loPI   C3B 1951  14.038   3.440   9.202  0.1706  0.0490  0.1448
  122loPI   C4B 1952  14.197   3.379   8.819  0.1455 -0.0370  0.0059
  123loPI    C1 1953   5.859   3.975  11.128 -0.0071 -0.0016  0.1040
  123loPI    C2 1954   6.069   4.144  11.424 -0.0833  0.1356  0.0804
  123loPI    C3 1955   5.747   3.922  11.509  0.0316 -0.0204  0.1128
  123loPI   PO4 1956   6.035   4.012  10.809  0.1214  0.1877 -0.0770
  123loPI   GL1 1957   5.923   4.167  10.376  0.1365  0.0478  0.3489
  123loPI   GL2 1958   5.923   4.440  10.529 -0.4053 -0.1716  0.1003
  123loPI   C1A 1959   6.078   4.254   9.938  0.0399 -0.2202  0.2368
  123loPI   C2A 1960   6.106   4.215   9.584 -0.2087  0.1585  0.2940
  123loPI   C3A 1961   6.124   4.315   9.080 -0.1676 -0.4054 -0.0727
  123loPI   C4A 1962   6.177   4.320   8.624 -0.0480 -0.2910  0.0105
  123loPI   C5A 1963   6.288   4.664   8.391  0.1300 -0.0317  0.1294
  123loPI   C6A 1964   6.567   4.996   8.196  0.2328  0.1312 -0.0464
  123loPI   C1B 1965   5.812   4.709  10.179  0.0885  0.1915  0.1385
  123loPI   C2B 1966   5.776   4.740   9.808 -0.1265  0.2075 -0.0339
  123loPI   C3B 1967   5.822   4.723   9.358  0.0465  0.0565 -0.1418
  123loPI   C4B 1968   5.795   4.730   8.980 -0.0834  0.0408 -0.1451
  124loPI    C1 1969  10.694   9.952  11.202 -0.1315  0.1038  0.0408
  124loPI    C2 1970  10.986   9.757  11.393 -0.2052 -0.1447 -0.0955
  124loPI    C3 1971  10.772  10.036  11.585 -0.0248 -0.1170  0.0687
  124loPI   PO4 1972  10.820   9.937  10.926  0.1110  0.1956 -0.1804
  124loPI   GL1 1973  10.645   9.979  10.493 -0.1187 -0.0762 -0.1701
  124loPI   GL2 1974  10.798  10.276  10.346  0.2127 -0.0526 -0.0101
  124loPI   C1A 1975  10.505   9.708  10.205 -0.0791 -0.1372  0.0843
  124loPI   C2A 1976  10.545   9.774   9.829 -0.0291 -0.2313  0.0095
  124loPI   C3A 1977  10.639   9.728   9.478  0.1189  0.2180  0.0649
  124loPI   C4A 1978  10.625   9.706   9.010 -0.0315  0.1072 -0.1500
  124loPI   C5A 1979  10.562   9.808   8.541 -0.2241  0.1025 -0.0494
  124loPI   C6A 1980  10.220   9.708   8.362  0.1173  0.1325 -0.1207
  124loPI   C1B 1981  10.797  10.210   9.873  0.1213 -0.2185  0.0717
  124loPI   C2B 1982  10.856  10.229   9.455  0.1243  0.0484  0.1737
  124loPI   C3B 1983  10.921  10.227   8.982  0.0269  0.1304 -0.2094
  124loPI   C4B 1984  10.900  10.186   8.573 -0.0391  0.0470 -0.2684
  125loPI    C1 1985   1.966  15.258  10.523 -0.1433  0.0686 -0.0930
  125loPI    C2 1986   2.188  15.134  10.832  0.1363  0.2038 -0.2362
  125loPI    C3 1987   1.937  15.442  10.877  0.1321  0.1848 -0.1286
  125loPI   PO4 1988   1.920  15.094  10.393 -0.0369  0.0317 -0.4062
  125loPI   GL1 1989   1.728  15.336  10.052 -0.0690  0.1494 -0.3142
  125loPI   GL2 1990   1.599  15.656  10.053  0.1147  0.2018  0.1171
  125loPI   C1A 1991   1.506  15.353   9.582 -0.0961  0.0869 -0.0537
  125loPI   C2A 1992   1.385  15.437   9.157 -0.5226  0.4030  0.2021
  125loPI   C3A 1993   1.238  15.388   8.722  0.2168  0.1162  0.0282
  125loPI   C4A 1994   1.424  15.449   8.351 -0.3677  0.0089  0.0263
  125loPI   C5A 1995   1.620  15.373   8.003 -0.2921 -0.2177 -0.1306
  125loPI   C6A 1996   1.574  15.529   7.686 -0.0680  0.0284 -0.1907
  125loPI   C1B 1997   1.708  15.789   9.730 -0.1217 -0.0823  0.5477
  125loPI   C2B 1998   1.719  15.828   9.243  0.0761 -0.1619 -0.0959
  125loPI   C3B 1999   1.545  15.799   8.843  0.0390 -0.1316 -0.4595
  125loPI   C4B 2000   1.644  15.985   8.508 -0.2598 -0.0325 -0.0288
  126loPI    C1 2001   1.560  17.508  10.904  0.0729 -0.1030 -0.0231
  126loPI    C2 2002   1.448  17.362  11.259 -0.1237  0.1654  0.0284
  126loPI    C3 2003   1.349  17.169  10.923 -0.1454  0.0380  0.1074
  126loPI   PO4 2004   1.482  17.749  10.913 -0.0716  0.0849  0.0162
  126loPI   GL1 2005   1.531  18.085  10.701 -0.2010  0.1144  0.0330
  126loPI   GL2 2006   1.841  18.103  10.406  0.1009  0.1996 -0.0517
  126loPI   C1A 2007   1.335  18.074  10.209 -0.3439  0.2254  0.1538
  126loPI   C2A 2008   1.219  18.087   9.739 -0.2488  0.0789 -0.2437
  126loPI   C3A 2009   1.167  18.032   9.292  0.1791  0.0779 -0.1652
  126loPI   C4A 2010   1.127  18.043   8.834  0.5494 -0.0386  0.0229
  126loPI   C5A 2011   1.435  17.907   8.495  0.2259 -0.3094 -0.0601
  126loPI   C6A 2012   1.781  17.639   8.323 -0.0640 -0.0681 -0.0698
  126loPI   C1B 2013   1.736  18.192   9.951 -0.2063  0.3993  0.2034
  126loPI   C2B 2014   1.682  18.012   9.530 -0.1968 -0.1809 -0.1390
  126loPI   C3B 2015   1.674  18.064   9.090  0.0156 -0.1903  0.0200
  126loPI   C4B 2016   1.861  18.101   8.662 -0.1730 -0.0157  0.0516
  127loPI    C1 2017   7.235  11.362  10.843 -0.0654  0.2886 -0.0603
  127loPI    C2 2018   7.519  11.634  10.917  0.2385  0.0145 -0.1916
  127loPI    C3 2019   7.426  11.362  11.195  0.0122  0.1810 -0.1016
  127loPI   PO4 2020   7.300  11.266  10.634 -0.2047 -0.2748  0.0270
  127loPI   GL1 2021   7.493  11.360  10.217  0.1990  0.0408  0.0647
  127loPI   GL2 2022   7.792  11.390  10.111 -0.0162  0.0234  0.0564
  127loPI   C1A 2023   7.175  11.322   9.904  0.0712 -0.2470 -0.4589
  127loPI   C2A 2024   7.222  11.290   9.503  0.2129 -0.0761  0.2845
  127loPI   C3A 2025   7.359  11.210   9.183 -0.2354 -0.2428 -0.1852
  127loPI   C4A 2026   7.342  11.256   8.681  0.0459  0.2115  0.0223
  127loPI   C5A 2027   7.349  11.447   8.256  0.0682 -0.2852  0.0903
  127loPI   C6A 2028   7.347  11.600   7.826  0.3154 -0.2481 -0.2756
  127loPI   C1B 2029   7.715  11.339   9.681  0.1401  0.2139  0.1508
  127loPI   C2B 2030   7.804  11.275   9.260  0.1769 -0.1467 -0.0124
  127loPI   C3B 2031   7.901  11.294   8.835 -0.1772  0.0104 -0.0946
  127loPI   C4B 2032   7.859  11.225   8.407  0.1506 -0.0688  0.2145
  128loPI    C1 2033  12.640   2.984  11.045  0.1262  0.1500  0.0108
  128loPI    C2 2034  12.704   2.662  11.275  0.2255  0.1186 -0.0604
  128loPI    C3 2035  12.622   3.015  11.444  0.0085  0.0336  0.0156
  128loPI   PO4 2036  12.405   2.926  10.913 -0.2700 -0.1970  0.1112
  128loPI   GL1 2037  12.294   3.263  10.601 -0.4206  0.0507 -0.2864
  128loPI   GL2 2038  12.059   3.213  10.644 -0.1663 -0.0113  0.0444
  128loPI   C1A 2039  12.358   3.237  10.212 -0.1149  0.0589  0.1719
  128loPI   C2A 2040  12.440   3.200   9.785 -0.0003  0.1469  0.0446
  128loPI   C3A 2041  12.360   3.223   9.339 -0.0428 -0.1837 -0.3948
  128loPI   C4A 2042  12.541   3.269   8.963  0.0258  0.1195 -0.0935
  128loPI   C5A 2043  12.277   3.169   8.609  0.3686  0.0439  0.1022
  128loPI   C6A 2044  11.893   3.115   8.419 -0.2880  0.2827 -0.0981
  128loPI   C1B 2045  11.871   3.249  10.244  0.1763 -0.1863  0.0559
  128loPI   C2B 2046  11.876   3.154   9.828 -0.1426 -0.1504 -0.2652
  128loPI   C3B 2047  11.865   3.150   9.373 -0.1544  0.0605  0.1086
  128loPI   C4B 2048  11.944   3.224   8.964 -0.0389 -0.1648 -0.2276
  129loPI    C1 2049  12.086  11.594  11.287 -0.0488 -0.1575  0.0634
  129loPI    C2 2050  11.694  11.600  11.208 -0.0609  0.0678  0.1358
  129loPI    C3 2051  11.822  11.591  11.587  0.0035 -0.2037  0.1092
  129loPI   PO4 2052  12.147  11.767  11.060 -0.0043  0.1207 -0.1405
  129loPI   GL1 2053  12.149  11.674  10.590 -0.1007  0.3432  0.1013
  129loPI   GL2 2054  11.923  11.709  10.495  0.0001  0.2935  0.0314
  129loPI   C1A 2055  12.397  11.695  10.256 -0.1795  0.1468 -0.2667
  129loPI   C2A 2056  12.425  11.765   9.820 -0.0789  0.0118 -0.1797
  129loPI   C3A 2057  12.453  11.722   9.373 -0.1463  0.0970  0.0287
  129loPI   C4A 2058  12.614  11.761   8.954  0.3053  0.2603  0.1507
  129loPI   C5A 2059  12.783  11.570   8.585  0.0858  0.4395  0.0810
  129loPI   C6A 2060  13.077  11.311   8.451 -0.3322 -0.0110 -0.0279
  129loPI   C1B 2061  11.862  11.726  10.041  0.1477  0.2549 -0.2586
  129loPI   C2B 2062  11.979  11.619   9.604  0.2095 -0.0749 -0.1305
  129loPI   C3B 2063  12.017  11.630   9.154  0.1264 -0.1364  0.2852
  129loPI   C4B 2064  12.057  11.725   8.700 -0.0365 -0.2453  0.1461
  130loPI    C1 2065  16.764  10.448  11.154 -0.1560 -0.0140  0.0510
  130loPI    C2 2066  16.700  10.325  11.529  0.3248 -0.0638  0.1233
  130loPI    C3 2067  16.994  10.585  11.452  0.2837 -0.1178 -0.2312
  130loPI   PO4 2068  16.560  10.301  10.968  0.1180  0.0647  0.3634
  130loPI   GL1 2069  16.770  10.206  10.551 -0.1221 -0.1912  0.0082
  130loPI   GL2 2070  16.907  10.313  10.428  0.0158  0.1498 -0.0394
  130loPI   C1A 2071  16.613   9.904  10.223  0.0977  0.1957 -0.2436
  130loPI   C2A 2072  16.710   9.874   9.835  0.0559  0.1493  0.1400
  130loPI   C3A 2073  16.684   9.839   9.436  0.0583 -0.2952 -0.0253
  130loPI   C4A 2074  16.690   9.912   8.939  0.0413  0.0631 -0.3538
  130loPI   C5A 2075  16.679   9.845   8.569 -0.3653  0.0521 -0.0078
  130loPI   C6A 2076  16.899   9.532   8.281  0.1793 -0.0659  0.0041
  130loPI   C1B 2077  16.866  10.320  10.023 -0.0128  0.0861  0.2909
  130loPI   C2B 2078  16.856  10.312   9.588  0.1665 -0.2362  0.1242
  130loPI   C3B 2079  16.919  10.357   9.181  0.3916  0.0192  0.1861
  130loPI   C4B 2080  17.026  10.267   8.782 -0.1263 -0.0295 -0.0743
  131loPI    C1 2081   0.741  11.805  11.236  0.0015  0.0630 -0.0120
  131loPI    C2 2082   0.660  11.531  11.515 -0.0223  0.0852  0.0030
  131loPI    C3 2083   0.449  11.870  11.501  0.1784  0.2190  0.1489
  131loPI   PO4 2084   0.749  11.723  10.993  0.0457 -0.0476  0.2202
  131loPI   GL1 2085   0.468  11.747  10.650 -0.1388  0.1309  0.1173
  131loPI   GL2 2086   0.540  11.460  10.577 -0.0275 -0.1952 -0.2863
  131loPI   C1A 2087   0.727  11.778  10.254 -0.0605  0.0544 -0.0034
  131loPI   C2A 2088   0.748  11.736   9.852  0.1183 -0.0548  0.0024
  131loPI   C3A 2089   0.707  11.797   9.456 -0.4291  0.1008  0.1678
  131loPI   C4A 2090   0.692  11.818   9.025  0.0925  0.1647 -0.2425
  131loPI   C5A 2091   0.777  11.731   8.597  0.1010 -0.2695 -0.0600
  131loPI   C6A 2092   0.704  11.992   8.236 -0.2291  0.1295 -0.1003
  131loPI   C1B 2093   0.457  11.340  10.103  0.1894  0.0692 -0.1220
  131loPI   C2B 2094   0.472  11.281   9.727  0.1789  0.0413 -0.1162
  131loPI   C3B 2095   0.479  11.257   9.324 -0.0858  0.3483 -0.1722
  131loPI   C4B 2096   0.539  11.283   8.848 -0.1141  0.0907 -0.3215
  132loPI    C1 2097  11.076   4.008  11.080 -0.0534  0.1124 -0.0152
  132loPI    C2 2098  11.368   3.770  10.946 -0.0832  0.0768 -0.0169
  132loPI    C3 2099  11.369   3.894  11.327 -0.0272  0.1352 -0.0360
  132loPI   PO4 2100  10.951   4.035  10.899  0.0406 -0.1118  0.3280
  132loPI   GL1 2101  11.098   3.923  10.559 -0.0157 -0.1580  0.0835
  132loPI   GL2 2102  10.992   4.213  10.350 -0.0561 -0.0575 -0.0602
  132loPI   C1A 2103  11.277   3.947  10.057 -0.0920 -0.0471  0.1339
  132loPI   C2A 2104  11.244   3.958   9.611  0.2677  0.1461 -0.0069
  132loPI   C3A 2105  11.312   3.992   9.191 -0.0095  0.1637 -0.2151
  132loPI   C4A 2106  11.438   3.999   8.842  0.0788 -0.1859 -0.1034
  132loPI   C5A 2107  11.313   3.925   8.378 -0.0421 -0.3272 -0.2380
  132loPI   C6A 2108  10.987   4.221   8.198  0.1368 -0.1656  0.1098
  132loPI   C1B 2109  10.967   4.328   9.932  0.1269  0.0483 -0.4052
  132loPI   C2B 2110  10.910   4.342   9.486  0.1097 -0.1539 -0.1136
  132loPI   C3B 2111  11.012   4.420   9.107 -0.1086  0.0783 -0.1911
  132loPI   C4B 2112  11.076   4.271   8.694  0.2200 -0.0698  0.0935
  133loPI    C1 2113  11.086   5.032  11.034 -0.1704 -0.1224  0.0350
  133loPI    C2 2114  10.911   5.053  11.393  0.0412  0.1138  0.1279
  133loPI    C3 2115  11.270   4.882  11.356  0.0734  0.1973  0.0499
  133loPI   PO4 2116  10.974   5.111  10.888  0.0658  0.1915 -0.0122
  133loPI   GL1 2117  10.916   5.300  10.464 -0.0414  0.4338  0.0554
  133loPI   GL2 2118  10.739   5.058  10.467 -0.1532  0.1770 -0.3977
  133loPI   C1A 2119  10.929   5.224   9.921  0.2389  0.1210 -0.1312
  133loPI   C2A 2120  10.973   5.286   9.479 -0.0187  0.2104  0.0431
  133loPI   C3A 2121  10.944   5.341   9.053  0.0498 -0.1282 -0.1410
  133loPI   C4A 2122  10.899   5.372   8.563 -0.1235 -0.2363 -0.2371
  133loPI   C5A 2123  11.035   5.204   8.215  0.3034  0.0259  0.2128
  133loPI   C6A 2124  11.313   5.539   7.985  0.1619  0.3083  0.3382
  133loPI   C1B 2125  10.463   5.281  10.039 -0.1127  0.2958  0.1046
  133loPI   C2B 2126  10.463   5.324   9.601  0.0237 -0.0445 -0.0270
  133loPI   C3B 2127  10.475   5.295   9.126 -0.0082 -0.0357 -0.3660
  133loPI   C4B 2128  10.457   5.325   8.700  0.0128 -0.0120  0.2691
  134loPI    C1 2129   0.108   0.213  11.130 -0.0584 -0.0245  0.1692
  134loPI    C2 2130   0.429   0.097  11.338 -0.0152  0.0022  0.1178
  134loPI    C3 2131   0.204   0.400  11.470 -0.1056 -0.1134  0.2320
  134loPI   PO4 2132   0.196   0.306  10.873  0.0127  0.1571  0.0553
  134loPI   GL1 2133   0.521   0.166  10.520  0.2386 -0.2540  0.1088
  134loPI   GL2 2134   0.240   0.438  10.369 -0.0404 -0.0068  0.1285
  134loPI   C1A 2135   0.641   0.182  10.065  0.1077 -0.1428  0.1525
  134loPI   C2A 2136   0.733   0.235   9.573 -0.2187 -0.1567  0.2099
  134loPI   C3A 2137   0.659   0.269   9.058 -0.2751 -0.0612 -0.4160
  134loPI   C4A 2138   0.671   0.159   8.648  0.0615  0.0710 -0.2525
  134loPI   C5A 2139   0.835   0.229   8.202  0.0783 -0.0418 -0.1508
  134loPI   C6A 2140   0.669  -0.176   8.010 -0.1606  0.2036  0.1584
  134loPI   C1B 2141   0.353   0.553   9.961 -0.0845  0.2005 -0.2719
  134loPI   C2B 2142   0.370   0.553   9.454 -0.1323 -0.0529 -0.3844
  134loPI   C3B 2143   0.275   0.548   9.038 -0.1314 -0.0128 -0.0099
  134loPI   C4B 2144   0.400   0.602   8.624 -0.1102 -0.1185 -0.1990
  135loPI    C1 2145  10.606  12.823  10.688  0.0756 -0.0526  0.0376
  135loPI    C2 2146  10.296  12.640  10.863  0.2465 -0.1699  0.2229
  135loPI    C3 2147  10.233  12.948  10.615 -0.0361 -0.3909  0.0126
  135loPI   PO4 2148  10.715  12.562  10.595 -0.0290 -0.1438 -0.0884
  135loPI   GL1 2149  10.915  12.416  10.228  0.2621  0.0018 -0.0711
  135loPI   GL2 2150  11.076  11.996  10.098  0.4084 -0.0433 -0.3084
  135loPI   C1A 2151  10.843  12.448   9.789  0.1218 -0.2022 -0.1289
  135loPI   C2A 2152  10.941  12.405   9.291 -0.2083 -0.1519 -0.0190
  135loPI   C3A 2153  10.914  12.475   8.817 -0.1208  0.2749  0.2705
  135loPI   C4A 2154  10.898  12.349   8.428 -0.0016  0.0390 -0.1301
  135loPI   C5A 2155  10.810  12.149   8.024 -0.1357 -0.1457 -0.0017
  135loPI   C6A 2156  10.906  11.741   7.919  0.0943  0.1697 -0.0393
  135loPI   C1B 2157  11.183  12.009   9.665  0.0432 -0.3954 -0.4353
  135loPI   C2B 2158  11.203  11.993   9.175  0.1377  0.7339  0.1526
  135loPI   C3B 2159  11.246  12.091   8.710 -0.1278  0.0441 -0.0784
  135loPI   C4B 2160  11.283  11.879   8.286 -0.2789  0.0894 -0.2048
  136loPI    C1 2161   4.968  15.735  10.433 -0.3553  0.2086  0.1244
  136loPI    C2 2162   5.285  15.922  10.591 -0.0603 -0.1405 -0.0407
  136loPI    C3 2163   5.050  15.695  10.823 -0.1207  0.0199  0.0573
  136loPI   PO4 2164   4.947  15.998  10.178  0.1097  0.1646  0.2120
  136loPI   GL1 2165   4.935  16.390   9.961 -0.1237 -0.1318 -0.4147
  136loPI   GL2 2166   4.701  16.219   9.730  0.1573 -0.3917  0.1576
  136loPI   C1A 2167   5.223  16.509   9.616  0.1375 -0.1533 -0.0566
  136loPI   C2A 2168   5.078  16.595   9.233 -0.2665 -0.1196  0.1624
  136loPI   C3A 2169   5.035  16.730   8.838 -0.2168  0.1481  0.0299
  136loPI   C4A 2170   4.899  16.725   8.373 -0.1167  0.1961 -0.0109
  136loPI   C5A 2171   4.862  16.757   7.937 -0.1540  0.1981 -0.0928
  136loPI   C6A 2172   4.620  17.132   7.754 -0.0774 -0.0466  0.0127
  136loPI   C1B 2173   4.755  16.240   9.268  0.0630 -0.3522  0.0458
  136loPI   C2B 2174   4.730  16.211   8.898  0.3431 -0.0952 -0.1972
  136loPI   C3B 2175   4.970  16.255   8.540  0.2321  0.0003 -0.0589
  136loPI   C4B 2176   5.057  16.307   8.160  0.3267  0.3341  0.2687
  137loPI    C1 2177  14.669  14.706  11.040  0.0026  0.0671 -0.1759
  137loPI    C2 2178  14.479  15.027  11.186  0.1663  0.0794  0.0144
  137loPI    C3 2179  14.722  14.814  11.421  0.0686 -0.1784 -0.1144
  137loPI   PO4 2180  14.541  14.704  10.794  0.0734 -0.1973 -0.1133
  137loPI   GL1 2181  14.743  14.776  10.373 -0.1084  0.2508 -0.0876
  137loPI   GL2 2182  14.913  14.555  10.284 -0.1894  0.3032 -0.2392
  137loPI   C1A 2183  14.616  14.962  10.027  0.1617 -0.0069  0.2342
  137loPI   C2A 2184  14.629  14.920   9.553 -0.0158  0.1483 -0.0049
  137loPI   C3A 2185  14.634  14.974   9.081 -0.3746 -0.0843 -0.1209
  137loPI   C4A 2186  14.534  15.010   8.721  0.1149 -0.1096  0.0640
  137loPI   C5A 2187  14.254  15.282   8.438 -0.0994  0.1601 -0.1099
  137loPI   C6A 2188  13.908  15.093   8.224 -0.1067 -0.2395  0.0012
  137loPI   C1B 2189  14.913  14.587   9.827  0.0475 -0.0585  0.0258
  137loPI   C2B 2190  14.896  14.536   9.361 -0.0661 -0.2581 -0.2894
  137loPI   C3B 2191  14.942  14.618   8.892  0.2757 -0.1729 -0.3468
  137loPI   C4B 2192  14.837  14.668   8.484 -0.0171  0.0065 -0.2370
  138loPI    C1 2193   1.462  15.195  10.644 -0.1054  0.0771 -0.0153
  138loPI    C2 2194   1.316  14.900  10.872  0.0450  0.0040 -0.0126
  138loPI    C3 2195   1.707  14.984  10.879  0.0741 -0.0870 -0.3423
  138loPI   PO4 2196   1.372  15.124  10.352 -0.5066  0.0672 -0.1080
  138loPI   GL1 2197   1.236  15.269  10.070 -0.0670  0.0057 -0.0547
  138loPI   GL2 2198   0.963  15.262  10.062  0.0067 -0.0921 -0.0571
  138loPI   C1A 2199   1.245  14.977   9.716  0.0505  0.3612  0.1122
  138loPI   C2A 2200   1.161  14.987   9.246  0.3138 -0.1941  0.0522
  138loPI   C3A 2201   1.039  14.895   8.849  0.1601  0.0132 -0.0444
  138loPI   C4A 2202   0.890  15.008   8.400  0.0281 -0.0302  0.0960
  138loPI   C5A 2203   1.124  14.986   8.008 -0.0801 -0.0133 -0.2573
  138loPI   C6A 2204   0.956  14.750   7.635 -0.1043  0.0112 -0.1046
  138loPI   C1B 2205   0.907  15.322   9.576 -0.0530 -0.0297  0.1636
  138loPI   C2B 2206   0.861  15.365   9.233  0.0884  0.2169  0.2421
  138loPI   C3B 2207   0.738  15.358   8.866 -0.2701  0.3114  0.1430
  138loPI   C4B 2208   0.972  15.529   8.354 -0.4563 -0.3912  0.4549
  139loPI    C1 2209   6.159  16.212  10.578  0.3461 -0.1024 -0.0237
  139loPI    C2 2210   6.366  16.202  10.919  0.2071  0.0166  0.0653
  139loPI    C3 2211   6.097  16.492  10.857  0.2554  0.0148 -0.1595
  139loPI   PO4 2212   6.358  16.265  10.350  0.0524  0.1694  0.1318
  139loPI   GL1 2213   6.561  16.366  10.018 -0.0590  0.0662  0.0769
  139loPI   GL2 2214   6.625  16.754   9.978 -0.1401  0.1337 -0.1095
  139loPI   C1A 2215   6.672  16.272   9.669  0.0223  0.2683 -0.3309
  139loPI   C2A 2216   6.677  16.290   9.262 -0.1217 -0.0358  0.1108
  139loPI   C3A 2217   6.602  16.389   8.857 -0.0433  0.1882  0.1322
  139loPI   C4A 2218   6.816  16.408   8.383  0.3529 -0.3766  0.1461
  139loPI   C5A 2219   7.274  16.353   8.230  0.1238 -0.0597  0.0849
  139loPI   C6A 2220   7.640  16.568   8.067 -0.1268 -0.0656  0.1146
  139loPI   C1B 2221   6.639  16.755   9.487  0.1135 -0.0372  0.0007
  139loPI   C2B 2222   6.742  16.819   9.148  0.1966  0.0000 -0.1493
  139loPI   C3B 2223   6.782  16.812   8.736 -0.1449 -0.1743 -0.1627
  139loPI   C4B 2224   7.085  17.005   8.467  0.0966  0.1110  0.2018
  140loPI    C1 2225  14.941  17.380  11.117 -0.1825 -0.1018 -0.0741
  140loPI    C2 2226  15.318  17.285  11.214 -0.2044  0.0142  0.1278
  140loPI    C3 2227  15.041  17.326  11.500 -0.3149  0.1705  0.0011
  140loPI   PO4 2228  14.965  17.306  10.857  0.0205 -0.1119  0.0804
  140loPI   GL1 2229  14.849  17.430  10.597  0.0707  0.0008 -0.1548
  140loPI   GL2 2230  14.691  17.160  10.380  0.1662 -0.0284 -0.1268
  140loPI   C1A 2231  14.918  17.685  10.209 -0.2390 -0.0000 -0.3254
  140loPI   C2A 2232  14.850  17.755   9.819 -0.0050 -0.2179 -0.2372
  140loPI   C3A 2233  14.865  17.776   9.365  0.3319 -0.0074  0.1700
  140loPI   C4A 2234  14.859  17.631   8.980 -0.1139  0.0141 -0.2715
  140loPI   C5A 2235  14.995  17.725   8.551 -0.1343  0.1301 -0.1715
  140loPI   C6A 2236  14.970  17.671   8.108  0.1790 -0.0967 -0.0174
  140loPI   C1B 2237  14.641  17.166  10.001 -0.1417 -0.5804  0.0019
  140loPI   C2B 2238  14.658  17.200   9.609  0.0329  0.0798 -0.2715
  140loPI   C3B 2239  14.614  17.256   9.236 -0.4246  0.0569 -0.2274
  140loPI   C4B 2240  14.728  17.188   8.807  0.1235  0.1030  0.1430
  141loPI    C1 2241  14.031   5.429  11.264 -0.1817 -0.1242  0.0297
  141loPI    C2 2242  14.065   5.817  11.354  0.2397 -0.1225 -0.1146
  141loPI    C3 2243  13.992   5.551  11.643 -0.0283  0.0590 -0.0114
  141loPI   PO4 2244  14.189   5.365  11.063 -0.0125 -0.2334  0.1600
  141loPI   GL1 2245  14.047   5.219  10.591 -0.0977 -0.0688 -0.0042
  141loPI   GL2 2246  13.765   5.157  10.452 -0.1479  0.1543  0.2413
  141loPI   C1A 2247  14.130   5.537  10.193  0.0369 -0.2449 -0.2434
  141loPI   C2A 2248  14.132   5.548   9.759  0.2320 -0.0381  0.1942
  141loPI   C3A 2249  14.158   5.573   9.319  0.3085 -0.5475  0.1791
  141loPI   C4A 2250  14.083   5.620   8.865  0.0646  0.3156 -0.0297
  141loPI   C5A 2251  14.253   5.472   8.509  0.1110 -0.0470  0.2307
  141loPI   C6A 2252  14.159   5.380   8.115 -0.4313 -0.3191  0.5115
  141loPI   C1B 2253  13.947   5.091   9.976 -0.0600  0.3976  0.0190
  141loPI   C2B 2254  13.989   5.101   9.512 -0.0604  0.2641  0.3347
  141loPI   C3B 2255  14.013   5.163   9.075  0.3771  0.1629 -0.0952
  141loPI   C4B 2256  13.845   5.232   8.602  0.0801 -0.0185 -0.0361
  142loPI    C1 2257  15.144  13.745  11.097  0.0040 -0.0730 -0.0185
  142loPI    C2 2258  14.830  13.946  11.243  0.0374  0.0715 -0.1436
  142loPI    C3 2259  14.823  13.547  11.228 -0.0222  0.0613  0.1240
  142loPI   PO4 2260  15.172  13.852  10.915  0.0110  0.2986 -0.0637
  142loPI   GL1 2261  15.159  13.784  10.537  0.2403  0.0496  0.0655
  142loPI   GL2 2262  15.197  14.124  10.407 -0.0086  0.0893 -0.0323
  142loPI   C1A 2263  14.875  13.715  10.141 -0.0178  0.0943 -0.0070
  142loPI   C2A 2264  14.907  13.773   9.755 -0.0559 -0.2047  0.5017
  142loPI   C3A 2265  14.913  13.763   9.341  0.0003 -0.4543 -0.0171
  142loPI   C4A 2266  14.850  13.685   8.988 -0.0305 -0.2587 -0.3158
  142loPI   C5A 2267  14.968  13.717   8.542  0.0578  0.0068 -0.0591
  142loPI   C6A 2268  14.924  13.481   8.102  0.2482  0.0889 -0.0627
  142loPI   C1B 2269  15.147  14.139   9.978 -0.1855 -0.1936 -0.1653
  142loPI   C2B 2270  15.187  14.165   9.567 -0.1375  0.5564  0.1302
  142loPI   C3B 2271  15.126  14.134   9.161  0.2713  0.1645  0.1078
  142loPI   C4B 2272  15.186  14.178   8.804  0.0538  0.3366 -0.2062
  143loPI    C1 2273   6.708   2.996  11.169 -0.1856 -0.0406 -0.1525
  143loPI    C2 2274   6.473   3.270  10.998 -0.2147  0.0313  0.0010
  143loPI    C3 2275   6.504   3.254  11.397 -0.0388 -0.0443 -0.0150
  143loPI   PO4 2276   6.900   3.036  11.023  0.4479 -0.1887 -0.0786
  143loPI   GL1 2277   6.932   3.254  10.633  0.3532  0.2312 -0.2979
  143loPI   GL2 2278   7.168   3.364  10.538 -0.0126  0.0470 -0.2279
  143loPI   C1A 2279   6.697   3.321  10.203  0.0254 -0.2414  0.0497
  143loPI   C2A 2280   6.695   3.479   9.852 -0.0678 -0.0305  0.1258
  143loPI   C3A 2281   6.706   3.507   9.437 -0.5793 -0.0062  0.0443
  143loPI   C4A 2282   6.740   3.514   8.943  0.1928  0.1456  0.0851
  143loPI   C5A 2283   6.759   3.567   8.626  0.1210  0.1644 -0.0546
  143loPI   C6A 2284   6.402   3.792   8.310 -0.0991 -0.1486 -0.1060
  143loPI   C1B 2285   7.160   3.425  10.086 -0.3745 -0.1014  0.2512
  143loPI   C2B 2286   7.200   3.458   9.671 -0.2279 -0.1287  0.0344
  143loPI   C3B 2287   7.297   3.557   9.246  0.2325 -0.0278 -0.0949
  143loPI   C4B 2288   7.251   3.501   8.811 -0.0170 -0.3225  0.0596
  144loPI    C1 2289   0.274  14.694  10.680  0.2963  0.0339 -0.0423
  144loPI    C2 2290   0.279  14.876  11.036  0.0968 -0.0430  0.0012
  144loPI    C3 2291   0.415  15.067  10.712 -0.0875  0.1764  0.0503
  144loPI   PO4 2292   0.086  14.652  10.578 -0.2268  0.1619  0.0045
  144loPI   GL1 2293  -0.324  14.549  10.382 -0.0031 -0.0950 -0.2996
  144loPI   GL2 2294  -0.323  14.880  10.195  0.1881  0.0695 -0.2691
  144loPI   C1A 2295  -0.210  14.469   9.994 -0.1247 -0.3541  0.1038
  144loPI   C2A 2296  -0.199  14.358   9.516  0.1935  0.1366 -0.4526
  144loPI   C3A 2297  -0.231  14.416   9.134 -0.0425  0.0087  0.1426
  144loPI   C4A 2298  -0.149  14.313   8.663  0.1274 -0.0353  0.2405
  144loPI   C5A 2299  -0.054  14.547   8.361 -0.1376  0.0938  0.0075
  144loPI   C6A 2300   0.299  14.796   8.277  0.1260 -0.2544 -0.4329
  144loPI   C1B 2301  -0.491  14.858   9.797 -0.0602  0.0474  0.0679
  144loPI   C2B 2302  -0.548  14.794   9.361  0.0461  0.1588  0.1846
  144loPI   C3B 2303  -0.470  14.840   9.005 -0.1429  0.0236 -0.3514
  144loPI   C4B 2304  -0.462  14.732   8.611 -0.2246  0.0683  0.0382
  145loPI    C1 2305  13.082  10.704  11.302  0.1029  0.2994 -0.1137
  145loPI    C2 2306  13.370  10.703  11.580 -0.0001  0.0696 -0.0058
  145loPI    C3 2307  12.989  10.763  11.686 -0.0585 -0.1638 -0.0756
  145loPI   PO4 2308  13.297  10.630  11.013  0.2008  0.2890 -0.1152
  145loPI   GL1 2309  13.563  10.646  10.651 -0.2153 -0.1374  0.2509
  145loPI   GL2 2310  13.647  10.949  10.484 -0.2614  0.5640 -0.3895
  145loPI   C1A 2311  13.290  10.536  10.303 -0.0568 -0.4180  0.0977
  145loPI   C2A 2312  13.291  10.470   9.924  0.1462 -0.0428 -0.0399
  145loPI   C3A 2313  13.444  10.427   9.544 -0.0559 -0.0473 -0.0759
  145loPI   C4A 2314  13.512  10.402   9.192 -0.0390  0.1844  0.1519
  145loPI   C5A 2315  13.403  10.407   8.788 -0.0530  0.0042 -0.1032
  145loPI   C6A 2316  13.360  10.286   8.325  0.1960 -0.0714  0.0098
  145loPI   C1B 2317  13.467  10.972  10.143  0.0483 -0.2742  0.2351
  145loPI   C2B 2318  13.565  10.908   9.730 -0.1738 -0.0854  0.0433
  145loPI   C3B 2319  13.624  10.847   9.344 -0.0593  0.1390  0.3415
  145loPI   C4B 2320  13.664  10.885   8.869  0.0144  0.1760  0.0678
  146loPI    C1 2321  10.043   2.067  11.145 -0.1785 -0.0269  0.1856
  146loPI    C2 2322  10.247   2.075  11.489 -0.0096 -0.0166  0.0861
  146loPI    C3 2323  10.042   1.748  11.386  0.0450 -0.0668  0.1361
  146loPI   PO4 2324  10.152   2.117  10.978  0.0356 -0.0478  0.1148
  146loPI   GL1 2325  10.290   2.006  10.543 -0.2023 -0.1547  0.1737
  146loPI   GL2 2326   9.972   1.934  10.400  0.1892 -0.0995 -0.1146
  146loPI   C1A 2327  10.506   2.029  10.192 -0.0545 -0.3532  0.0251
  146loPI   C2A 2328  10.441   1.964   9.770 -0.0899  0.2816 -0.3588
  146loPI   C3A 2329  10.506   2.090   9.267 -0.2422  0.0542  0.0868
  146loPI   C4A 2330  10.543   2.122   8.796 -0.1727  0.1034  0.0076
  146loPI   C5A 2331  10.482   1.871   8.563  0.0544 -0.1535  0.2286
  146loPI   C6A 2332  10.304   1.611   8.202  0.1367  0.0112 -0.2677
  146loPI   C1B 2333   9.972   1.982   9.961 -0.0506  0.0226 -0.1479
  146loPI   C2B 2334   9.971   2.049   9.510  0.2985 -0.0178  0.1135
  146loPI   C3B 2335  10.036   2.056   8.986 -0.0547  0.0294  0.2458
  146loPI   C4B 2336   9.945   2.104   8.577  0.1328 -0.0073 -0.1211
  147loPI    C1 2337  15.866   6.501  11.238 -0.0863 -0.1519  0.2290
  147loPI    C2 2338  16.107   6.630  11.531  0.0535  0.1271 -0.0040
  147loPI    C3 2339  15.742   6.788  11.489 -0.0349 -0.0396  0.1269
  147loPI   PO4 2340  16.031   6.483  11.066 -0.0488  0.0327  0.1171
  147loPI   GL1 2341  16.262   6.555  10.658  0.1198  0.0908 -0.0073
  147loPI   GL2 2342  16.062   6.297  10.602 -0.3061  0.0728 -0.2339
  147loPI   C1A 2343  16.197   6.587  10.278  0.2747 -0.0353  0.0631
  147loPI   C2A 2344  16.189   6.636   9.798 -0.3645  0.1270  0.0388
  147loPI   C3A 2345  16.128   6.712   9.376 -0.2682  0.0939 -0.1480
  147loPI   C4A 2346  16.279   6.687   8.944  0.0935 -0.1054 -0.2612
  147loPI   C5A 2347  16.296   6.670   8.513 -0.0256  0.0923  0.0043
  147loPI   C6A 2348  16.125   6.337   8.136  0.1089 -0.0071  0.1595
  147loPI   C1B 2349  15.971   6.110  10.153  0.0423  0.1457  0.0090
  147loPI   C2B 2350  15.988   6.143   9.717 -0.2132  0.0185  0.2072
  147loPI   C3B 2351  16.047   6.240   9.326 -0.1071  0.3797  0.0952
  147loPI   C4B 2352  15.918   6.192   8.936 -0.0871  0.1868  0.0923
  148loPI    C1 2353   2.365  10.751  11.050  0.2692  0.0535  0.1871
  148loPI    C2 2354   2.074  10.751  11.325  0.1655 -0.1533  0.0800
  148loPI    C3 2355   2.389  10.995  11.366 -0.0457  0.1085  0.1717
  148loPI   PO4 2356   2.139  10.634  10.818 -0.0064 -0.0088  0.0636
  148loPI   GL1 2357   1.847  10.690  10.537  0.2787  0.0013  0.1140
  148loPI   GL2 2358   1.585  10.368  10.628 -0.0815 -0.0001  0.0258
  148loPI   C1A 2359   2.090  10.596  10.118  0.2505 -0.2224 -0.0321
  148loPI   C2A 2360   2.128  10.565   9.686  0.1459 -0.1535 -0.0030
  148loPI   C3A 2361   2.122  10.640   9.266  0.1542  0.1488  0.1035
  148loPI   C4A 2362   2.128  10.545   8.852 -0.1556  0.2449 -0.1208
  148loPI   C5A 2363   2.274  10.515   8.467  0.3047 -0.0453 -0.2477
  148loPI   C6A 2364   2.137  10.789   8.205  0.0142 -0.3834 -0.3992
  148loPI   C1B 2365   1.584  10.574  10.139  0.1960  0.0148 -0.0056
  148loPI   C2B 2366   1.638  10.555   9.614 -0.1183  0.2108  0.3499
  148loPI   C3B 2367   1.667  10.519   9.087  0.0193 -0.0944 -0.1232
  148loPI   C4B 2368   1.689  10.508   8.651  0.0661  0.2124 -0.0674
  149loPI    C1 2369  17.014   7.927  11.152  0.1719 -0.0495  0.2817
  149loPI    C2 2370  17.259   7.787  11.436  0.0682 -0.1284  0.3325
  149loPI    C3 2371  17.105   8.154  11.468  0.1843 -0.0765  0.2974
  149loPI   PO4 2372  17.163   7.868  10.895  0.1295 -0.1438 -0.1671
  149loPI   GL1 2373  17.133   7.724  10.492  0.2712  0.1768 -0.0223
  149loPI   GL2 2374  16.906   7.795  10.429 -0.2355 -0.2841 -0.0702
  149loPI   C1A 2375  17.495   7.717  10.285  0.2709  0.0101  0.0086
  149loPI   C2A 2376  17.639   7.717   9.841  0.1454 -0.0850  0.0470
  149loPI   C3A 2377  17.688   7.661   9.404  0.4872  0.0555 -0.0770
  149loPI   C4A 2378  17.644   7.574   9.033  0.1783 -0.2243  0.3886
  149loPI   C5A 2379  17.800   7.734   8.590  0.6395 -0.2570  0.2127
  149loPI   C6A 2380  18.110   7.633   8.195 -0.2879 -0.3408 -0.1231
  149loPI   C1B 2381  17.052   7.735   9.965  0.1392  0.0281 -0.2238
  149loPI   C2B 2382  17.127   7.602   9.601 -0.1614 -0.2131 -0.3245
  149loPI   C3B 2383  17.094   7.566   9.204 -0.1472  0.0207 -0.2622
  149loPI   C4B 2384  17.181   7.606   8.823  0.2125  0.0077  0.1387
  150loPI    C1 2385  16.620   1.319  10.987 -0.1271 -0.4220 -0.0322
  150loPI    C2 2386  16.330   1.414  11.245  0.0102  0.0917 -0.0570
  150loPI    C3 2387  16.710   1.400  11.368  0.0274 -0.1130 -0.1308
  150loPI   PO4 2388  16.565   1.414  10.702  0.0150  0.2841  0.2520
  150loPI   GL1 2389  16.526   1.264  10.393  0.1565 -0.0175  0.2616
  150loPI   GL2 2390  16.706   1.222  10.213 -0.0792 -0.0010  0.1906
  150loPI   C1A 2391  16.195   1.347  10.127  0.1227  0.1431  0.0423
  150loPI   C2A 2392  16.034   1.367   9.696 -0.1701 -0.0545 -0.4297
  150loPI   C3A 2393  16.166   1.328   9.355  0.0396  0.1331  0.2328
  150loPI   C4A 2394  16.080   1.269   8.981 -0.2360  0.0491 -0.0482
  150loPI   C5A 2395  16.054   1.221   8.475  0.0705 -0.2568 -0.1486
  150loPI   C6A 2396  16.058   0.986   8.146 -0.0835 -0.1199 -0.1751
  150loPI   C1B 2397  16.632   1.345   9.895 -0.2242  0.0989  0.0133
  150loPI   C2B 2398  16.676   1.388   9.473  0.1966  0.1399  0.1260
  150loPI   C3B 2399  16.591   1.366   9.059 -0.2743  0.0130 -0.0054
  150loPI   C4B 2400  16.526   1.293   8.654 -0.0294 -0.0258  0.2009
  151loPI    C1 2401  15.738   3.229  11.233  0.1013  0.2218  0.1630
  151loPI    C2 2402  15.916   3.196  11.590  0.3228 -0.1841  0.0210
  151loPI    C3 2403  15.548   3.049  11.535  0.1790  0.1188  0.1511
  151loPI   PO4 2404  15.900   3.159  11.060 -0.1136 -0.2119 -0.3900
  151loPI   GL1 2405  16.008   3.361  10.755 -0.2526  0.2760  0.0389
  151loPI   GL2 2406  16.074   3.526  10.488  0.2826  0.1954 -0.1568
  151loPI   C1A 2407  15.949   3.016  10.409 -0.1263 -0.0740 -0.0878
  151loPI   C2A 2408  15.915   3.051   9.971  0.3209 -0.2025  0.1705
  151loPI   C3A 2409  16.008   3.142   9.499 -0.0142  0.1706 -0.1550
  151loPI   C4A 2410  15.966   3.118   8.997  0.3794  0.0973 -0.0616
  151loPI   C5A 2411  15.942   3.095   8.567  0.3805  0.0687 -0.0084
  151loPI   C6A 2412  15.972   2.932   8.135  0.0488 -0.0868  0.0399
  151loPI   C1B 2413  16.157   3.516  10.093 -0.2150  0.0509 -0.1482
  151loPI   C2B 2414  16.227   3.566   9.709 -0.2528 -0.0467  0.0589
  151loPI   C3B 2415  16.175   3.551   9.346  0.0232 -0.1852 -0.3220
  151loPI   C4B 2416  16.222   3.545   8.995  0.1077  0.1310 -0.0199
  152loPI    C1 2417  13.375   1.559  11.074  0.1421 -0.0965  0.2177
  152loPI    C2 2418  13.227   1.878  11.266  0.2558 -0.0294  0.1944
  152loPI    C3 2419  13.044   1.524  11.296 -0.0961  0.1226 -0.0936
  152loPI   PO4 2420  13.319   1.605  10.801  0.1316  0.3807 -0.2090
  152loPI   GL1 2421  13.429   1.465  10.408  0.0380 -0.0878  0.0203
  152loPI   GL2 2422  13.680   1.587  10.459 -0.3082  0.2353  0.2922
  152loPI   C1A 2423  13.196   1.471   9.942  0.1698  0.1678 -0.0194
  152loPI   C2A 2424  13.227   1.575   9.522 -0.1583  0.0491 -0.0666
  152loPI   C3A 2425  13.199   1.468   9.121 -0.1150  0.1986  0.0397
  152loPI   C4A 2426  13.203   1.441   8.649 -0.1281  0.1765  0.1488
  152loPI   C5A 2427  13.163   1.865   8.370 -0.2887  0.5443  0.1472
  152loPI   C6A 2428  12.859   2.118   8.244 -0.2397 -0.1420  0.1604
  152loPI   C1B 2429  13.747   1.438  10.018 -0.2479 -0.2597 -0.1410
  152loPI   C2B 2430  13.789   1.467   9.595  0.3803  0.0066  0.0637
  152loPI   C3B 2431  13.647   1.606   9.227  0.0563 -0.0090 -0.0182
  152loPI   C4B 2432  13.695   1.619   8.868  0.1802 -0.1786  0.1107
  153loPI    C1 2433  15.302   4.440  11.246  0.4423  0.1202  0.6833
  153loPI    C2 2434  14.950   4.369  11.421  0.1496  0.0391  0.0888
  153loPI    C3 2435  15.259   4.124  11.487 -0.1167 -0.3144  0.0508
  153loPI   PO4 2436  15.260   4.523  11.052 -0.2876  0.1030 -0.1362
  153loPI   GL1 2437  15.304   4.545  10.663  0.1727  0.1992 -0.0751
  153loPI   GL2 2438  15.630   4.460  10.564 -0.0411 -0.1968 -0.2613
  153loPI   C1A 2439  15.126   4.341  10.329  0.2010 -0.0215  0.1499
  153loPI   C2A 2440  15.052   4.232   9.928  0.0279  0.1100  0.3517
  153loPI   C3A 2441  14.979   4.296   9.543 -0.0718  0.3117 -0.1644
  153loPI   C4A 2442  15.013   4.310   9.055  0.1350  0.0471 -0.1032
  153loPI   C5A 2443  15.095   4.366   8.682  0.2616  0.1855  0.3007
  153loPI   C6A 2444  14.924   4.631   8.401 -0.2739 -0.1562 -0.2716
  153loPI   C1B 2445  15.599   4.375  10.068 -0.2442  0.2279  0.0389
  153loPI   C2B 2446  15.537   4.281   9.584 -0.0708 -0.2704  0.0425
  153loPI   C3B 2447  15.587   4.299   9.164 -0.0689  0.1048  0.0790
  153loPI   C4B 2448  15.576   4.417   8.777  0.2371  0.0106  0.0853
  154loPI    C1 2449   9.553  16.405  10.708  0.1137 -0.0615  0.0884
  154loPI    C2 2450   9.495  16.631  11.033  0.2211 -0.2021  0.2066
  154loPI    C3 2451   9.327  16.269  11.009  0.0261 -0.1000  0.0055
  154loPI   PO4 2452   9.737  16.594  10.572  0.1929  0.2292 -0.1757
  154loPI   GL1 2453   9.925  16.468  10.156  0.0916 -0.1556 -0.0188
  154loPI   GL2 2454  10.244  16.314  10.162 -0.2469 -0.1202 -0.0106
  154loPI   C1A 2455   9.893  16.675   9.795 -0.2854 -0.0748  0.2271
  154loPI   C2A 2456  10.092  16.712   9.514  0.1379 -0.0425  0.2375
  154loPI   C3A 2457  10.098  16.813   9.114  0.0993 -0.3549 -0.1162
  154loPI   C4A 2458  10.142  16.729   8.677 -0.0366  0.1520  0.1299
  154loPI   C5A 2459  10.287  16.968   8.167  0.3315 -0.0572 -0.1470
  154loPI   C6A 2460  10.663  17.114   8.127 -0.0780 -0.1261  0.1310
  154loPI   C1B 2461  10.286  16.257   9.681  0.5923  0.1578  0.1294
  154loPI   C2B 2462  10.314  16.347   9.232 -0.0897  0.0610 -0.0377
  154loPI   C3B 2463  10.438  16.311   8.820 -0.1085 -0.0164  0.2179
  154loPI   C4B 2464  10.416  16.398   8.319  0.1747 -0.2525  0.0471
  155loPI    C1 2465  13.094   3.174  11.068  0.0300  0.0543 -0.0245
  155loPI    C2 2466  13.157   2.804  11.208 -0.1469 -0.0281 -0.1569
  155loPI    C3 2467  13.163   3.117  11.458  0.0400 -0.1152 -0.0501
  155loPI   PO4 2468  13.064   3.103  10.801 -0.0672  0.0322 -0.0714
  155loPI   GL1 2469  12.898   3.217  10.351  0.1306  0.1355 -0.1037
  155loPI   GL2 2470  12.709   2.983  10.461 -0.2307  0.2838 -0.1104
  155loPI   C1A 2471  12.930   3.298   9.905 -0.1755  0.0586  0.1368
  155loPI   C2A 2472  12.929   3.243   9.505  0.0798 -0.1843 -0.0105
  155loPI   C3A 2473  13.070   3.281   9.102  0.2208  0.0393  0.0869
  155loPI   C4A 2474  13.127   3.279   8.650 -0.4927  0.3279  0.2236
  155loPI   C5A 2475  13.438   3.231   8.282  0.0136  0.2913  0.0839
  155loPI   C6A 2476  13.760   3.119   8.053 -0.0269 -0.1289  0.0306
  155loPI   C1B 2477  12.663   2.809  10.140  0.2226  0.0097  0.1363
  155loPI   C2B 2478  12.670   2.803   9.713  0.1042  0.0381 -0.0425
  155loPI   C3B 2479  12.653   2.860   9.291  0.4875 -0.0601 -0.0723
  155loPI   C4B 2480  12.864   2.888   8.927  0.0002 -0.0797  0.0290
  156loPI    C1 2481   3.318  14.393  10.410  0.1858  0.0936 -0.0712
  156loPI    C2 2482   3.042  14.121  10.506  0.1632  0.0995 -0.1194
  156loPI    C3 2483   3.356  14.180  10.746  0.2665 -0.1011 -0.2019
  156loPI   PO4 2484   3.396  14.333  10.190 -0.1472 -0.1904  0.1034
  156loPI   GL1 2485   3.476  14.398   9.828 -0.1453 -0.2127  0.1795
  156loPI   GL2 2486   3.604  14.193   9.742 -0.0811  0.0481 -0.2037
  156loPI   C1A 2487   3.074  14.385   9.585  0.1362  0.0255 -0.3183
  156loPI   C2A 2488   3.009  14.355   9.291 -0.0657 -0.4953  0.1406
  156loPI   C3A 2489   3.014  14.341   8.835 -0.3224 -0.4078 -0.2095
  156loPI   C4A 2490   2.750  14.241   8.562  0.0131  0.1312  0.0926
  156loPI   C5A 2491   2.481  14.283   8.223  0.2351 -0.1043  0.2078
  156loPI   C6A 2492   2.149  14.152   8.100  0.0837  0.0561 -0.0193
  156loPI   C1B 2493   3.489  14.263   9.318 -0.1043 -0.2444 -0.3645
  156loPI   C2B 2494   3.491  14.200   8.830 -0.3857 -0.0828  0.1121
  156loPI   C3B 2495   3.288  14.341   8.417  0.1377  0.2713  0.2229
  156loPI   C4B 2496   3.075  14.389   8.099 -0.3119  0.1018  0.0768
  157loPI    C1 2497  11.770   6.102  11.091  0.0324  0.3320 -0.0099
  157loPI    C2 2498  12.037   6.275  11.333  0.2529 -0.0262  0.0095
  157loPI    C3 2499  11.776   6.010  11.480  0.0750  0.1075 -0.0622
  157loPI   PO4 2500  11.927   6.032  10.765 -0.1611 -0.2420 -0.1111
  157loPI   GL1 2501  12.246   5.958  10.404  0.2003  0.3729 -0.2632
  157loPI   GL2 2502  11.895   5.879  10.284 -0.0847 -0.0606  0.2187
  157loPI   C1A 2503  12.262   5.802   9.920 -0.0644  0.0438 -0.2033
  157loPI   C2A 2504  12.320   5.776   9.579  0.2684  0.1980 -0.1394
  157loPI   C3A 2505  12.328   5.855   9.187 -0.0973 -0.0998 -0.2463
  157loPI   C4A 2506  12.211   5.830   8.943 -0.2909  0.2307  0.0190
  157loPI   C5A 2507  12.186   5.870   8.442 -0.0641 -0.2410 -0.1054
  157loPI   C6A 2508  12.417   6.259   8.358 -0.0766  0.2093  0.1862
  157loPI   C1B 2509  11.807   6.222  10.023 -0.1707  0.0812 -0.2269
  157loPI   C2B 2510  11.822   6.366   9.592  0.1786 -0.2417 -0.0880
  157loPI   C3B 2511  11.874   6.316   9.173 -0.0468 -0.1094  0.2466
  157loPI   C4B 2512  11.932   6.268   8.709 -0.0195  0.1550 -0.0723
  158loPI    C1 2513   7.461  13.903  10.923 -0.1248 -0.2076  0.1437
  158loPI    C2 2514   7.376  14.012  11.298  0.1754  0.2519  0.0871
  158loPI    C3 2515   7.746  13.892  11.204  0.0752  0.0404 -0.0435
  158loPI   PO4 2516   7.347  14.003  10.706 -0.1717 -0.0472  0.1374
  158loPI   GL1 2517   7.259  13.823  10.290 -0.3647 -0.0037  0.0584
  158loPI   GL2 2518   7.554  13.969  10.099 -0.1960  0.2459 -0.3812
  158loPI   C1A 2519   6.987  13.773   9.914 -0.1050  0.0683  0.1363
  158loPI   C2A 2520   7.086  13.970   9.513 -0.0778  0.0543 -0.1073
  158loPI   C3A 2521   7.276  14.066   9.162  0.2379  0.2069 -0.0090
  158loPI   C4A 2522   7.132  14.182   8.806 -0.1906 -0.0589  0.1006
  158loPI   C5A 2523   6.850  14.440   8.601  0.1435 -0.0379 -0.0418
  158loPI   C6A 2524   6.626  14.707   8.266 -0.3374  0.0285 -0.0586
  158loPI   C1B 2525   7.485  13.802   9.800  0.0550 -0.0243  0.0204
  158loPI   C2B 2526   7.437  13.675   9.403  0.1484  0.1956 -0.1145
  158loPI   C3B 2527   7.375  13.602   8.962 -0.3050  0.0326  0.0194
  158loPI   C4B 2528   7.297  13.718   8.568 -0.2481 -0.0333 -0.0436
  159loPI    C1 2529   1.004  12.776  11.146  0.1799 -0.0377 -0.1846
  159loPI    C2 2530   1.226  12.990  11.399  0.3190 -0.2126 -0.1569
  159loPI    C3 2531   0.913  12.782  11.535  0.0531  0.1391 -0.2155
  159loPI   PO4 2532   1.177  12.810  10.947  0.0700  0.1406 -0.2131
  159loPI   GL1 2533   1.404  12.806  10.506 -0.0254 -0.2524  0.0751
  159loPI   GL2 2534   1.142  12.816  10.403 -0.2446  0.1906  0.0819
  159loPI   C1A 2535   1.529  12.808  10.061 -0.0621 -0.1695  0.0193
  159loPI   C2A 2536   1.615  12.947   9.692  0.4324 -0.0173 -0.0694
  159loPI   C3A 2537   1.570  12.937   9.305  0.1788  0.0989  0.0990
  159loPI   C4A 2538   1.562  12.748   8.935  0.2202 -0.1621 -0.3375
  159loPI   C5A 2539   1.607  12.738   8.453 -0.2161 -0.0052  0.1200
  159loPI   C6A 2540   1.315  12.613   8.178  0.1480  0.0983 -0.1952
  159loPI   C1B 2541   0.979  12.708   9.994  0.0568  0.2838  0.1086
  159loPI   C2B 2542   1.048  12.783   9.616  0.1396  0.2052 -0.0404
  159loPI   C3B 2543   1.084  12.732   9.181 -0.4478 -0.2462  0.1611
  159loPI   C4B 2544   1.153  12.652   8.726  0.0032 -0.2879 -0.1204
  160loPI    C1 2545  14.290   3.491  11.249 -0.0051 -0.0839  0.1761
  160loPI    C2 2546  13.996   3.315  11.042 -0.0547  0.0049  0.1708
  160loPI    C3 2547  13.956   3.374  11.435 -0.0218 -0.0308  0.1795
  160loPI   PO4 2548  14.494   3.442  11.013 -0.0448  0.0953  0.3819
  160loPI   GL1 2549  14.579   3.523  10.643 -0.1255  0.1616  0.0693
  160loPI   GL2 2550  14.667   3.857  10.637 -0.1519 -0.0815  0.1700
  160loPI   C1A 2551  14.515   3.405  10.175  0.0888 -0.0844  0.1202
  160loPI   C2A 2552  14.511   3.473   9.652 -0.1176  0.1734  0.4037
  160loPI   C3A 2553  14.552   3.467   9.206 -0.1130 -0.0114  0.1779
  160loPI   C4A 2554  14.716   3.344   8.768  0.1358  0.1319  0.0296
  160loPI   C5A 2555  14.754   3.563   8.363  0.0666  0.3101 -0.1535
  160loPI   C6A 2556  14.704   3.415   7.872  0.0574 -0.1680  0.1794
  160loPI   C1B 2557  14.803   3.844  10.153 -0.0526 -0.0529  0.0019
  160loPI   C2B 2558  14.826   3.831   9.711  0.2509 -0.0408 -0.0845
  160loPI   C3B 2559  14.751   3.894   9.320 -0.1725 -0.1448  0.0237
  160loPI   C4B 2560  14.871   3.872   8.899  0.0424  0.0294  0.0081
  161loPI    C1 2561   1.958   5.348  11.387  0.0890 -0.1866  0.1960
  161loPI    C2 2562   1.667   5.221  11.630  0.0341  0.0550  0.2589
  161loPI    C3 2563   1.903   5.523  11.743  0.1354  0.0384  0.0936
  161loPI   PO4 2564   1.897   5.356  11.201 -0.2665 -0.1476 -0.4262
  161loPI   GL1 2565   1.628   5.436  10.799 -0.2195  0.1443 -0.0343
  161loPI   GL2 2566   1.635   5.082  10.881 -0.0402 -0.2180 -0.0772
  161loPI   C1A 2567   1.706   5.546  10.335  0.0820 -0.0552 -0.2250
  161loPI   C2A 2568   1.791   5.592   9.929  0.1917  0.4130 -0.1318
  161loPI   C3A 2569   1.819   5.572   9.536 -0.0889  0.1846  0.0428
  161loPI   C4A 2570   1.852   5.705   9.046 -0.4207  0.0451 -0.0360
  161loPI   C5A 2571   1.724   5.893   8.649  0.1500 -0.2132 -0.0507
  161loPI   C6A 2572   1.539   6.207   8.471 -0.1136  0.2568 -0.4157
  161loPI   C1B 2573   1.493   5.118  10.427 -0.2128 -0.1654 -0.0518
  161loPI   C2B 2574   1.582   5.160  10.041 -0.0414  0.0030  0.4999
  161loPI   C3B 2575   1.628   5.113   9.555  0.3160 -0.0102 -0.5534
  161loPI   C4B 2576   1.579   5.140   9.137  0.1782  0.1832  0.2147
  162loPI    C1 2577   4.058   4.091  11.342  0.3105 -0.0319  0.1389
  162loPI    C2 2578   3.901   3.724  11.372 -0.1312  0.1362 -0.0241
  162loPI    C3 2579   3.943   3.950  11.699 -0.3672  0.1414  0.0044
  162loPI   PO4 2580   4.006   4.161  11.103 -0.0776 -0.1221 -0.0877
  162loPI   GL1 2581   4.038   4.152  10.703  0.1780  0.0632 -0.0258
  162loPI   GL2 2582   4.392   4.079  10.645  0.0957 -0.3428  0.0979
  162loPI   C1A 2583   3.945   3.995  10.262  0.1149  0.2104  0.1403
  162loPI   C2A 2584   3.985   4.044   9.912  0.1153 -0.0820  0.3631
  162loPI   C3A 2585   4.051   4.095   9.398  0.1100  0.0825 -0.3262
  162loPI   C4A 2586   4.114   4.136   8.972  0.1687  0.0091 -0.0362
  162loPI   C5A 2587   4.312   4.325   8.568  0.0085 -0.1471 -0.0006
  162loPI   C6A 2588   4.562   4.527   8.254 -0.0067  0.2279 -0.1116
  162loPI   C1B 2589   4.439   4.052  10.183 -0.3538 -0.0499 -0.1959
  162loPI   C2B 2590   4.510   4.069   9.785 -0.2106  0.0956  0.0691
  162loPI   C3B 2591   4.490   4.201   9.390  0.1145 -0.0689  0.2934
  162loPI   C4B 2592   4.612   4.124   8.900 -0.1410  0.1942  0.1054
  163loPI    C1 2593  17.383  13.132  11.152  0.0981  0.0177 -0.0249
  163loPI    C2 2594  17.554  13.154  11.514  0.0051 -0.0914  0.0263
  163loPI    C3 2595  17.591  12.821  11.295  0.0026 -0.0515 -0.0352
  163loPI   PO4 2596  17.419  13.353  10.947 -0.0063  0.1452 -0.1618
  163loPI   GL1 2597  17.497  13.481  10.592 -0.2159  0.0644 -0.1252
  163loPI   GL2 2598  17.650  13.680  10.504  0.3041  0.0333 -0.2400
  163loPI   C1A 2599  17.426  13.494  10.138 -0.0102  0.0741 -0.1572
  163loPI   C2A 2600  17.285  13.502   9.740  0.2067 -0.0974  0.2996
  163loPI   C3A 2601  17.309  13.352   9.271  0.1445  0.0850 -0.1465
  163loPI   C4A 2602  17.325  13.411   8.812 -0.0481  0.1044  0.2367
  163loPI   C5A 2603  17.299  13.164   8.356  0.1188 -0.1725 -0.1049
  163loPI   C6A 2604  17.183  12.934   8.102 -0.0813  0.0403 -0.2031
  163loPI   C1B 2605  17.906  13.494  10.136  0.0477 -0.0017 -0.1245
  163loPI   C2B 2606  17.815  13.452   9.753  0.0201 -0.0984  0.2266
  163loPI   C3B 2607  17.790  13.519   9.274 -0.1040  0.1917 -0.2874
  163loPI   C4B 2608  17.827  13.488   8.868 -0.0623 -0.1913  0.2286
  164loPI    C1 2609  10.552   0.528  10.981 -0.0652 -0.1638 -0.0296
  164loPI    C2 2610  10.196   0.570  11.158  0.0472  0.1363  0.1322
  164loPI    C3 2611  10.519   0.482  11.377  0.0625 -0.2139 -0.0244
  164loPI   PO4 2612  10.612   0.417  10.797 -0.2717 -0.1695  0.0946
  164loPI   GL1 2613  10.886   0.544  10.367 -0.0671  0.0508  0.0449
  164loPI   GL2 2614  10.763   0.235  10.359 -0.0698  0.0224  0.3115
  164loPI   C1A 2615  10.918   0.708  10.067 -0.1299 -0.3461 -0.1860
  164loPI   C2A 2616  10.772   0.750   9.696 -0.1310 -0.0442  0.0918
  164loPI   C3A 2617  10.970   0.846   9.258  0.2017  0.0777  0.0599
  164loPI   C4A 2618  10.993   0.780   8.874  0.0119  0.0247  0.0560
  164loPI   C5A 2619  10.864   0.861   8.451 -0.0858  0.1781  0.0777
  164loPI   C6A 2620  10.796   0.557   8.123 -0.1715 -0.0381  0.2234
  164loPI   C1B 2621  10.715   0.285   9.890  0.0469  0.0381 -0.2757
  164loPI   C2B 2622  10.633   0.327   9.420  0.0226  0.0232  0.2285
  164loPI   C3B 2623  10.731   0.376   9.038  0.0637  0.0502 -0.0908
  164loPI   C4B 2624  10.763   0.344   8.578 -0.3519 -0.2212  0.3344
  165loPI    C1 2625   5.680   4.875  11.657 -0.3337  0.1415 -0.2193
  165loPI    C2 2626   5.904   5.203  11.706 -0.1685  0.0038 -0.0396
  165loPI    C3 2627   5.612   5.119  11.966 -0.0345 -0.1311  0.0691
  165loPI   PO4 2628   5.712   4.922  11.314  0.0090 -0.2100 -0.0590
  165loPI   GL1 2629   5.720   4.864  10.846  0.0302 -0.3060 -0.1330
  165loPI   GL2 2630   6.057   4.935  10.814 -0.1059  0.0104 -0.1722
  165loPI   C1A 2631   5.495   5.013  10.399  0.0113  0.2957 -0.1503
  165loPI   C2A 2632   5.486   5.125  10.027  0.0015  0.2937 -0.2155
  165loPI   C3A 2633   5.486   5.152   9.546  0.2325  0.1374 -0.0543
  165loPI   C4A 2634   5.493   5.157   9.148  0.1216 -0.1026 -0.0684
  165loPI   C5A 2635   5.635   5.239   8.738  0.0918  0.0266  0.0304
  165loPI   C6A 2636   6.119   5.183   8.701  0.2508  0.0779  0.2986
  165loPI   C1B 2637   5.989   5.200  10.428  0.2232  0.1026 -0.0674
  165loPI   C2B 2638   5.991   5.174   9.994  0.2495 -0.2040 -0.0314
  165loPI   C3B 2639   5.957   5.324   9.521 -0.0830 -0.3737 -0.1266
  165loPI   C4B 2640   5.974   5.169   9.172  0.1413  0.1405  0.1575
  166loPI    C1 2641  15.264  17.841  11.055 -0.1897 -0.1137  0.0883
  166loPI    C2 2642  15.211  18.125  11.332  0.0614  0.0249 -0.0023
  166loPI    C3 2643  15.385  17.779  11.431 -0.1256 -0.0477  0.0787
  166loPI   PO4 2644  15.097  17.860  10.866 -0.0640  0.1037 -0.0035
  166loPI   GL1 2645  15.298  17.890  10.454 -0.0438 -0.2439 -0.2321
  166loPI   GL2 2646  15.241  18.115  10.336 -0.0099  0.2457 -0.3684
  166loPI   C1A 2647  15.418  17.697  10.093  0.0050 -0.0328 -0.2401
  166loPI   C2A 2648  15.434  17.801   9.725  0.1336  0.0138  0.1804
  166loPI   C3A 2649  15.379  17.790   9.263  0.0832 -0.1051  0.1149
  166loPI   C4A 2650  15.369  17.678   8.849  0.2476  0.1451  0.1028
  166loPI   C5A 2651  15.554  17.751   8.395 -0.3326 -0.0513  0.1956
  166loPI   C6A 2652  15.719  18.175   8.171 -0.2382 -0.0651  0.3262
  166loPI   C1B 2653  15.120  18.200   9.862 -0.2212 -0.0791 -0.0639
  166loPI   C2B 2654  15.169  18.198   9.414 -0.1917 -0.1621 -0.2039
  166loPI   C3B 2655  15.106  18.065   8.991  0.2025  0.2450 -0.0438
  166loPI   C4B 2656  15.185  18.183   8.501  0.1509  0.3421  0.0274
  167loPI    C1 2657   4.533   8.396  11.301  0.1169 -0.0102 -0.0755
  167loPI    C2 2658   4.708   8.728  11.438 -0.0419 -0.0019  0.1121
  167loPI    C3 2659   4.313   8.723  11.371 -0.0227 -0.1196  0.0039
  167loPI   PO4 2660   4.571   8.348  11.074 -0.1770  0.0352 -0.0821
  167loPI   GL1 2661   4.330   8.107  10.720 -0.2691 -0.0602 -0.1752
  167loPI   GL2 2662   4.524   7.868  10.836  0.0993  0.2732 -0.1939
  167loPI   C1A 2663   4.330   8.303  10.262 -0.1415  0.3574 -0.2643
  167loPI   C2A 2664   4.393   8.267   9.827 -0.2053  0.3584  0.0425
  167loPI   C3A 2665   4.504   8.145   9.432  0.2962  0.2641  0.1588
  167loPI   C4A 2666   4.447   8.142   8.941 -0.0046  0.1170 -0.1468
  167loPI   C5A 2667   4.604   8.124   8.507 -0.2143  0.3324  0.1324
  167loPI   C6A 2668   4.597   8.262   8.062 -0.0644 -0.2275  0.1977
  167loPI   C1B 2669   4.565   7.828  10.331 -0.0040  0.1213 -0.1807
  167loPI   C2B 2670   4.650   7.800   9.903  0.0022  0.3189  0.1522
  167loPI   C3B 2671   4.754   7.772   9.517 -0.0104 -0.1808  0.2963
  167loPI   C4B 2672   4.854   7.784   9.036  0.1428 -0.0382  0.0027
  168loPI    C1 2673   2.793   9.417  11.213  0.1635 -0.0132 -0.0722
  168loPI    C2 2674   3.182   9.347  11.276  0.1216 -0.1370  0.0562
  168loPI    C3 2675   2.907   9.159  11.497 -0.0085  0.0505  0.0568
  168loPI   PO4 2676   2.800   9.395  10.872 -0.2213 -0.0885  0.1759
  168loPI   GL1 2677   2.901   9.151  10.423 -0.2733  0.0303  0.2619
  168loPI   GL2 2678   2.732   8.948  10.558 -0.0056 -0.0214  0.0020
  168loPI   C1A 2679   2.963   9.440  10.039 -0.2066 -0.1457  0.5526
  168loPI   C2A 2680   2.931   9.387   9.570  0.2031 -0.0524  0.3262
  168loPI   C3A 2681   3.021   9.360   9.163 -0.0357  0.0990 -0.2280
  168loPI   C4A 2682   2.939   9.332   8.737 -0.0202  0.0234 -0.2998
  168loPI   C5A 2683   3.258   9.359   8.359 -0.1187 -0.1367 -0.1332
  168loPI   C6A 2684   3.576   9.425   8.532  0.2530 -0.1625  0.1485
  168loPI   C1B 2685   2.781   8.947   9.988 -0.0259 -0.1325 -0.1030
  168loPI   C2B 2686   2.806   8.874   9.467 -0.2764 -0.0951  0.0632
  168loPI   C3B 2687   2.844   8.917   9.050  0.0507 -0.0018  0.5026
  168loPI   C4B 2688   2.927   8.911   8.554  0.0478  0.0203  0.3829
  169loPI    C1 2689  11.102   6.822  10.934 -0.1877  0.0622  0.2869
  169loPI    C2 2690  11.128   6.760  11.328  0.1350  0.2367  0.2961
  169loPI    C3 2691  10.798   6.924  11.173 -0.0448  0.0508  0.4759
  169loPI   PO4 2692  11.089   6.544  10.748  0.3430  0.0648 -0.1241
  169loPI   GL1 2693  10.824   6.421  10.413  0.0132 -0.1274  0.0840
  169loPI   GL2 2694  10.969   6.179  10.344  0.0241 -0.2192 -0.2071
  169loPI   C1A 2695  10.662   6.650  10.092 -0.0057 -0.0112  0.0068
  169loPI   C2A 2696  10.678   6.562   9.642  0.0599 -0.2939  0.2928
  169loPI   C3A 2697  10.708   6.598   9.208  0.3040  0.3459  0.0389
  169loPI   C4A 2698  10.592   6.701   8.800 -0.1784  0.0045  0.1080
  169loPI   C5A 2699  10.484   6.538   8.443  0.2467  0.0243 -0.0652
  169loPI   C6A 2700  10.086   6.479   8.407  0.1891  0.2934 -0.0928
  169loPI   C1B 2701  10.962   6.206   9.939  0.0098  0.2880 -0.0063
  169loPI   C2B 2702  10.870   6.099   9.484  0.3740 -0.0042  0.0357
  169loPI   C3B 2703  10.955   6.209   9.004  0.0192  0.1013  0.1140
  169loPI   C4B 2704  10.871   6.259   8.680 -0.2344  0.2028  0.1336
  170loPI    C1 2705   0.613  12.484  11.237 -0.0298 -0.0275 -0.0964
  170loPI    C2 2706   0.219  12.512  11.296  0.0078 -0.1611  0.2410
  170loPI    C3 2707   0.448  12.325  11.565  0.3446  0.1854  0.2031
  170loPI   PO4 2708   0.630  12.573  10.874  0.0420 -0.1818  0.1065
  170loPI   GL1 2709   0.351  12.546  10.546 -0.3881  0.0947 -0.2130
  170loPI   GL2 2710   0.025  12.684  10.406 -0.1704 -0.0635  0.2245
  170loPI   C1A 2711   0.492  12.637  10.226 -0.0961  0.2414  0.0682
  170loPI   C2A 2712   0.533  12.679   9.758  0.0912  0.0250  0.1134
  170loPI   C3A 2713   0.576  12.698   9.251  0.0254 -0.2419  0.1969
  170loPI   C4A 2714   0.684  12.589   8.721 -0.0201  0.1953 -0.0015
  170loPI   C5A 2715   0.721  12.613   8.310 -0.1190 -0.2687  0.2151
  170loPI   C6A 2716   1.004  12.988   8.060  0.0432 -0.2327 -0.0379
  170loPI   C1B 2717   0.067  12.593   9.921 -0.2016  0.1024  0.1905
  170loPI   C2B 2718   0.101  12.609   9.499  0.2130  0.2888  0.0794
  170loPI   C3B 2719   0.027  12.656   9.065  0.2403  0.0217 -0.1106
  170loPI   C4B 2720   0.193  12.581   8.656  0.0159  0.0060 -0.0897
  171loPI    C1 2721   2.326   0.308  10.927 -0.0776  0.0716  0.0900
  171loPI    C2 2722   2.632   0.172  11.144 -0.0496 -0.0759 -0.0399
  171loPI    C3 2723   2.257   0.077  11.246 -0.0259 -0.3303 -0.1829
  171loPI   PO4 2724   2.420   0.290  10.677 -0.0903 -0.1767  0.0478
  171loPI   GL1 2725   2.332   0.094  10.332  0.4800  0.2195 -0.0254
  171loPI   GL2 2726   2.276  -0.166  10.414 -0.2365  0.0503 -0.0179
  171loPI   C1A 2727   2.233   0.239  10.021 -0.2776  0.1237 -0.0144
  171loPI   C2A 2728   2.157   0.394   9.659 -0.0941 -0.0625  0.0253
  171loPI   C3A 2729   2.218   0.302   9.261 -0.1432 -0.1220  0.2085
  171loPI   C4A 2730   2.276   0.430   8.847  0.3442 -0.0058 -0.1258
  171loPI   C5A 2731   2.464   0.221   8.486  0.0697 -0.1802  0.1310
  171loPI   C6A 2732   2.812   0.318   8.252 -0.3840  0.1991 -0.1443
  171loPI   C1B 2733   2.056  -0.250  10.059  0.2872 -0.0913  0.0676
  171loPI   C2B 2734   2.107  -0.110   9.646 -0.1990  0.3373  0.2176
  171loPI   C3B 2735   1.939  -0.236   9.259  0.0776  0.0166 -0.1796
  171loPI   C4B 2736   1.846  -0.262   8.801  0.1499 -0.1048  0.0732
  172loPI    C1 2737   9.391   0.262  11.018 -0.0716  0.1135 -0.1394
  172loPI    C2 2738   9.034   0.300  11.195  0.0101 -0.0123  0.0563
  172loPI    C3 2739   9.368   0.385  11.398  0.1125 -0.2895  0.0076
  172loPI   PO4 2740   9.281   0.360  10.701 -0.3215  0.1370 -0.2142
  172loPI   GL1 2741   9.541   0.517  10.449  0.3635  0.1616 -0.2905
  172loPI   GL2 2742   9.826   0.626  10.301 -0.4972 -0.0890  0.2711
  172loPI   C1A 2743   9.329   0.602   9.999 -0.0890 -0.0343  0.1297
  172loPI   C2A 2744   9.327   0.585   9.586  0.1039 -0.1680  0.1083
  172loPI   C3A 2745   9.424   0.604   9.097 -0.1685 -0.0017 -0.0493
  172loPI   C4A 2746   9.413   0.625   8.695 -0.0288  0.1075  0.0558
  172loPI   C5A 2747   9.501   0.589   8.276  0.0330 -0.1464  0.2523
  172loPI   C6A 2748   9.429   0.698   7.872  0.3425  0.1417 -0.2783
  172loPI   C1B 2749   9.811   0.630   9.856  0.2773  0.0607 -0.0267
  172loPI   C2B 2750   9.778   0.695   9.399 -0.3989 -0.0199 -0.1154
  172loPI   C3B 2751   9.898   0.682   8.973 -0.1868 -0.0783 -0.1382
  172loPI   C4B 2752   9.944   0.659   8.616  0.2113 -0.0744  0.1907
  173loPI    C1 2753   2.462   3.388  11.083  0.0024 -0.1003 -0.0558
  173loPI    C2 2754   2.585   3.402  11.463 -0.0393  0.1763 -0.0506
  173loPI    C3 2755   2.446   3.060  11.311  0.2253 -0.0038  0.1033
  173loPI   PO4 2756   2.623   3.522  10.942 -0.3300 -0.0762  0.2442
  173loPI   GL1 2757   2.617   3.748  10.607  0.4668 -0.0615 -0.0158
  173loPI   GL2 2758   2.416   3.981  10.406  0.3320 -0.0215  0.0948
  173loPI   C1A 2759   2.725   3.593  10.165 -0.2345  0.3404  0.0818
  173loPI   C2A 2760   2.676   3.475   9.751 -0.0694  0.1243  0.2590
  173loPI   C3A 2761   2.886   3.535   9.434 -0.1531 -0.1361 -0.3791
  173loPI   C4A 2762   2.862   3.526   8.951 -0.1508 -0.0179 -0.0474
  173loPI   C5A 2763   3.106   3.644   8.557  0.2489 -0.1175  0.0048
  173loPI   C6A 2764   3.456   3.785   8.345  0.2271 -0.0524 -0.2697
  173loPI   C1B 2765   2.409   3.895   9.996  0.1465 -0.0133 -0.0183
  173loPI   C2B 2766   2.556   3.936   9.585 -0.1495  0.0343  0.0601
  173loPI   C3B 2767   2.572   3.930   9.080 -0.1465  0.1196 -0.1701
  173loPI   C4B 2768   2.691   3.940   8.644  0.1494 -0.0772  0.2149
  174loPI    C1 2769  14.957   3.754  11.232 -0.1695 -0.0321 -0.0617
  174loPI    C2 2770  14.775   3.475  11.453 -0.1817  0.0163 -0.0106
  174loPI    C3 2771  15.103   3.658  11.592 -0.1143 -0.0456 -0.0876
  174loPI   PO4 2772  15.033   3.590  11.028  0.0142 -0.0597 -0.1051
  174loPI   GL1 2773  15.071   3.524  10.641 -0.0423 -0.2766 -0.1328
  174loPI   GL2 2774  15.185   3.770  10.566  0.2867 -0.0170  0.1553
  174loPI   C1A 2775  14.987   3.391  10.250 -0.0390  0.0997  0.1324
  174loPI   C2A 2776  15.062   3.420   9.884  0.1700  0.0298 -0.2779
  174loPI   C3A 2777  15.216   3.456   9.494  0.0825 -0.1264  0.1536
  174loPI   C4A 2778  15.072   3.415   9.109 -0.0574 -0.0375  0.0622
  174loPI   C5A 2779  15.203   3.508   8.703 -0.1432 -0.0767  0.1095
  174loPI   C6A 2780  15.331   3.744   8.350  0.2473  0.0495 -0.3343
  174loPI   C1B 2781  15.291   3.842  10.196 -0.1185  0.1386 -0.1289
  174loPI   C2B 2782  15.357   3.823   9.751  0.1140 -0.0543  0.2344
  174loPI   C3B 2783  15.345   3.901   9.329 -0.1598 -0.0990 -0.2241
  174loPI   C4B 2784  15.359   3.945   8.902  0.0024  0.1218  0.2920
  175loPI    C1 2785  11.876  10.828  11.114 -0.0459 -0.2771  0.2544
  175loPI    C2 2786  12.075  10.833  11.460 -0.2174 -0.1071  0.3524
  175loPI    C3 2787  11.853  11.148  11.353  0.0739 -0.0334 -0.0537
  175loPI   PO4 2788  12.080  10.833  10.875  0.0544 -0.1605  0.0239
  175loPI   GL1 2789  12.032  10.744  10.534  0.0214 -0.0475 -0.3540
  175loPI   GL2 2790  11.661  10.853  10.657 -0.0073  0.0368  0.3340
  175loPI   C1A 2791  11.975  10.824  10.014 -0.0564  0.0539 -0.1690
  175loPI   C2A 2792  12.032  10.798   9.508  0.0899  0.0497  0.0446
  175loPI   C3A 2793  12.076  10.670   9.076  0.1372  0.4470 -0.1498
  175loPI   C4A 2794  12.140  10.781   8.703  0.0648 -0.3128  0.3839
  175loPI   C5A 2795  12.188  10.843   8.244 -0.1311 -0.0594  0.0572
  175loPI   C6A 2796  12.426  10.788   8.006 -0.0260  0.1028  0.0995
  175loPI   C1B 2797  11.539  10.719  10.182  0.0372  0.0877  0.1239
  175loPI   C2B 2798  11.570  10.672   9.708 -0.2368 -0.2902 -0.0671
  175loPI   C3B 2799  11.561  10.772   9.281 -0.1394 -0.2010  0.0283
  175loPI   C4B 2800  11.627  10.707   8.854 -0.0214 -0.1397  0.0405
  176loPI    C1 2801   8.891   1.956  11.491  0.0764 -0.0973 -0.2154
  176loPI    C2 2802   9.091   1.914  11.835 -0.0368  0.2762 -0.0988
  176loPI    C3 2803   8.776   1.680  11.756  0.0103  0.1664  0.0358
  176loPI   PO4 2804   9.053   1.988  11.275 -0.0903 -0.0189 -0.1116
  176loPI   GL1 2805   9.142   2.126  10.778  0.2834  0.5540  0.0137
  176loPI   GL2 2806   9.025   1.827  10.522 -0.0375  0.0272 -0.4370
  176loPI   C1A 2807   9.017   2.313  10.339  0.1415  0.1590  0.0642
  176loPI   C2A 2808   9.180   2.230   9.913 -0.3606  0.3467  0.2411
  176loPI   C3A 2809   9.152   2.327   9.524 -0.0404  0.5456  0.1028
  176loPI   C4A 2810   9.231   2.384   9.075  0.1710 -0.1763  0.0762
  176loPI   C5A 2811   9.150   2.478   8.699  0.0432  0.1090  0.0111
  176loPI   C6A 2812   9.040   2.251   8.291  0.0782 -0.1530  0.0739
  176loPI   C1B 2813   8.976   1.811  10.125 -0.1229  0.0037  0.2499
  176loPI   C2B 2814   8.926   1.875   9.723  0.2408 -0.0572  0.3814
  176loPI   C3B 2815   8.960   1.928   9.287 -0.4293  0.0907 -0.0426
  176loPI   C4B 2816   9.055   1.973   8.854 -0.2812  0.1404 -0.0074
  177loPI    C1 2817   1.604   3.375  11.325 -0.0133  0.0663 -0.1353
  177loPI    C2 2818   1.432   3.062  11.146 -0.0878  0.0331 -0.0074
  177loPI    C3 2819   1.549   3.034  11.527 -0.1140  0.1678  0.0109
  177loPI   PO4 2820   1.624   3.488  11.039 -0.2370  0.1862  0.1492
  177loPI   GL1 2821   1.621   3.484  10.604 -0.0022  0.2021  0.0653
  177loPI   GL2 2822   1.675   3.151  10.635  0.1951 -0.2021  0.0435
  177loPI   C1A 2823   1.722   3.485  10.250  0.4465  0.1459 -0.3266
  177loPI   C2A 2824   1.644   3.358   9.839  0.1028 -0.0368  0.1955
  177loPI   C3A 2825   1.854   3.433   9.489 -0.2548  0.1285 -0.0232
  177loPI   C4A 2826   1.841   3.376   9.025  0.2345 -0.4515 -0.1693
  177loPI   C5A 2827   1.863   3.527   8.671  0.0959  0.2346 -0.1490
  177loPI   C6A 2828   1.702   3.659   8.275 -0.0523 -0.3711 -0.3419
  177loPI   C1B 2829   1.520   3.029  10.235  0.1812  0.0600 -0.0680
  177loPI   C2B 2830   1.448   2.925   9.842  0.4704 -0.1386 -0.1803
  177loPI   C3B 2831   1.483   2.886   9.338 -0.2169 -0.3366  0.0537
  177loPI   C4B 2832   1.470   2.844   8.897  0.0575  0.0437  0.2859
  178loPI    C1 2833   0.446  13.483  11.058 -0.1101 -0.0029  0.1651
  178loPI    C2 2834   0.379  13.876  11.028  0.0478  0.0098 -0.0465
  178loPI    C3 2835   0.309  13.687  11.374  0.0295  0.2346  0.0749
  178loPI   PO4 2836   0.343  13.410  10.807 -0.0259  0.0102  0.2389
  178loPI   GL1 2837   0.038  13.246  10.604  0.0753  0.0545 -0.1316
  178loPI   GL2 2838   0.282  13.087  10.421 -0.1282  0.2211  0.1893
  178loPI   C1A 2839  -0.301  13.054  10.310  0.0376 -0.0011 -0.2322
  178loPI   C2A 2840  -0.236  13.000   9.836  0.2158  0.0458 -0.0462
  178loPI   C3A 2841  -0.247  12.956   9.465 -0.0102 -0.2222  0.0201
  178loPI   C4A 2842  -0.232  13.059   9.134  0.1385  0.1648 -0.6029
  178loPI   C5A 2843  -0.306  12.974   8.725  0.0017 -0.1406  0.0824
  178loPI   C6A 2844  -0.178  12.705   8.361  0.0423 -0.1671  0.1743
  178loPI   C1B 2845   0.266  13.108  10.003 -0.3441  0.2499  0.0726
  178loPI   C2B 2846   0.203  13.056   9.648  0.0920 -0.0980  0.2438
  178loPI   C3B 2847   0.254  13.105   9.206 -0.2712 -0.2730 -0.0897
  178loPI   C4B 2848   0.179  13.063   8.679 -0.1452  0.0731  0.1217
  179loPI    C1 2849  15.885  10.744  11.092  0.0222 -0.0144  0.0101
  179loPI    C2 2850  16.100  11.052  11.229 -0.0882 -0.0072  0.1685
  179loPI    C3 2851  15.700  11.072  11.227 -0.0895 -0.0146 -0.1392
  179loPI   PO4 2852  15.987  10.713  10.898 -0.3146 -0.1515 -0.0279
  179loPI   GL1 2853  16.118  10.667  10.508  0.1174  0.0682 -0.4848
  179loPI   GL2 2854  16.275  10.461  10.532 -0.1342 -0.1313  0.1712
  179loPI   C1A 2855  16.004  10.724  10.055  0.1187 -0.2727 -0.0791
  179loPI   C2A 2856  15.941  10.758   9.620 -0.1192  0.0043  0.0568
  179loPI   C3A 2857  16.068  10.655   9.267 -0.1992 -0.3596  0.2054
  179loPI   C4A 2858  16.132  10.679   8.892  0.3551  0.1579  0.1023
  179loPI   C5A 2859  16.389  10.651   8.451  0.2200  0.0281  0.0377
  179loPI   C6A 2860  16.639  10.758   8.051 -0.0308  0.1048 -0.1838
  179loPI   C1B 2861  16.306  10.317  10.100  0.0792  0.1194  0.0640
  179loPI   C2B 2862  16.301  10.323   9.680  0.1527  0.1964 -0.1776
  179loPI   C3B 2863  16.481  10.260   9.305 -0.1993  0.1157 -0.2010
  179loPI   C4B 2864  16.491  10.354   8.819 -0.2272 -0.1709 -0.1466
  180loPI    C1 2865  16.833  17.785  10.735 -0.1903  0.0519 -0.1099
  180loPI    C2 2866  16.474  17.670  10.870 -0.1030  0.0425  0.1191
  180loPI    C3 2867  16.646  18.001  11.015 -0.0102  0.0369  0.0237
  180loPI   PO4 2868  16.815  17.780  10.517  0.1155 -0.2804 -0.1099
  180loPI   GL1 2869  16.522  17.797  10.124 -0.0148 -0.0544 -0.0149
  180loPI   GL2 2870  16.355  17.567  10.376 -0.2067 -0.1409 -0.0451
  180loPI   C1A 2871  16.408  17.767   9.687  0.0928  0.2225  0.0740
  180loPI   C2A 2872  16.342  17.826   9.218 -0.1221 -0.1755  0.1022
  180loPI   C3A 2873  16.444  17.812   8.811 -0.0387 -0.0092 -0.0824
  180loPI   C4A 2874  16.561  17.903   8.530  0.0833 -0.1520  0.1640
  180loPI   C5A 2875  16.745  17.731   8.227 -0.0597  0.3669 -0.0572
  180loPI   C6A 2876  17.071  17.486   8.070 -0.2846  0.0089 -0.0756
  180loPI   C1B 2877  16.221  17.387   9.977 -0.1169 -0.0617 -0.2089
  180loPI   C2B 2878  16.148  17.330   9.465  0.0991 -0.0246 -0.1054
  180loPI   C3B 2879  16.177  17.274   8.934 -0.1125 -0.1293  0.0853
  180loPI   C4B 2880  16.214  17.270   8.510  0.1442 -0.1516 -0.0319
  181loPI    C1 2881   3.902  17.408  10.521  0.0141  0.0058 -0.1310
  181loPI    C2 2882   3.921  17.097  10.271 -0.1404 -0.0480 -0.0764
  181loPI    C3 2883   3.842  17.038  10.659 -0.1310  0.0558 -0.0584
  181loPI   PO4 2884   3.712  17.525  10.427 -0.2736  0.2945  0.3490
  181loPI   GL1 2885   3.551  17.417  10.080 -0.1597 -0.0656 -0.1243
  181loPI   GL2 2886   3.418  17.141  10.119  0.0243  0.1118 -0.0206
  181loPI   C1A 2887   3.443  17.431   9.622 -0.0463  0.0099 -0.1984
  181loPI   C2A 2888   3.337  17.394   9.164  0.1425  0.1426  0.1044
  181loPI   C3A 2889   3.472  17.516   8.774 -0.2892  0.2483 -0.0261
  181loPI   C4A 2890   3.537  17.397   8.365  0.0465 -0.1240  0.1698
  181loPI   C5A 2891   3.665  17.168   8.159 -0.1194  0.4656 -0.3215
  181loPI   C6A 2892   3.604  16.854   8.062  0.0814 -0.1418 -0.0677
  181loPI   C1B 2893   3.216  16.912   9.749 -0.2832 -0.1253 -0.0923
  181loPI   C2B 2894   3.067  16.909   9.283 -0.1511 -0.0949 -0.2472
  181loPI   C3B 2895   3.186  16.939   8.828 -0.0315  0.0550  0.2436
  181loPI   C4B 2896   3.158  16.643   8.389  0.4873  0.1407  0.1359
  182loPI    C1 2897   9.092  13.300  10.521  0.1278 -0.0231  0.0854
  182loPI    C2 2898   9.314  13.590  10.685 -0.1821  0.0795  0.3334
  182loPI    C3 2899   8.922  13.570  10.761 -0.2050 -0.2798  0.1460
  182loPI   PO4 2900   9.276  13.199  10.303  0.0124 -0.1337  0.0686
  182loPI   GL1 2901   9.550  13.140   9.971  0.2397 -0.1165 -0.0429
  182loPI   GL2 2902   9.422  13.388   9.814  0.3755  0.0575  0.1530
  182loPI   C1A 2903   9.416  12.927   9.655 -0.1059  0.2790  0.2122
  182loPI   C2A 2904   9.533  12.801   9.348 -0.2946  0.0096 -0.1050
  182loPI   C3A 2905   9.675  12.794   8.979  0.0007 -0.1723 -0.2201
  182loPI   C4A 2906   9.496  12.838   8.612 -0.1517  0.1645  0.0066
  182loPI   C5A 2907   9.719  12.702   8.199 -0.2777 -0.1701 -0.1562
  182loPI   C6A 2908   9.940  12.871   7.877 -0.1293  0.0450 -0.2363
  182loPI   C1B 2909   9.265  13.363   9.383  0.2714  0.0150  0.0412
  182loPI   C2B 2910   9.379  13.279   8.921 -0.2677  0.2725  0.4397
  182loPI   C3B 2911   9.316  13.335   8.460 -0.1158  0.2905  0.1746
  182loPI   C4B 2912   9.241  12.890   8.206  0.0230  0.0363  0.0870
  183loPI    C1 2913  14.726  12.029  10.963  0.1231  0.0185 -0.1641
  183loPI    C2 2914  14.987  12.175  11.229 -0.0725  0.2119 -0.0751
  183loPI    C3 2915  14.610  12.310  11.224 -0.2853 -0.3504  0.0642
  183loPI   PO4 2916  14.737  12.057  10.717 -0.2591  0.0475  0.1514
  183loPI   GL1 2917  14.768  11.877  10.381  0.2979  0.2295 -0.1686
  183loPI   GL2 2918  15.115  11.961  10.320  0.1752 -0.0282 -0.3319
  183loPI   C1A 2919  14.494  11.873  10.072  0.0581  0.0647 -0.1866
  183loPI   C2A 2920  14.446  11.903   9.745 -0.2191 -0.1718  0.1664
  183loPI   C3A 2921  14.595  11.873   9.325  0.0348  0.0381  0.1034
  183loPI   C4A 2922  14.618  11.916   8.912  0.1673 -0.1434  0.1741
  183loPI   C5A 2923  14.866  12.050   8.542 -0.4675  0.1048  0.1190
  183loPI   C6A 2924  15.080  12.087   8.154 -0.1497 -0.3820  0.2345
  183loPI   C1B 2925  15.055  11.931   9.896 -0.3069 -0.0014 -0.0995
  183loPI   C2B 2926  15.159  11.908   9.487  0.1821 -0.0202 -0.2780
  183loPI   C3B 2927  15.086  11.918   8.978  0.0818 -0.0493 -0.1687
  183loPI   C4B 2928  15.202  11.666   8.629 -0.1073  0.0335 -0.1085
  184loPI    C1 2929   2.567   1.341  11.060  0.0136  0.1266  0.0316
  184loPI    C2 2930   2.634   1.222  11.436 -0.1706 -0.0521  0.0096
  184loPI    C3 2931   2.299   1.110  11.248 -0.0976  0.0686 -0.1949
  184loPI   PO4 2932   2.668   1.242  10.894 -0.1572 -0.3638  0.1791
  184loPI   GL1 2933   2.615   1.133  10.465  0.1514 -0.0717 -0.0237
  184loPI   GL2 2934   2.277   1.146  10.287  0.1437 -0.3137 -0.1077
  184loPI   C1A 2935   2.735   1.272  10.002 -0.1053 -0.0533  0.3112
  184loPI   C2A 2936   2.682   1.287   9.608  0.0979 -0.0869  0.0324
  184loPI   C3A 2937   2.659   1.348   9.233 -0.0568 -0.0863  0.0363
  184loPI   C4A 2938   2.665   1.342   8.864  0.1730 -0.0103  0.2424
  184loPI   C5A 2939   2.563   1.328   8.531 -0.0497  0.0764 -0.2743
  184loPI   C6A 2940   2.563   1.233   8.146  0.0146  0.1491  0.2178
  184loPI   C1B 2941   2.241   1.262   9.937 -0.1692 -0.2154 -0.1177
  184loPI   C2B 2942   2.078   1.188   9.596  0.0374  0.2389 -0.1010
  184loPI   C3B 2943   2.168   1.311   9.153  0.1624  0.2713  0.0287
  184loPI   C4B 2944   2.131   1.311   8.778  0.1426 -0.2560 -0.0836
  185loPI    C1 2945  11.824   9.047  11.004  0.1437  0.0061  0.0012
  185loPI    C2 2946  11.701   9.368  11.209 -0.2304 -0.0592 -0.1129
  185loPI    C3 2947  11.598   9.001  11.331 -0.0593 -0.1222 -0.1548
  185loPI   PO4 2948  11.882   9.055  10.748 -0.2904 -0.0533 -0.0417
  185loPI   GL1 2949  11.680   8.836  10.433 -0.0034  0.1145 -0.1764
  185loPI   GL2 2950  11.620   8.496  10.375 -0.1417 -0.0099 -0.1875
  185loPI   C1A 2951  11.679   8.942   9.953 -0.1138 -0.1228 -0.1543
  185loPI   C2A 2952  11.688   8.883   9.419  0.6222  0.0092  0.2122
  185loPI   C3A 2953  11.729   8.941   8.993 -0.0639  0.0382  0.1240
  185loPI   C4A 2954  11.667   8.917   8.471  0.0344  0.0456  0.3225
  185loPI   C5A 2955  11.724   8.602   8.128 -0.0627 -0.3436 -0.2358
  185loPI   C6A 2956  12.024   8.345   7.929 -0.1224 -0.0429  0.0615
  185loPI   C1B 2957  11.498   8.496   9.904  0.2022  0.0020  0.0291
  185loPI   C2B 2958  11.506   8.440   9.445  0.0433 -0.0263  0.0240
  185loPI   C3B 2959  11.470   8.509   8.979  0.0003  0.0754 -0.0096
  185loPI   C4B 2960  11.513   8.410   8.650 -0.2913 -0.0687  0.1065
  186loPI    C1 2961  11.932   9.945  11.104 -0.0448  0.0861  0.0168
  186loPI    C2 2962  11.626   9.878  11.352 -0.0383  0.0829  0.0238
  186loPI    C3 2963  11.999   9.890  11.495 -0.0047 -0.2252 -0.0316
  186loPI   PO4 2964  11.802   9.739  10.915 -0.1061 -0.2273 -0.1411
  186loPI   GL1 2965  11.832   9.598  10.560 -0.2564  0.2243  0.1180
  186loPI   GL2 2966  11.498   9.489  10.571  0.4146  0.0974 -0.0384
  186loPI   C1A 2967  11.924   9.386  10.175 -0.2259  0.1313  0.1950
  186loPI   C2A 2968  11.908   9.378   9.791  0.0649  0.0617  0.3713
  186loPI   C3A 2969  11.859   9.436   9.321  0.2294 -0.3291 -0.0058
  186loPI   C4A 2970  11.912   9.426   8.851  0.5031  0.0612  0.1634
  186loPI   C5A 2971  11.843   9.424   8.377  0.2300  0.1677  0.1593
  186loPI   C6A 2972  12.029   9.810   8.229 -0.1324  0.1545  0.0820
  186loPI   C1B 2973  11.389   9.375  10.074  0.1498  0.4210  0.0007
  186loPI   C2B 2974  11.438   9.396   9.604  0.1174  0.3754  0.0319
  186loPI   C3B 2975  11.407   9.331   9.098 -0.1158  0.0013  0.2421
  186loPI   C4B 2976  11.405   9.383   8.631 -0.1756  0.1023  0.1969
  187loPI    C1 2977   0.773  14.676  10.820  0.1252 -0.0509 -0.0051
  187loPI    C2 2978   0.969  14.638  11.166 -0.0679 -0.2378  0.0859
  187loPI    C3 2979   0.772  14.976  11.084  0.1346 -0.1212  0.0753
  187loPI   PO4 2980   0.978  14.598  10.631 -0.2439 -0.2686  0.1257
  187loPI   GL1 2981   1.005  14.420  10.310  0.1566  0.0012 -0.0097
  187loPI   GL2 2982   1.173  14.741  10.196 -0.0493  0.1970  0.0911
  187loPI   C1A 2983   0.752  14.398   9.971  0.1062 -0.1158 -0.2233
  187loPI   C2A 2984   0.789  14.413   9.539 -0.2553  0.0553  0.0324
  187loPI   C3A 2985   0.844  14.470   9.139 -0.4073 -0.0532 -0.2573
  187loPI   C4A 2986   0.841  14.480   8.652 -0.0428 -0.0147 -0.1299
  187loPI   C5A 2987   0.916  14.377   8.279  0.1416  0.4074  0.0333
  187loPI   C6A 2988   0.801  14.403   7.913  0.1085  0.0167  0.0894
  187loPI   C1B 2989   1.204  14.497   9.861  0.0687  0.0491  0.2128
  187loPI   C2B 2990   1.262  14.503   9.371 -0.2031 -0.1248  0.0220
  187loPI   C3B 2991   1.314  14.502   8.867 -0.1027  0.0430  0.2263
  187loPI   C4B 2992   1.384  14.424   8.365 -0.0796 -0.2743  0.2408
  188loPI    C1 2993   4.166  13.871  10.375 -0.2834 -0.0983  0.1062
  188loPI    C2 2994   4.126  14.235  10.214  0.2542  0.0101  0.1981
  188loPI    C3 2995   4.058  14.180  10.604  0.2068  0.0186  0.1910
  188loPI   PO4 2996   4.104  13.720  10.245 -0.1570 -0.1097 -0.1654
  188loPI   GL1 2997   3.965  13.924   9.897  0.0297  0.0507 -0.0569
  188loPI   GL2 2998   3.821  13.730   9.719  0.2066 -0.1451 -0.1718
  188loPI   C1A 2999   4.027  14.101   9.484  0.0713  0.1202 -0.1419
  188loPI   C2A 3000   4.015  14.096   9.075 -0.0145  0.0908  0.2164
  188loPI   C3A 3001   4.001  14.256   8.703 -0.0230  0.1006 -0.0363
  188loPI   C4A 3002   3.800  14.341   8.318 -0.0019  0.1738  0.1027
  188loPI   C5A 3003   3.542  14.514   7.985 -0.0027  0.2621  0.3292
  188loPI   C6A 3004   3.248  14.626   7.594 -0.1287  0.1277 -0.0712
  188loPI   C1B 3005   3.586  13.803   9.421 -0.1745 -0.2036  0.1674
  188loPI   C2B 3006   3.660  13.683   8.958 -0.4262  0.2161 -0.1509
  188loPI   C3B 3007   3.802  13.779   8.538  0.1385 -0.0688 -0.1403
  188loPI   C4B 3008   3.735  13.571   8.143  0.0514  0.0507 -0.0020
  189loPI    C1 3009  17.065   4.612  11.400 -0.1098 -0.0703 -0.0145
  189loPI    C2 3010  16.928   4.976  11.495  0.0551 -0.0267  0.0591
  189loPI    C3 3011  16.756   4.650  11.651  0.1050  0.0318  0.2387
  189loPI   PO4 3012  17.119   4.607  11.135 -0.1108  0.1663  0.1468
  189loPI   GL1 3013  16.903   4.595  10.758  0.0117  0.0730  0.1004
  189loPI   GL2 3014  16.743   4.798  10.617  0.0869 -0.1438 -0.0848
  189loPI   C1A 3015  17.163   4.460  10.415 -0.1029 -0.0929 -0.2295
  189loPI   C2A 3016  17.187   4.539  10.040 -0.0895  0.2710  0.1826
  189loPI   C3A 3017  17.148   4.440   9.655 -0.0980  0.0624 -0.0742
  189loPI   C4A 3018  17.045   4.477   9.251 -0.0952  0.0040 -0.0591
  189loPI   C5A 3019  17.124   4.467   8.898  0.1822 -0.2439  0.0375
  189loPI   C6A 3020  17.472   4.363   8.597 -0.1255 -0.0447  0.0854
  189loPI   C1B 3021  16.904   4.854  10.261 -0.0487  0.0215  0.2591
  189loPI   C2B 3022  16.902   4.915   9.785  0.3225 -0.1900 -0.0668
  189loPI   C3B 3023  16.763   4.977   9.344  0.0969 -0.1373  0.2671
  189loPI   C4B 3024  16.830   4.846   8.937 -0.1762  0.1623 -0.2457
  190loPI    C1 3025  12.098   0.205  11.143  0.2945  0.0029 -0.3045
  190loPI    C2 3026  12.092   0.564  11.319 -0.0668 -0.1362 -0.0187
  190loPI    C3 3027  12.243   0.248  11.513  0.2877 -0.1363 -0.2849
  190loPI   PO4 3028  12.221   0.275  10.963 -0.1494 -0.2000  0.1383
  190loPI   GL1 3029  12.233   0.524  10.624  0.1698 -0.0809 -0.2322
  190loPI   GL2 3030  12.157   0.839  10.581  0.2117  0.0970  0.2771
  190loPI   C1A 3031  12.204   0.507  10.263  0.0852 -0.0451  0.2825
  190loPI   C2A 3032  12.233   0.502   9.820 -0.2207 -0.0335  0.1871
  190loPI   C3A 3033  12.193   0.563   9.440 -0.3649  0.0757  0.0733
  190loPI   C4A 3034  12.281   0.560   9.064  0.0658 -0.0988  0.2649
  190loPI   C5A 3035  12.229   0.473   8.609  0.2035  0.0120  0.1358
  190loPI   C6A 3036  12.413   0.271   8.256 -0.0871 -0.2097  0.3350
  190loPI   C1B 3037  11.915   0.879  10.178 -0.0000 -0.4239 -0.0962
  190loPI   C2B 3038  11.887   0.908   9.704 -0.1189 -0.1928 -0.0799
  190loPI   C3B 3039  11.929   0.939   9.246  0.0450  0.0955  0.1429
  190loPI   C4B 3040  11.971   0.887   8.818 -0.1065  0.0343 -0.1009
  191loPI    C1 3041  15.803  13.435  11.239  0.1045 -0.1855  0.0588
  191loPI    C2 3042  15.502  13.617  11.430  0.0209 -0.0660 -0.1832
  191loPI    C3 3043  15.866  13.608  11.594  0.0292  0.3315 -0.1711
  191loPI   PO4 3044  15.752  13.225  11.137  0.2726  0.0565 -0.2028
  191loPI   GL1 3045  15.731  13.093  10.647 -0.0116  0.0607  0.2548
  191loPI   GL2 3046  16.087  12.985  10.678 -0.0142 -0.3022 -0.0453
  191loPI   C1A 3047  15.660  12.851  10.285 -0.0977  0.1476  0.2906
  191loPI   C2A 3048  15.557  12.823   9.840  0.2122  0.3211 -0.1665
  191loPI   C3A 3049  15.586  12.797   9.381  0.0434  0.0949  0.3664
  191loPI   C4A 3050  15.639  12.805   8.971 -0.0600 -0.3792 -0.2504
  191loPI   C5A 3051  15.502  12.828   8.593  0.0050 -0.0253 -0.0414
  191loPI   C6A 3052  15.369  12.980   8.255 -0.0098 -0.0997  0.1373
  191loPI   C1B 3053  16.134  12.876  10.325 -0.1014 -0.1370 -0.1002
  191loPI   C2B 3054  16.118  12.869   9.791  0.1324  0.1733  0.0459
  191loPI   C3B 3055  16.105  12.859   9.302 -0.1602  0.0705 -0.0780
  191loPI   C4B 3056  16.068  12.875   8.801  0.2554 -0.0828 -0.0480
  192loPI    C1 3057   2.090   7.711  11.033  0.0100 -0.1422 -0.2219
  192loPI    C2 3058   1.845   7.542  10.765 -0.2141 -0.1251 -0.0312
  192loPI    C3 3059   1.752   7.534  11.154 -0.0592  0.1430  0.0141
  192loPI   PO4 3060   2.078   7.940  10.876 -0.0794  0.0515 -0.1234
  192loPI   GL1 3061   1.944   8.139  10.443 -0.0612 -0.3703 -0.0735
  192loPI   GL2 3062   1.786   7.838  10.379  0.0031  0.2609 -0.3332
  192loPI   C1A 3063   2.058   8.404  10.084 -0.1151 -0.2879  0.0399
  192loPI   C2A 3064   2.044   8.462   9.589  0.1279 -0.0064  0.1571
  192loPI   C3A 3065   2.044   8.399   9.077 -0.1486  0.0169 -0.3157
  192loPI   C4A 3066   2.028   8.418   8.641  0.2157 -0.1215  0.0528
  192loPI   C5A 3067   2.087   8.611   8.212 -0.1048 -0.0141  0.1904
  192loPI   C6A 3068   2.269   8.499   7.818  0.1502  0.6073  0.1301
  192loPI   C1B 3069   1.770   7.785   9.874  0.1594 -0.1245 -0.0739
  192loPI   C2B 3070   1.849   7.936   9.425 -0.0865 -0.0114 -0.0968
  192loPI   C3B 3071   1.843   7.925   8.996 -0.2792  0.0944 -0.0488
  192loPI   C4B 3072   2.100   7.942   8.611 -0.2261  0.1129  0.3345
  193loPI    C1 3073  13.637   5.311  10.931  0.0182 -0.1086 -0.0034
  193loPI    C2 3074  13.457   5.076  11.200  0.1765 -0.0405  0.1637
  193loPI    C3 3075  13.802   4.961  11.033  0.1871  0.0133  0.1486
  193loPI   PO4 3076  13.448   5.372  10.777 -0.1826  0.0044  0.0700
  193loPI   GL1 3077  13.411   5.595  10.403 -0.2202 -0.1525  0.1931
  193loPI   GL2 3078  13.680   5.660  10.476 -0.0497  0.0195  0.2329
  193loPI   C1A 3079  13.175   5.535  10.140 -0.2607  0.1457 -0.3426
  193loPI   C2A 3080  13.127   5.451   9.770  0.1131 -0.1471  0.0155
  193loPI   C3A 3081  13.023   5.485   9.360  0.1597 -0.1040 -0.0510
  193loPI   C4A 3082  13.129   5.524   8.864  0.0458 -0.0791 -0.1292
  193loPI   C5A 3083  13.030   5.514   8.455  0.0012 -0.1327  0.0792
  193loPI   C6A 3084  12.887   5.403   8.064 -0.2083 -0.2254  0.0040
  193loPI   C1B 3085  13.634   5.515  10.004  0.0656 -0.0100  0.1263
  193loPI   C2B 3086  13.661   5.529   9.645  0.0022 -0.1164  0.0495
  193loPI   C3B 3087  13.509   5.577   9.223 -0.0874  0.1132 -0.1428
  193loPI   C4B 3088  13.608   5.608   8.812  0.0470 -0.2289  0.2487
  194loPI    C1 3089   7.400   3.746  11.502 -0.1778  0.0182  0.0685
  194loPI    C2 3090   7.736   3.732  11.719 -0.1469 -0.0706  0.0153
  194loPI    C3 3091   7.440   3.979  11.825 -0.0225  0.0865  0.0008
  194loPI   PO4 3092   7.527   3.776  11.249  0.1502 -0.0698  0.0668
  194loPI   GL1 3093   7.561   3.716  10.835 -0.2502 -0.2121  0.0817
  194loPI   GL2 3094   7.723   3.488  10.566 -0.0347  0.1758 -0.1249
  194loPI   C1A 3095   7.380   3.889  10.338  0.0531  0.0273 -0.0254
  194loPI   C2A 3096   7.335   3.854   9.890 -0.1799 -0.0066 -0.1339
  194loPI   C3A 3097   7.445   3.998   9.545 -0.0311 -0.0813 -0.2921
  194loPI   C4A 3098   7.439   4.004   9.023 -0.1032  0.3310  0.2412
  194loPI   C5A 3099   7.357   4.067   8.642 -0.0696  0.1109 -0.0967
  194loPI   C6A 3100   7.487   4.159   8.174 -0.1795  0.0698  0.3519
  194loPI   C1B 3101   7.640   3.506  10.137 -0.2911 -0.2168  0.0354
  194loPI   C2B 3102   7.728   3.593   9.630  0.1459  0.0869 -0.0308
  194loPI   C3B 3103   7.752   3.623   9.168  0.1854  0.2064  0.1145
  194loPI   C4B 3104   7.709   3.656   8.686  0.0613 -0.0711 -0.0555
  195loPI    C1 3105  12.118  13.319  11.112 -0.0197  0.2180  0.1240
  195loPI    C2 3106  12.127  13.392  11.505 -0.0374 -0.1010  0.1860
  195loPI    C3 3107  11.796  13.243  11.336 -0.0948  0.2111  0.0149
  195loPI   PO4 3108  12.268  13.436  10.946 -0.0687  0.1177 -0.2027
  195loPI   GL1 3109  12.359  13.415  10.508 -0.1712 -0.0857 -0.0140
  195loPI   GL2 3110  12.681  13.447  10.667 -0.1807 -0.1374 -0.4594
  195loPI   C1A 3111  12.362  13.446  10.043 -0.2073  0.1071 -0.2257
  195loPI   C2A 3112  12.387  13.547   9.570  0.3177 -0.1497  0.0875
  195loPI   C3A 3113  12.400  13.443   9.138 -0.0004 -0.2855 -0.1733
  195loPI   C4A 3114  12.393  13.495   8.765 -0.0463 -0.0679  0.3110
  195loPI   C5A 3115  12.249  13.239   8.469  0.0492  0.2302  0.1376
  195loPI   C6A 3116  12.446  13.155   8.001  0.2164  0.0153 -0.1749
  195loPI   C1B 3117  12.783  13.588  10.267 -0.0351  0.0905  0.1968
  195loPI   C2B 3118  12.945  13.569   9.827 -0.4212 -0.0141  0.2093
  195loPI   C3B 3119  12.886  13.574   9.372  0.0947  0.1997  0.2796
  195loPI   C4B 3120  12.899  13.510   8.947 -0.0239 -0.0188 -0.3645
  196loPI    C1 3121   5.693   5.762  11.554 -0.1050 -0.0223  0.0638
  196loPI    C2 3122   5.896   6.106  11.530 -0.0313 -0.0798 -0.1575
  196loPI    C3 3123   5.554   6.090  11.737  0.0728  0.0733  0.0292
  196loPI   PO4 3124   5.730   5.672  11.321  0.4502  0.0442  0.1359
  196loPI   GL1 3125   5.751   5.742  10.883 -0.0147 -0.0822 -0.0710
  196loPI   GL2 3126   5.850   6.042  11.024 -0.1171  0.0122  0.0378
  196loPI   C1A 3127   5.734   5.628  10.519 -0.2334 -0.2463  0.1706
  196loPI   C2A 3128   5.700   5.596  10.008  0.1098 -0.2416  0.1210
  196loPI   C3A 3129   5.687   5.684   9.627  0.0468  0.1151 -0.2982
  196loPI   C4A 3130   5.764   5.683   9.174 -0.0746 -0.2334 -0.0054
  196loPI   C5A 3131   5.978   6.089   8.897  0.4863 -0.0830 -0.0607
  196loPI   C6A 3132   5.915   6.347   8.617 -0.0325  0.1512 -0.0689
  196loPI   C1B 3133   5.867   6.117  10.569  0.0963 -0.0607  0.2296
  196loPI   C2B 3134   5.954   6.097  10.263  0.4401  0.1595  0.0712
  196loPI   C3B 3135   6.011   6.146   9.871 -0.1092  0.2983 -0.2496
  196loPI   C4B 3136   5.903   6.160   9.391  0.1897  0.2212 -0.4030
  197loPI    C1 3137   8.971  15.606  10.362  0.1239 -0.0991 -0.0005
  197loPI    C2 3138   8.832  15.831  10.661  0.2660 -0.0706  0.0450
  197loPI    C3 3139   8.897  15.440  10.718  0.2338 -0.0779  0.0325
  197loPI   PO4 3140   8.829  15.564  10.169 -0.1468  0.1617 -0.3159
  197loPI   GL1 3141   8.774  15.668   9.766  0.1557 -0.0265 -0.2893
  197loPI   GL2 3142   9.041  15.504   9.705 -0.2671  0.1518  0.1407
  197loPI   C1A 3143   8.538  15.725   9.431  0.1755 -0.3460  0.0929
  197loPI   C2A 3144   8.452  15.827   8.987 -0.0050 -0.1755 -0.6020
  197loPI   C3A 3145   8.675  15.965   8.569 -0.0611 -0.0730 -0.1502
  197loPI   C4A 3146   8.759  16.081   8.161 -0.0844 -0.2697 -0.0327
  197loPI   C5A 3147   9.040  16.009   7.888 -0.0583  0.2002  0.2686
  197loPI   C6A 3148   9.133  15.689   7.571  0.0074  0.0562 -0.0936
  197loPI   C1B 3149   9.160  15.577   9.324  0.1090 -0.0680 -0.2429
  197loPI   C2B 3150   9.091  15.838   8.895  0.0604  0.1801  0.0649
  197loPI   C3B 3151   9.119  15.742   8.437  0.2289 -0.1607 -0.5499
  197loPI   C4B 3152   9.402  15.665   8.047 -0.1195  0.2879 -0.1470
  198loPI    C1 3153   6.728   7.722  11.479  0.0321 -0.0002  0.0848
  198loPI    C2 3154   6.564   7.573  11.812 -0.1992 -0.0049 -0.0296
  198loPI    C3 3155   6.696   7.951  11.805 -0.2062 -0.0005  0.0629
  198loPI   PO4 3156   6.921   7.539  11.409 -0.1393  0.0533 -0.1442
  198loPI   GL1 3157   7.162   7.337  11.126 -0.1095  0.0560  0.1303
  198loPI   GL2 3158   6.847   7.300  10.947  0.0592  0.0479 -0.0929
  198loPI   C1A 3159   7.259   7.252  10.666  0.1239  0.4390  0.2074
  198loPI   C2A 3160   7.381   7.273  10.267  0.0405 -0.1364 -0.2317
  198loPI   C3A 3161   7.473   7.240   9.785 -0.2335  0.0507  0.3855
  198loPI   C4A 3162   7.453   7.138   9.318  0.2196 -0.0301 -0.1613
  198loPI   C5A 3163   7.472   7.162   8.874  0.0721  0.1266  0.1398
  198loPI   C6A 3164   7.457   7.062   8.471  0.3598  0.3433 -0.0375
  198loPI   C1B 3165   6.834   7.192  10.451  0.1866 -0.0134  0.1148
  198loPI   C2B 3166   6.971   7.185  10.026  0.2148 -0.0196  0.2893
  198loPI   C3B 3167   6.827   7.187   9.609 -0.2041 -0.3568  0.4235
  198loPI   C4B 3168   6.893   7.055   9.181  0.1078  0.0964  0.0527
  199loPI    C1 3169   5.521  10.610  11.367  0.0878  0.1083 -0.1400
  199loPI    C2 3170   5.236  10.890  11.382  0.0243  0.0278  0.2988
  199loPI    C3 3171   5.618  10.996  11.335 -0.0303  0.1652  0.1548
  199loPI   PO4 3172   5.404  10.425  11.129  0.0390  0.0595 -0.0166
  199loPI   GL1 3173   5.484  10.421  10.670 -0.0409 -0.0653  0.1469
  199loPI   GL2 3174   5.207  10.189  10.396  0.1454  0.0719 -0.3086
  199loPI   C1A 3175   5.478  10.671  10.269  0.4004  0.2384 -0.0369
  199loPI   C2A 3176   5.478  10.577   9.862 -0.0509  0.0956  0.0621
  199loPI   C3A 3177   5.564  10.604   9.398  0.2893  0.0492  0.0326
  199loPI   C4A 3178   5.507  10.631   9.010 -0.1556  0.0450 -0.1739
  199loPI   C5A 3179   5.520  10.627   8.588  0.1451  0.1722 -0.1839
  199loPI   C6A 3180   5.161  10.491   8.234  0.1536 -0.0070  0.0161
  199loPI   C1B 3181   5.286  10.142   9.952  0.0312  0.0582  0.1395
  199loPI   C2B 3182   5.308  10.161   9.488 -0.1396  0.1534 -0.1703
  199loPI   C3B 3183   5.304  10.135   9.098  0.1420  0.2843 -0.0152
  199loPI   C4B 3184   5.295  10.070   8.614  0.0153  0.0669 -0.2431
  200loPI    C1 3185   5.063   8.379  11.229 -0.2709  0.1019  0.0659
  200loPI    C2 3186   5.333   8.386  11.523 -0.1677  0.0699 -0.0273
  200loPI    C3 3187   4.950   8.307  11.605 -0.0814 -0.2794  0.0543
  200loPI   PO4 3188   5.122   8.307  11.035 -0.0072 -0.1641  0.1679
  200loPI   GL1 3189   4.918   8.115  10.736  0.0115  0.0281 -0.0361
  200loPI   GL2 3190   4.891   8.420  10.584  0.0487  0.1121 -0.1826
  200loPI   C1A 3191   5.124   7.914  10.426 -0.1699  0.1834  0.1821
  200loPI   C2A 3192   5.129   7.911   9.978 -0.0254  0.2932  0.1159
  200loPI   C3A 3193   5.215   7.846   9.628 -0.0185 -0.1930 -0.0238
  200loPI   C4A 3194   5.390   7.829   9.184 -0.0302  0.1251  0.1960
  200loPI   C5A 3195   5.294   7.825   8.788 -0.0459 -0.1612 -0.1365
  200loPI   C6A 3196   5.041   7.760   8.582 -0.0494 -0.1094 -0.2593
  200loPI   C1B 3197   4.858   8.292  10.174  0.1557 -0.1559  0.1829
  200loPI   C2B 3198   4.944   8.280   9.691  0.1312 -0.0178  0.2824
  200loPI   C3B 3199   5.001   8.219   9.234 -0.2085  0.2098 -0.0835
  200loPI   C4B 3200   4.936   8.251   8.873  0.2571 -0.2552  0.0597
  201loPI    C1 3201   2.465   2.546  11.253  0.1557 -0.0241 -0.0862
  201loPI    C2 3202   2.358   2.352  11.586 -0.1079  0.1262 -0.0802
  201loPI    C3 3203   2.640   2.635  11.602 -0.1410  0.1539  0.0207
  201loPI   PO4 3204   2.211   2.654  11.104 -0.0613  0.0552 -0.0030
  201loPI   GL1 3205   2.232   2.655  10.555 -0.0465 -0.0854  0.0557
  201loPI   GL2 3206   1.932   2.733  10.484  0.2974 -0.0315  0.0341
  201loPI   C1A 3207   2.358   2.611  10.132  0.2549  0.4103  0.1573
  201loPI   C2A 3208   2.186   2.555   9.811  0.4692 -0.0436  0.0274
  201loPI   C3A 3209   2.313   2.531   9.386 -0.2227 -0.1518 -0.1376
  201loPI   C4A 3210   2.396   2.581   8.994 -0.0168 -0.1856 -0.3584
  201loPI   C5A 3211   2.550   2.630   8.541  0.1375 -0.2101 -0.2949
  201loPI   C6A 3212   2.569   2.732   8.120  0.1080 -0.2406 -0.3018
  201loPI   C1B 3213   1.738   2.565  10.080 -0.0253 -0.0555 -0.0594
  201loPI   C2B 3214   1.732   2.464   9.644 -0.1475  0.1741 -0.0861
  201loPI   C3B 3215   1.849   2.559   9.299  0.3147 -0.0143 -0.0519
  201loPI   C4B 3216   1.863   2.569   8.922 -0.3553 -0.0822 -0.0655
  202loPI    C1 3217   3.166   8.770  11.503  0.1803  0.0797 -0.0377
  202loPI    C2 3218   3.456   8.901  11.745  0.0651  0.1143  0.0827
  202loPI    C3 3219   3.215   8.606  11.864  0.2352 -0.1162 -0.1328
  202loPI   PO4 3220   3.431   8.914  11.183  0.2577 -0.0163 -0.1095
  202loPI   GL1 3221   3.594   8.831  10.833 -0.1346  0.2467  0.3314
  202loPI   GL2 3222   3.704   8.722  10.671  0.1987 -0.2001  0.1374
  202loPI   C1A 3223   3.393   8.980  10.414  0.1696  0.0376  0.2251
  202loPI   C2A 3224   3.296   9.040  10.070  0.0794 -0.1768 -0.0782
  202loPI   C3A 3225   3.297   9.023   9.702  0.1300  0.2143  0.1768
  202loPI   C4A 3226   3.288   8.944   9.315  0.0148 -0.0970 -0.0297
  202loPI   C5A 3227   3.344   8.999   8.885 -0.0700  0.3100  0.0902
  202loPI   C6A 3228   3.466   8.759   8.614  0.3806 -0.1821  0.1022
  202loPI   C1B 3229   3.696   8.607  10.229 -0.1680  0.0878  0.2018
  202loPI   C2B 3230   3.568   8.606   9.831  0.1156  0.2060  0.0306
  202loPI   C3B 3231   3.630   8.565   9.374  0.0153  0.3291 -0.0445
  202loPI   C4B 3232   3.769   8.473   8.864 -0.2132 -0.3535 -0.0335
  203loPI    C1 3233  13.454  16.118  10.902  0.0247 -0.1066 -0.1184
  203loPI    C2 3234  13.733  16.069  11.185  0.0371  0.0732 -0.0985
  203loPI    C3 3235  13.362  16.178  11.286  0.0027 -0.0054 -0.1393
  203loPI   PO4 3236  13.507  16.187  10.719  0.3244 -0.1498 -0.1865
  203loPI   GL1 3237  13.353  16.051  10.266  0.2052  0.3358  0.1425
  203loPI   GL2 3238  13.613  15.803  10.314 -0.0931 -0.0705  0.0184
  203loPI   C1A 3239  13.230  16.125   9.948 -0.0615  0.0302 -0.0030
  203loPI   C2A 3240  13.245  16.306   9.566 -0.6229 -0.1601 -0.0091
  203loPI   C3A 3241  13.282  16.350   9.219  0.3507  0.1202 -0.3033
  203loPI   C4A 3242  13.275  16.260   8.783  0.2187  0.2077 -0.0269
  203loPI   C5A 3243  13.407  16.343   8.405  0.0445  0.1853  0.0459
  203loPI   C6A 3244  13.745  16.050   8.239 -0.0318  0.3866  0.0485
  203loPI   C1B 3245  13.577  15.733   9.883 -0.0679  0.1932 -0.1148
  203loPI   C2B 3246  13.481  15.875   9.438 -0.2370  0.2836 -0.2055
  203loPI   C3B 3247  13.443  15.833   9.050  0.0321 -0.0845  0.1172
  203loPI   C4B 3248  13.550  15.840   8.648  0.1291 -0.1892 -0.3261
  204loPI    C1 3249  13.689   9.672  11.422  0.0834 -0.3280  0.1019
  204loPI    C2 3250  13.700   9.954  11.706  0.1714 -0.0368 -0.1851
  204loPI    C3 3251  13.989   9.678  11.686  0.0455 -0.1971  0.1427
  204loPI   PO4 3252  13.651   9.829  11.145 -0.2564 -0.1637 -0.0205
  204loPI   GL1 3253  13.825   9.808  10.792 -0.1211 -0.1530 -0.2235
  204loPI   GL2 3254  13.571   9.962  10.678  0.0462 -0.0578  0.1712
  204loPI   C1A 3255  13.996   9.658  10.400  0.0667  0.0593  0.3278
  204loPI   C2A 3256  13.955   9.635   9.926 -0.0645  0.4183 -0.0363
  204loPI   C3A 3257  14.044   9.592   9.515  0.0253 -0.1040  0.1616
  204loPI   C4A 3258  14.081   9.577   9.061 -0.0224  0.1023 -0.0446
  204loPI   C5A 3259  14.001   9.650   8.692 -0.2872  0.0446 -0.1039
  204loPI   C6A 3260  13.664   9.933   8.492  0.0186  0.1193 -0.1155
  204loPI   C1B 3261  13.649  10.010  10.328  0.0575 -0.1963  0.1291
  204loPI   C2B 3262  13.624  10.090   9.926  0.1524  0.0131  0.1465
  204loPI   C3B 3263  13.726  10.052   9.433  0.1223  0.0985  0.0949
  204loPI   C4B 3264  13.731   9.931   9.032  0.0869  0.0506  0.0970
  205loPI    C1 3265  11.344  17.564  11.187  0.1799 -0.0945 -0.1687
  205loPI    C2 3266  10.950  17.496  11.168  0.1790 -0.1175 -0.0723
  205loPI    C3 3267  11.100  17.727  11.458  0.2245 -0.0179 -0.1744
  205loPI   PO4 3268  11.335  17.578  10.911  0.0690  0.2581  0.0903
  205loPI   GL1 3269  11.163  17.787  10.472 -0.1130 -0.1802 -0.1009
  205loPI   GL2 3270  11.248  18.065  10.432  0.3403 -0.0220  0.1149
  205loPI   C1A 3271  10.870  17.655  10.161 -0.2309  0.1998 -0.0643
  205loPI   C2A 3272  10.987  17.723   9.762 -0.1552 -0.3642  0.2223
  205loPI   C3A 3273  11.006  17.891   9.330 -0.0077 -0.1450 -0.1853
  205loPI   C4A 3274  11.103  17.876   8.813 -0.1001  0.2051  0.0537
  205loPI   C5A 3275  11.161  17.734   8.509 -0.0693  0.1060  0.1173
  205loPI   C6A 3276  11.019  17.991   8.084  0.0962 -0.3391  0.0078
  205loPI   C1B 3277  11.205  18.210   9.987  0.3225 -0.1945 -0.5047
  205loPI   C2B 3278  11.113  18.343   9.598  0.1847  0.4542  0.0747
  205loPI   C3B 3279  11.189  18.273   9.159  0.0792  0.0888 -0.1805
  205loPI   C4B 3280  11.231  18.292   8.629 -0.3364  0.0092  0.2194
  206loPI    C1 3281  12.963  13.249  11.284  0.3023  0.0315  0.2422
  206loPI    C2 3282  12.571  13.180  11.332  0.2466  0.1203 -0.0621
  206loPI    C3 3283  12.831  13.068  11.615 -0.0008  0.0870  0.1550
  206loPI   PO4 3284  12.970  13.115  10.975  0.1396 -0.1081 -0.0831
  206loPI   GL1 3285  12.947  12.996  10.538  0.1738 -0.2774  0.1237
  206loPI   GL2 3286  13.115  13.267  10.476 -0.1207 -0.0337 -0.1662
  206loPI   C1A 3287  12.659  13.089  10.306 -0.0609  0.1442 -0.1068
  206loPI   C2A 3288  12.690  13.152   9.810 -0.0896 -0.0704 -0.1963
  206loPI   C3A 3289  12.651  13.047   9.316 -0.0141  0.0104  0.1768
  206loPI   C4A 3290  12.763  13.048   8.913 -0.2174  0.2041  0.2616
  206loPI   C5A 3291  12.739  13.314   8.465 -0.0027 -0.1432  0.1376
  206loPI   C6A 3292  12.721  13.728   8.332 -0.1086  0.2670  0.1168
  206loPI   C1B 3293  13.110  13.231  10.124  0.1774  0.1729  0.1605
  206loPI   C2B 3294  13.125  13.141   9.603 -0.3562  0.0013  0.0089
  206loPI   C3B 3295  13.185  13.147   9.147 -0.2368  0.0287 -0.1253
  206loPI   C4B 3296  13.158  13.084   8.668  0.0202 -0.3926  0.0977
  207loPI    C1 3297   4.513   0.905  10.787 -0.1839 -0.2498  0.1670
  207loPI    C2 3298   4.719   1.223  10.915 -0.1964 -0.1879  0.0353
  207loPI    C3 3299   4.561   0.968  11.179 -0.2631 -0.0357  0.1436
  207loPI   PO4 3300   4.534   0.931  10.536  0.3687  0.0585  0.1991
  207loPI   GL1 3301   4.811   1.145  10.373  0.2419 -0.2623  0.1691
  207loPI   GL2 3302   4.779   1.397  10.450  0.0634 -0.0836  0.1026
  207loPI   C1A 3303   5.032   1.042   9.939  0.0713  0.0350  0.2537
  207loPI   C2A 3304   5.195   1.017   9.555  0.2790  0.0411 -0.3239
  207loPI   C3A 3305   5.197   1.068   9.124 -0.2449  0.0009  0.0173
  207loPI   C4A 3306   4.997   1.014   8.807  0.1503 -0.0507 -0.0818
  207loPI   C5A 3307   5.021   1.012   8.421 -0.0221 -0.0057  0.0021
  207loPI   C6A 3308   4.995   1.160   8.012 -0.3187  0.1152  0.1884
  207loPI   C1B 3309   4.666   1.465  10.015 -0.0386  0.1756 -0.0923
  207loPI   C2B 3310   4.836   1.398   9.578  0.0601 -0.4826  0.0914
  207loPI   C3B 3311   4.853   1.457   9.096  0.1011  0.2338 -0.4310
  207loPI   C4B 3312   4.754   1.421   8.715  0.3163  0.0685 -0.3260
  208loPI    C1 3313  15.860   1.440  11.214  0.2767 -0.0086 -0.0676
  208loPI    C2 3314  15.951   1.820  11.300 -0.1217  0.0737  0.0072
  208loPI    C3 3315  15.786   1.585  11.579 -0.1229 -0.0754 -0.1178
  208loPI   PO4 3316  15.882   1.423  10.932  0.3569 -0.1466 -0.2415
  208loPI   GL1 3317  16.041   1.602  10.491  0.1228 -0.1475 -0.4815
  208loPI   GL2 3318  16.365   1.738  10.353 -0.1010  0.0919 -0.0221
  208loPI   C1A 3319  15.850   1.726  10.191 -0.2290 -0.0999  0.0434
  208loPI   C2A 3320  15.788   1.774   9.800  0.2171 -0.0028 -0.1968
  208loPI   C3A 3321  15.773   1.770   9.328 -0.2543 -0.0893  0.2307
  208loPI   C4A 3322  15.810   1.704   8.901  0.2828 -0.1265 -0.2332
  208loPI   C5A 3323  15.692   1.595   8.553 -0.3880 -0.4256  0.0275
  208loPI   C6A 3324  15.563   1.313   8.240  0.2365 -0.1795  0.0953
  208loPI   C1B 3325  16.267   1.847   9.914 -0.2709  0.1889 -0.0499
  208loPI   C2B 3326  16.263   1.801   9.510 -0.1244  0.2048  0.0704
  208loPI   C3B 3327  16.239   1.725   9.073  0.1233  0.0501  0.0572
  208loPI   C4B 3328  16.244   1.667   8.604 -0.0183 -0.0643 -0.2406
  209loPI    C1 3329  11.569   6.600  11.088 -0.1582  0.0091  0.1794
  209loPI    C2 3330  11.300   6.315  11.167 -0.0710 -0.1269 -0.0073
  209loPI    C3 3331  11.533   6.457  11.460 -0.3215 -0.0304  0.1492
  209loPI   PO4 3332  11.630   6.537  10.785  0.0357  0.2491 -0.0911
  209loPI   GL1 3333  11.740   6.867  10.374 -0.0620 -0.0346 -0.1255
  209loPI   GL2 3334  11.390   6.933  10.539 -0.0303 -0.2010  0.2147
  209loPI   C1A 3335  11.809   6.712   9.974 -0.0178 -0.0910  0.0622
  209loPI   C2A 3336  12.096   6.763   9.609  0.0603  0.0383  0.4218
  209loPI   C3A 3337  12.130   6.700   9.068  0.2204  0.3495  0.0471
  209loPI   C4A 3338  12.171   6.783   8.688 -0.0056  0.2770  0.0101
  209loPI   C5A 3339  12.028   6.542   8.323 -0.0292 -0.0735 -0.1487
  209loPI   C6A 3340  11.747   6.337   8.048 -0.1688  0.4036  0.1688
  209loPI   C1B 3341  11.428   7.171  10.122  0.1820  0.3340  0.1501
  209loPI   C2B 3342  11.363   7.144   9.747  0.3233  0.2293 -0.0643
  209loPI   C3B 3343  11.358   7.168   9.287 -0.0177 -0.3483 -0.0621
  209loPI   C4B 3344  11.362   7.127   8.907  0.1766 -0.1540 -0.0011
  210loPI    C1 3345  15.350  10.677  11.113 -0.2979  0.0512  0.0858
  210loPI    C2 3346  15.036  10.446  11.023 -0.2113 -0.0497  0.0404
  210loPI    C3 3347  15.276  10.347  11.327 -0.1798 -0.0134  0.0276
  210loPI   PO4 3348  15.431  10.789  10.888 -0.1389 -0.3226  0.2254
  210loPI   GL1 3349  15.596  10.730  10.582 -0.2034  0.1735 -0.2492
  210loPI   GL2 3350  15.594  10.630  10.435  0.2151 -0.2047  0.2290
  210loPI   C1A 3351  15.671  11.088  10.153 -0.1688 -0.2416 -0.0920
  210loPI   C2A 3352  15.584  11.113   9.809  0.1221 -0.1184 -0.1378
  210loPI   C3A 3353  15.621  11.044   9.329  0.1497  0.2596  0.0353
  210loPI   C4A 3354  15.757  11.029   8.957 -0.1739 -0.0031  0.1291
  210loPI   C5A 3355  15.874  10.992   8.546 -0.2238 -0.0650  0.1874
  210loPI   C6A 3356  15.831  10.644   8.228 -0.0431 -0.2695  0.0537
  210loPI   C1B 3357  15.495  10.636   9.976 -0.2157 -0.2601  0.0533
  210loPI   C2B 3358  15.438  10.604   9.495 -0.1984 -0.1984  0.0318
  210loPI   C3B 3359  15.561  10.595   9.088  0.0033  0.0085 -0.3942
  210loPI   C4B 3360  15.569  10.558   8.701  0.0952  0.1650 -0.0414
  211loPI    C1 3361   8.905   1.090  11.127 -0.2976 -0.2482 -0.1275
  211loPI    C2 3362   9.098   0.767  10.990  0.1532  0.0157 -0.1338
  211loPI    C3 3363   9.001   0.793  11.377  0.1532 -0.1080 -0.1252
  211loPI   PO4 3364   8.774   1.141  10.849  0.0777  0.3112  0.2936
  211loPI   GL1 3365   8.908   1.326  10.479 -0.0842  0.0928  0.0518
  211loPI   GL2 3366   8.687   1.460  10.500  0.2357 -0.0151  0.1162
  211loPI   C1A 3367   9.016   1.011  10.144  0.1129  0.1537  0.1674
  211loPI   C2A 3368   8.998   0.917   9.768 -0.0314 -0.3268  0.1546
  211loPI   C3A 3369   9.020   0.976   9.357  0.2471 -0.0429  0.1470
  211loPI   C4A 3370   9.031   0.973   8.908 -0.0266 -0.0100  0.2750
  211loPI   C5A 3371   9.168   1.045   8.572 -0.1322 -0.0270 -0.0421
  211loPI   C6A 3372   8.980   0.949   8.157 -0.0167 -0.1478 -0.0819
  211loPI   C1B 3373   8.730   1.351   9.970 -0.2641 -0.0154 -0.0220
  211loPI   C2B 3374   8.700   1.434   9.651 -0.0501  0.0754  0.0035
  211loPI   C3B 3375   8.704   1.382   9.222  0.2705  0.0579 -0.2689
  211loPI   C4B 3376   8.765   1.473   8.785 -0.3087  0.1644 -0.4321
  212loPI    C1 3377  15.716   4.144  11.234  0.1209 -0.1019  0.2294
  212loPI    C2 3378  15.927   4.374  11.484 -0.0162 -0.0249  0.2752
  212loPI    C3 3379  15.900   3.980  11.549  0.0209 -0.0180  0.3326
  212loPI   PO4 3380  15.732   4.287  11.000 -0.2102 -0.1377 -0.1019
  212loPI   GL1 3381  16.084   4.250  10.641 -0.0050  0.1195 -0.1636
  212loPI   GL2 3382  16.421   4.374  10.688 -0.0596 -0.0996  0.2300
  212loPI   C1A 3383  16.051   4.303  10.197 -0.2952 -0.1315  0.0469
  212loPI   C2A 3384  16.023   4.350   9.781 -0.3390  0.0555 -0.0328
  212loPI   C3A 3385  16.154   4.357   9.270 -0.0622 -0.2043 -0.0407
  212loPI   C4A 3386  16.117   4.405   8.867 -0.0828 -0.1014 -0.2017
  212loPI   C5A 3387  16.285   4.478   8.514 -0.1183 -0.1148 -0.3200
  212loPI   C6A 3388  16.422   4.362   8.132  0.1586 -0.1722  0.0278
  212loPI   C1B 3389  16.617   4.354  10.275  0.3312 -0.1283 -0.0380
  212loPI   C2B 3390  16.667   4.484   9.873 -0.0576  0.0183  0.2030
  212loPI   C3B 3391  16.557   4.582   9.488 -0.0173  0.3628 -0.1226
  212loPI   C4B 3392  16.600   4.381   9.039 -0.2520  0.2016  0.1288
  213loPI    C1 3393   1.664  12.071  10.937 -0.1199 -0.1790  0.2366
  213loPI    C2 3394   1.942  11.838  11.105 -0.0832 -0.1829  0.1711
  213loPI    C3 3395   1.973  12.236  11.130  0.0800 -0.1780 -0.0770
  213loPI   PO4 3396   1.550  11.993  10.654  0.0297  0.0177  0.0549
  213loPI   GL1 3397   1.430  11.659  10.426 -0.2240 -0.0095 -0.0466
  213loPI   GL2 3398   1.114  11.457  10.346 -0.1572  0.0015  0.1827
  213loPI   C1A 3399   1.487  11.462   9.971  0.0490 -0.3017  0.2835
  213loPI   C2A 3400   1.506  11.453   9.453  0.1537  0.1846 -0.0140
  213loPI   C3A 3401   1.502  11.365   9.021 -0.1904  0.1063  0.1199
  213loPI   C4A 3402   1.582  11.364   8.604 -0.2525 -0.1844  0.3937
  213loPI   C5A 3403   1.264  11.259   8.314 -0.0276  0.0727  0.1559
  213loPI   C6A 3404   0.899  11.239   7.999  0.0137  0.0694 -0.0907
  213loPI   C1B 3405   1.000  11.372  10.024  0.0154 -0.1045 -0.0391
  213loPI   C2B 3406   0.949  11.407   9.571 -0.2465 -0.2860 -0.0585
  213loPI   C3B 3407   1.012  11.338   9.146  0.1816 -0.2373  0.0423
  213loPI   C4B 3408   1.066  11.355   8.725 -0.0766  0.0205  0.0955
  214loPI    C1 3409   3.442  11.673  10.774 -0.1698 -0.0974 -0.2230
  214loPI    C2 3410   3.755  11.489  10.606 -0.0453  0.2021 -0.3239
  214loPI    C3 3411   3.632  11.380  10.970  0.1274  0.0298 -0.3156
  214loPI   PO4 3412   3.501  11.887  10.632  0.1725 -0.1438 -0.0417
  214loPI   GL1 3413   3.490  11.724  10.208 -0.2591  0.2619 -0.0570
  214loPI   GL2 3414   3.139  11.649  10.286  0.0743 -0.0697  0.1494
  214loPI   C1A 3415   3.424  11.676   9.731 -0.0025 -0.0265 -0.1584
  214loPI   C2A 3416   3.566  11.731   9.368  0.5192 -0.1548  0.2637
  214loPI   C3A 3417   3.576  11.675   8.897  0.2415  0.5047 -0.2690
  214loPI   C4A 3418   3.570  11.603   8.448 -0.0185 -0.1124  0.0082
  214loPI   C5A 3419   3.498  11.572   8.040 -0.1989  0.0611  0.0848
  214loPI   C6A 3420   3.420  11.754   7.597  0.1557  0.0535  0.2776
  214loPI   C1B 3421   2.992  11.613   9.857 -0.0175 -0.4185 -0.0615
  214loPI   C2B 3422   2.986  11.673   9.445  0.0750  0.0513  0.4142
  214loPI   C3B 3423   2.977  11.557   9.073  0.0891 -0.0421  0.1491
  214loPI   C4B 3424   3.099  11.595   8.647 -0.3139  0.0826  0.1882
  215loPI    C1 3425  16.324   9.914  11.248  0.1931  0.0232 -0.1103
  215loPI    C2 3426  16.313   9.724  11.600 -0.2090  0.0849 -0.0853
  215loPI    C3 3427  16.214  10.111  11.578  0.1436  0.1715 -0.2142
  215loPI   PO4 3428  16.246   9.778  11.096 -0.2231 -0.2183 -0.2425
  215loPI   GL1 3429  16.279   9.904  10.567  0.3206  0.1416 -0.1367
  215loPI   GL2 3430  16.442   9.513  10.425  0.1978 -0.2945 -0.1242
  215loPI   C1A 3431  16.103   9.855  10.075  0.4235  0.3411 -0.1873
  215loPI   C2A 3432  16.214   9.849   9.577 -0.0737  0.0483  0.3011
  215loPI   C3A 3433  16.259   9.784   9.176 -0.2066 -0.2899  0.3534
  215loPI   C4A 3434  16.133   9.795   8.782 -0.1179  0.1644 -0.1808
  215loPI   C5A 3435  15.907   9.661   8.454 -0.1577  0.1450  0.3047
  215loPI   C6A 3436  15.569   9.796   8.240  0.2597  0.0014  0.0244
  215loPI   C1B 3437  16.399   9.467  10.027  0.0475  0.1998  0.1158
  215loPI   C2B 3438  16.501   9.362   9.616 -0.0544 -0.0133  0.0076
  215loPI   C3B 3439  16.510   9.333   9.178  0.2074  0.0166  0.3288
  215loPI   C4B 3440  16.419   9.376   8.726  0.1402 -0.0278  0.0008
  216loPI    C1 3441  12.195   5.583  10.739 -0.1442  0.1288  0.2730
  216loPI    C2 3442  12.561   5.745  10.726 -0.0478 -0.0984  0.0667
  216loPI    C3 3443  12.488   5.435  10.968 -0.1347  0.0168  0.1897
  216loPI   PO4 3444  12.129   5.502  10.457 -0.0089 -0.0570  0.1063
  216loPI   GL1 3445  12.200   5.354  10.133  0.1229 -0.1156 -0.2351
  216loPI   GL2 3446  12.347   5.002  10.116  0.2384  0.3041 -0.3004
  216loPI   C1A 3447  12.103   5.339   9.708 -0.0564  0.0057 -0.2082
  216loPI   C2A 3448  12.019   5.376   9.224 -0.2083  0.0995 -0.3839
  216loPI   C3A 3449  12.067   5.336   8.853  0.0952 -0.3305  0.1763
  216loPI   C4A 3450  11.963   5.414   8.449 -0.0089 -0.0985  0.1492
  216loPI   C5A 3451  12.303   5.347   8.139 -0.0729  0.0094  0.1977
  216loPI   C6A 3452  12.516   5.094   7.882  0.0698  0.0250  0.1581
  216loPI   C1B 3453  12.324   4.883   9.738  0.0920  0.0087 -0.1095
  216loPI   C2B 3454  12.271   4.982   9.243 -0.2883  0.1822 -0.1148
  216loPI   C3B 3455  12.420   4.872   8.825 -0.0895 -0.0238 -0.0398
  216loPI   C4B 3456  12.457   5.063   8.472  0.1924 -0.2374  0.3006
  217loPI    C1 3457   1.799   8.477  11.361 -0.2403 -0.2683  0.3379
  217loPI    C2 3458   1.859   8.082  11.377 -0.0067 -0.2377  0.2530
  217loPI    C3 3459   2.172   8.332  11.373 -0.1353 -0.0732 -0.2412
  217loPI   PO4 3460   1.662   8.467  11.131  0.1492  0.1490 -0.0311
  217loPI   GL1 3461   1.565   8.505  10.721 -0.0460 -0.0170  0.1678
  217loPI   GL2 3462   1.254   8.482  10.563  0.1865  0.0889 -0.1737
  217loPI   C1A 3463   1.577   8.379  10.278 -0.1204 -0.2769  0.2782
  217loPI   C2A 3464   1.528   8.225   9.858 -0.0950 -0.0768 -0.0606
  217loPI   C3A 3465   1.583   8.341   9.395 -0.0525 -0.2229  0.0213
  217loPI   C4A 3466   1.590   8.366   9.003  0.2720  0.1584  0.0493
  217loPI   C5A 3467   1.539   8.247   8.581 -0.3539 -0.2276 -0.2099
  217loPI   C6A 3468   1.332   8.371   8.251 -0.0864 -0.2664  0.0348
  217loPI   C1B 3469   1.236   8.747  10.156 -0.0228  0.2310  0.2715
  217loPI   C2B 3470   1.260   8.731   9.670 -0.0216 -0.0729  0.2062
  217loPI   C3B 3471   1.174   8.685   9.227 -0.2474 -0.1116 -0.0239
  217loPI   C4B 3472   1.170   8.675   8.804 -0.1444 -0.1823  0.1861
  218loPI    C1 3473  10.584  15.468  10.556  0.0200  0.0782  0.1414
  218loPI    C2 3474  10.787  15.782  10.698  0.1511 -0.0878  0.3258
  218loPI    C3 3475  10.526  15.589  10.932 -0.0844  0.0098  0.1476
  218loPI   PO4 3476  10.743  15.396  10.347 -0.0646  0.1672 -0.2386
  218loPI   GL1 3477  10.765  15.211   9.981  0.0270 -0.1068  0.0881
  218loPI   GL2 3478  11.142  15.376   9.958 -0.2007 -0.0256  0.0151
  218loPI   C1A 3479  10.644  15.174   9.593 -0.3829 -0.1257  0.1866
  218loPI   C2A 3480  10.754  15.266   9.176 -0.0432  0.0397 -0.3989
  218loPI   C3A 3481  10.757  15.359   8.660 -0.2207 -0.1604  0.3790
  218loPI   C4A 3482  10.714  15.233   8.300  0.0093  0.0209  0.0663
  218loPI   C5A 3483  10.876  15.198   7.885 -0.0911 -0.2937  0.0551
  218loPI   C6A 3484  10.892  15.265   7.490  0.0363 -0.4306 -0.0896
  218loPI   C1B 3485  11.039  15.490   9.533  0.2674  0.0524  0.1227
  218loPI   C2B 3486  11.225  15.489   9.149 -0.0556 -0.0547  0.1424
  218loPI   C3B 3487  11.309  15.551   8.735 -0.0666 -0.2163  0.1654
  218loPI   C4B 3488  11.587  15.640   8.392  0.1691 -0.0717  0.1359
  219loPI    C1 3489   0.217   6.011  11.273 -0.1474 -0.0426 -0.2110
  219loPI    C2 3490  -0.067   5.890  11.527  0.1490 -0.0458  0.1270
  219loPI    C3 3491   0.090   6.256  11.561  0.0894  0.0078 -0.1470
  219loPI   PO4 3492   0.223   5.796  11.148  0.0546 -0.3696  0.0461
  219loPI   GL1 3493   0.203   5.529  10.713 -0.0578  0.0059 -0.0752
  219loPI   GL2 3494   0.259   5.919  10.627  0.1722 -0.3615  0.0768
  219loPI   C1A 3495   0.290   5.550  10.293 -0.1524  0.0127 -0.1739
  219loPI   C2A 3496   0.207   5.459   9.913  0.1423 -0.0008  0.0538
  219loPI   C3A 3497   0.298   5.376   9.434  0.0032 -0.1844 -0.0862
  219loPI   C4A 3498   0.339   5.396   8.998  0.0865  0.1302  0.2032
  219loPI   C5A 3499   0.307   5.579   8.643 -0.1722 -0.1999 -0.0384
  219loPI   C6A 3500  -0.035   5.978   8.532 -0.3102  0.0309 -0.0737
  219loPI   C1B 3501   0.377   6.007  10.155 -0.1082  0.2598 -0.1640
  219loPI   C2B 3502   0.494   5.971   9.776 -0.1864 -0.0331 -0.1152
  219loPI   C3B 3503   0.500   5.863   9.360  0.2306 -0.3237 -0.1383
  219loPI   C4B 3504   0.627   5.912   8.931 -0.2017  0.2147 -0.2038
  220loPI    C1 3505   9.217   4.842  11.262  0.0535 -0.0803  0.2234
  220loPI    C2 3506   9.515   4.779  11.523  0.0870  0.0515  0.2178
  220loPI    C3 3507   9.136   4.795  11.651  0.1010  0.0909  0.2547
  220loPI   PO4 3508   9.295   4.688  11.014 -0.0001  0.1291 -0.0299
  220loPI   GL1 3509   9.461   4.527  10.564  0.1902  0.0449  0.4535
  220loPI   GL2 3510   9.154   4.733  10.557  0.2242  0.1655 -0.0132
  220loPI   C1A 3511   9.658   4.716  10.365 -0.2883 -0.1993 -0.3277
  220loPI   C2A 3512   9.648   4.620   9.921  0.0619  0.1505  0.0807
  220loPI   C3A 3513   9.718   4.650   9.487  0.0231  0.1222 -0.0767
  220loPI   C4A 3514   9.749   4.618   9.094 -0.2226 -0.1055  0.2063
  220loPI   C5A 3515   9.666   4.657   8.603  0.2473 -0.1974 -0.1023
  220loPI   C6A 3516   9.604   4.896   8.238  0.3737  0.0530 -0.0430
  220loPI   C1B 3517   9.143   4.511  10.112  0.0516  0.0314  0.0444
  220loPI   C2B 3518   9.159   4.551   9.685 -0.0120 -0.0284  0.1103
  220loPI   C3B 3519   9.244   4.612   9.306  0.1709  0.2805 -0.2063
  220loPI   C4B 3520   9.236   4.637   8.919 -0.0373  0.1705  0.3487
  221loPI    C1 3521   7.458  12.460  10.597  0.0253 -0.0482  0.1416
  221loPI    C2 3522   7.189  12.658  10.818 -0.0200  0.0769 -0.0239
  221loPI    C3 3523   7.578  12.682  10.907 -0.0341  0.1631  0.0151
  221loPI   PO4 3524   7.351  12.192  10.520  0.1007 -0.2147  0.3282
  221loPI   GL1 3525   7.352  12.110  10.196  0.0387 -0.0334 -0.0335
  221loPI   GL2 3526   7.263  12.237  10.005  0.0461  0.0460  0.1676
  221loPI   C1A 3527   7.451  11.742   9.935  0.2462  0.1020  0.1525
  221loPI   C2A 3528   7.473  11.751   9.476 -0.0286  0.2286  0.1314
  221loPI   C3A 3529   7.510  11.705   9.076 -0.0105  0.1503  0.1457
  221loPI   C4A 3530   7.730  11.698   8.616  0.0718 -0.0225 -0.0110
  221loPI   C5A 3531   7.738  11.822   8.111 -0.1155  0.1000 -0.0400
  221loPI   C6A 3532   7.862  12.253   7.874 -0.3255 -0.1402 -0.0233
  221loPI   C1B 3533   7.147  12.168   9.475  0.0932  0.1983 -0.0870
  221loPI   C2B 3534   7.195  12.113   9.083  0.1107 -0.0117  0.1174
  221loPI   C3B 3535   7.324  12.179   8.756 -0.0518  0.1406  0.1395
  221loPI   C4B 3536   7.417  12.189   8.238  0.1233 -0.2918 -0.1458
  222loPI    C1 3537  14.709   5.277  11.046  0.1302 -0.0840 -0.1450
  222loPI    C2 3538  14.768   4.917  11.209  0.2108  0.0484  0.1240
  222loPI    C3 3539  14.509   5.172  11.376 -0.2510 -0.0801 -0.3693
  222loPI   PO4 3540  14.674   5.259  10.876  0.0600 -0.0693 -0.0407
  222loPI   GL1 3541  14.663   4.970  10.632 -0.2237 -0.0150 -0.0932
  222loPI   GL2 3542  14.668   4.621  10.776 -0.0104 -0.0070  0.2676
  222loPI   C1A 3543  14.454   5.203  10.302 -0.3552 -0.1603 -0.0771
  222loPI   C2A 3544  14.457   5.182   9.865 -0.0640  0.0626 -0.0095
  222loPI   C3A 3545  14.489   5.134   9.436  0.0409  0.1545 -0.0113
  222loPI   C4A 3546  14.501   5.173   9.069  0.0203  0.1099 -0.0287
  222loPI   C5A 3547  14.502   5.076   8.705  0.1436  0.0092  0.0645
  222loPI   C6A 3548  14.242   4.861   8.356  0.0385 -0.1251  0.0145
  222loPI   C1B 3549  14.718   4.654  10.256 -0.1926 -0.0748 -0.2056
  222loPI   C2B 3550  14.764   4.683   9.823 -0.2342 -0.2396 -0.2864
  222loPI   C3B 3551  14.812   4.691   9.348 -0.2324 -0.1183  0.0453
  222loPI   C4B 3552  14.800   4.773   8.959  0.1781  0.0619  0.1592
  223loPI    C1 3553  14.320   8.145  10.731  0.0140  0.1279  0.1563
  223loPI    C2 3554  13.955   8.003  10.814 -0.1025  0.0710 -0.4097
  223loPI    C3 3555  14.251   7.751  10.720  0.0403  0.1289 -0.1270
  223loPI   PO4 3556  14.295   8.337  10.633  0.1014 -0.0908 -0.1155
  223loPI   GL1 3557  14.118   8.535  10.234  0.2843 -0.2100 -0.4682
  223loPI   GL2 3558  13.841   8.327  10.356 -0.2151  0.3706 -0.0765
  223loPI   C1A 3559  14.136   8.667   9.835  0.2408 -0.1554  0.0938
  223loPI   C2A 3560  14.044   8.727   9.405 -0.1069 -0.0845  0.1208
  223loPI   C3A 3561  14.240   8.783   9.017  0.0146  0.0563  0.0700
  223loPI   C4A 3562  14.352   8.826   8.599 -0.2312 -0.0297 -0.0432
  223loPI   C5A 3563  14.565   8.728   8.362  0.3563 -0.0443 -0.4748
  223loPI   C6A 3564  14.727   8.751   7.990 -0.1513 -0.0487  0.0428
  223loPI   C1B 3565  13.856   8.223   9.899 -0.1848  0.4810  0.0243
  223loPI   C2B 3566  13.783   8.219   9.518 -0.1950 -0.1722 -0.1311
  223loPI   C3B 3567  13.851   8.248   9.129 -0.0505 -0.0499 -0.1811
  223loPI   C4B 3568  14.108   8.339   8.761  0.3648  0.1690 -0.0845
  224loPI    C1 3569   4.666  17.547  10.585  0.1737 -0.0094 -0.2503
  224loPI    C2 3570   4.969  17.321  10.717  0.0950  0.0793  0.0920
  224loPI    C3 3571   4.690  17.451  10.972 -0.0782  0.2345 -0.1712
  224loPI   PO4 3572   4.792  17.753  10.480  0.1699  0.1559  0.1687
  224loPI   GL1 3573   4.891  18.015  10.189 -0.1321 -0.1157  0.1567
  224loPI   GL2 3574   5.184  18.067   9.987 -0.0646 -0.0638 -0.1687
  224loPI   C1A 3575   4.738  17.911   9.729 -0.0436 -0.1612 -0.1967
  224loPI   C2A 3576   4.790  18.051   9.297  0.2084 -0.0773  0.1002
  224loPI   C3A 3577   4.769  17.967   8.860 -0.1965  0.0273 -0.0002
  224loPI   C4A 3578   4.595  18.021   8.432  0.0940  0.0030  0.2321
  224loPI   C5A 3579   4.521  18.134   8.010  0.4377 -0.3326  0.2173
  224loPI   C6A 3580   4.241  18.393   7.843  0.2517  0.0541  0.1471
  224loPI   C1B 3581   5.230  18.141   9.525  0.0952 -0.0786  0.0161
  224loPI   C2B 3582   5.273  18.071   9.078 -0.1077  0.1463 -0.0907
  224loPI   C3B 3583   5.236  17.958   8.641  0.2286  0.1585  0.0370
  224loPI   C4B 3584   4.988  17.766   8.280  0.1437 -0.2100  0.1602
  225loPI    C1 3585   7.319   9.626  11.267 -0.0040  0.0629 -0.0766
  225loPI    C2 3586   6.968   9.779  11.382  0.0548  0.2147 -0.0958
  225loPI    C3 3587   7.201   9.591  11.647 -0.1129 -0.0302 -0.1184
  225loPI   PO4 3588   7.237   9.483  11.021 -0.4286 -0.0572 -0.0091
  225loPI   GL1 3589   6.944   9.550  10.646  0.0965 -0.0695  0.3627
  225loPI   GL2 3590   7.310   9.473  10.501  0.1816  0.0393 -0.3635
  225loPI   C1A 3591   6.881   9.376  10.181 -0.1072  0.1165  0.2630
  225loPI   C2A 3592   6.919   9.421   9.693 -0.1136  0.1662 -0.3622
  225loPI   C3A 3593   6.837   9.336   9.320  0.0376  0.0405 -0.0250
  225loPI   C4A 3594   6.997   9.420   8.981 -0.0175  0.0990 -0.1328
  225loPI   C5A 3595   7.103   9.321   8.481 -0.1299  0.0371  0.0555
  225loPI   C6A 3596   7.452   9.332   8.219  0.1825 -0.2406  0.4405
  225loPI   C1B 3597   7.330   9.422  10.027  0.3239 -0.1172  0.0369
  225loPI   C2B 3598   7.399   9.447   9.565 -0.3748  0.0428 -0.0034
  225loPI   C3B 3599   7.492   9.436   9.191  0.0727  0.2166  0.0751
  225loPI   C4B 3600   7.475   9.556   8.738  0.0670  0.3001 -0.0479
  226loPI    C1 3601  14.700   7.153  10.934 -0.0701  0.0627 -0.1031
  226loPI    C2 3602  14.489   7.092  11.268 -0.0930  0.2173 -0.0889
  226loPI    C3 3603  14.465   7.443  11.077  0.1059  0.2149 -0.1195
  226loPI   PO4 3604  14.627   6.941  10.819  0.0427 -0.0253 -0.2922
  226loPI   GL1 3605  14.715   6.915  10.362 -0.1341 -0.1043  0.4546
  226loPI   GL2 3606  14.915   6.646  10.390 -0.4937 -0.1505  0.3195
  226loPI   C1A 3607  14.798   6.963  10.026 -0.1869 -0.1643  0.4321
  226loPI   C2A 3608  14.763   6.968   9.657 -0.0509 -0.0385 -0.0928
  226loPI   C3A 3609  14.846   6.939   9.199 -0.1121 -0.1909  0.1532
  226loPI   C4A 3610  14.743   7.022   8.743 -0.4031  0.1429 -0.2688
  226loPI   C5A 3611  14.638   7.336   8.596  0.0098 -0.0911  0.1393
  226loPI   C6A 3612  14.435   7.573   8.399  0.2926  0.1004  0.0976
  226loPI   C1B 3613  15.122   6.587   9.976  0.1276 -0.0734 -0.3670
  226loPI   C2B 3614  15.150   6.587   9.484  0.0801 -0.1740  0.0378
  226loPI   C3B 3615  15.091   6.556   9.042  0.1377  0.1146  0.0637
  226loPI   C4B 3616  15.040   6.605   8.652  0.1150 -0.0981 -0.1400
  227loPI    C1 3617   1.379  16.085  10.606 -0.0757  0.0897  0.0229
  227loPI    C2 3618   1.568  16.020  10.952 -0.2090 -0.3998  0.0107
  227loPI    C3 3619   1.189  16.146  10.953 -0.1686 -0.2775  0.0410
  227loPI   PO4 3620   1.567  16.103  10.434  0.0268 -0.0191  0.1015
  227loPI   GL1 3621   1.726  16.193  10.059 -0.0253 -0.0400  0.1310
  227loPI   GL2 3622   1.450  16.165   9.954  0.4746  0.0080 -0.1335
  227loPI   C1A 3623   1.922  16.296   9.709  0.1486 -0.1013  0.0594
  227loPI   C2A 3624   1.865  16.269   9.299  0.0477  0.0292 -0.1494
  227loPI   C3A 3625   1.865  16.370   8.831 -0.0371 -0.0065  0.1278
  227loPI   C4A 3626   1.874  16.492   8.362 -0.0321  0.0702 -0.1575
  227loPI   C5A 3627   2.185  16.422   8.082  0.0322 -0.0610  0.1297
  227loPI   C6A 3628   2.288  16.571   7.789 -0.2660 -0.2448 -0.0109
  227loPI   C1B 3629   1.404  16.203   9.562 -0.1848  0.0677 -0.1873
  227loPI   C2B 3630   1.248  16.155   9.116 -0.2425  0.2851 -0.0606
  227loPI   C3B 3631   1.300  16.299   8.784 -0.3375 -0.1089 -0.2654
  227loPI   C4B 3632   1.278  16.442   8.386 -0.0634  0.4246 -0.2966
  228loPI    C1 3633   7.820  12.198  10.798 -0.1654 -0.1506 -0.1647
  228loPI    C2 3634   8.154  12.109  11.001 -0.0725  0.5222  0.0012
  228loPI    C3 3635   7.803  11.953  11.115  0.1556 -0.0947 -0.1008
  228loPI   PO4 3636   7.943  12.227  10.549  0.2477 -0.2432  0.0316
  228loPI   GL1 3637   8.058  12.348  10.166 -0.2043  0.0188 -0.0078
  228loPI   GL2 3638   7.772  12.298  10.086  0.1635 -0.0591 -0.0898
  228loPI   C1A 3639   8.065  12.492   9.718 -0.1122  0.3715 -0.0135
  228loPI   C2A 3640   8.056  12.443   9.381 -0.0146  0.1031 -0.4238
  228loPI   C3A 3641   8.013  12.506   8.910  0.0541 -0.2230  0.1995
  228loPI   C4A 3642   7.897  12.701   8.488 -0.1806 -0.3143  0.0160
  228loPI   C5A 3643   7.933  13.116   8.234 -0.3343 -0.0371 -0.1175
  228loPI   C6A 3644   7.655  13.447   8.156  0.0607 -0.1333 -0.1538
  228loPI   C1B 3645   7.637  12.237   9.656 -0.1193  0.0450 -0.2807
  228loPI   C2B 3646   7.657  12.166   9.310 -0.2337 -0.0729 -0.3658
  228loPI   C3B 3647   7.814  12.061   8.928 -0.2169 -0.0055  0.1526
  228loPI   C4B 3648   7.953  12.217   8.522  0.0059  0.0402 -0.0076
  229loPI    C1 3649  11.871   3.977  11.155  0.0688  0.0286 -0.1880
  229loPI    C2 3650  11.887   3.667  11.408  0.0034 -0.0628 -0.2952
  229loPI    C3 3651  12.212   3.894  11.348 -0.0183  0.0432 -0.0258
  229loPI   PO4 3652  11.845   3.917  10.860 -0.2070  0.1030 -0.1083
  229loPI   GL1 3653  11.621   3.914  10.565 -0.2713  0.0633  0.0046
  229loPI   GL2 3654  11.521   3.585  10.380 -0.0836  0.2620 -0.1873
  229loPI   C1A 3655  11.787   3.977  10.154 -0.2050 -0.0727  0.0428
  229loPI   C2A 3656  11.784   3.980   9.702 -0.1992 -0.1190 -0.0148
  229loPI   C3A 3657  11.778   4.036   9.287 -0.3220 -0.1241 -0.7677
  229loPI   C4A 3658  11.954   4.056   8.933  0.0671  0.1683  0.1724
  229loPI   C5A 3659  11.937   4.035   8.539  0.0768 -0.0272 -0.2241
  229loPI   C6A 3660  11.817   3.901   8.135  0.1094  0.0934  0.1448
  229loPI   C1B 3661  11.604   3.569   9.926  0.2218 -0.0746 -0.0119
  229loPI   C2B 3662  11.549   3.568   9.494 -0.1938  0.1131 -0.1963
  229loPI   C3B 3663  11.621   3.600   9.037  0.0476  0.2499  0.2015
  229loPI   C4B 3664  11.736   3.535   8.613  0.0705 -0.4241  0.0005
  230loPI    C1 3665   1.600   9.011  11.278 -0.0263  0.0739  0.0581
  230loPI    C2 3666   1.576   9.401  11.365  0.2639  0.0635  0.1977
  230loPI    C3 3667   1.859   9.175  11.535  0.1323 -0.1980  0.0758
  230loPI   PO4 3668   1.584   9.027  11.026 -0.1335  0.1398 -0.0859
  230loPI   GL1 3669   1.827   8.923  10.692 -0.0627 -0.2295 -0.0600
  230loPI   GL2 3670   1.839   9.207  10.601 -0.1383 -0.2225  0.0848
  230loPI   C1A 3671   1.749   8.826  10.324 -0.1228  0.1252  0.2907
  230loPI   C2A 3672   1.701   8.777   9.906 -0.3590  0.0639  0.3161
  230loPI   C3A 3673   1.731   8.791   9.412  0.1934 -0.1679  0.0830
  230loPI   C4A 3674   1.754   8.857   8.997  0.0117 -0.0667 -0.0772
  230loPI   C5A 3675   1.665   8.743   8.496 -0.2508  0.1462 -0.2364
  230loPI   C6A 3676   1.252   8.868   8.281  0.0128  0.1376 -0.3128
  230loPI   C1B 3677   1.966   9.283  10.239  0.1434  0.1357 -0.3970
  230loPI   C2B 3678   1.950   9.299   9.786 -0.0477 -0.1266  0.1612
  230loPI   C3B 3679   1.975   9.233   9.299 -0.0115  0.0241 -0.0416
  230loPI   C4B 3680   1.984   9.258   8.863  0.1732  0.3124  0.2535
  231loPI    C1 3681  11.294  15.869  11.090  0.1449 -0.0346 -0.1920
  231loPI    C2 3682  11.209  15.562  10.849 -0.0698 -0.2236  0.1170
  231loPI    C3 3683  10.977  15.637  11.166  0.0249  0.2143  0.0884
  231loPI   PO4 3684  11.410  16.052  10.918 -0.2471  0.0388 -0.2656
  231loPI   GL1 3685  11.432  16.071  10.455 -0.2511 -0.1597  0.4228
  231loPI   GL2 3686  11.157  15.839  10.318  0.2308  0.1420 -0.0253
  231loPI   C1A 3687  11.630  16.098  10.039  0.0921  0.3806  0.1560
  231loPI   C2A 3688  11.657  16.218   9.617  0.0359 -0.1340 -0.1119
  231loPI   C3A 3689  11.737  16.130   9.247  0.1357  0.3593 -0.1876
  231loPI   C4A 3690  11.745  16.004   8.748  0.1305  0.2613 -0.0503
  231loPI   C5A 3691  11.923  16.077   8.320 -0.2537  0.5711  0.0324
  231loPI   C6A 3692  12.364  16.057   8.170 -0.1460 -0.3056  0.1504
  231loPI   C1B 3693  11.167  15.923   9.902 -0.0907  0.0008 -0.0242
  231loPI   C2B 3694  11.139  16.053   9.450  0.3651 -0.0350 -0.0700
  231loPI   C3B 3695  11.221  16.050   9.062 -0.0705 -0.1443  0.1513
  231loPI   C4B 3696  11.273  16.088   8.676 -0.1083  0.1106 -0.1804
  232loPI    C1 3697   5.241  13.570  10.333  0.0586 -0.1106 -0.0099
  232loPI    C2 3698   5.036  13.229  10.373  0.1262 -0.1392  0.0948
  232loPI    C3 3699   5.337  13.313  10.623  0.3840 -0.1980 -0.1902
  232loPI   PO4 3700   4.984  13.772  10.245 -0.2671 -0.2862 -0.1352
  232loPI   GL1 3701   4.811  13.989   9.927 -0.0055 -0.1760  0.0802
  232loPI   GL2 3702   4.496  13.874   9.976 -0.0006 -0.0530 -0.1786
  232loPI   C1A 3703   4.743  14.074   9.551 -0.0883 -0.2474  0.2201
  232loPI   C2A 3704   4.570  13.995   9.196  0.2525 -0.1121 -0.0459
  232loPI   C3A 3705   4.406  13.892   8.825  0.1903 -0.0006  0.0935
  232loPI   C4A 3706   4.273  13.998   8.417  0.0087  0.1748  0.4276
  232loPI   C5A 3707   4.083  13.931   7.981 -0.3257  0.0175  0.0179
  232loPI   C6A 3708   4.258  13.843   7.531 -0.0287  0.1641 -0.1523
  232loPI   C1B 3709   4.342  13.724   9.587 -0.0282  0.0779 -0.0481
  232loPI   C2B 3710   4.151  13.577   9.175 -0.1400 -0.1897 -0.0636
  232loPI   C3B 3711   4.041  13.434   8.773  0.2092 -0.2076 -0.2750
  232loPI   C4B 3712   4.246  13.536   8.364  0.0888  0.1064 -0.2181
  233loPI    C1 3713   8.251   3.061  11.335 -0.1347  0.1147  0.2334
  233loPI    C2 3714   8.482   3.078  11.662 -0.0442 -0.2788  0.1955
  233loPI    C3 3715   8.496   2.758  11.423 -0.1305 -0.0085 -0.1828
  233loPI   PO4 3716   8.345   3.340  11.198  0.0639  0.2647  0.1536
  233loPI   GL1 3717   8.196   3.643  10.829 -0.0825 -0.1776 -0.0392
  233loPI   GL2 3718   8.075   3.839  10.674 -0.2796  0.0414  0.2260
  233loPI   C1A 3719   8.225   3.585  10.321 -0.3224 -0.1371 -0.0062
  233loPI   C2A 3720   8.186   3.674   9.831 -0.0192  0.0868  0.1462
  233loPI   C3A 3721   8.231   3.617   9.378  0.2078 -0.0455  0.2706
  233loPI   C4A 3722   8.208   3.569   8.941 -0.0361  0.1400 -0.0485
  233loPI   C5A 3723   8.241   3.757   8.498  0.0014 -0.0403  0.0983
  233loPI   C6A 3724   8.466   4.114   8.440  0.0016  0.0593 -0.1286
  233loPI   C1B 3725   7.885   3.932  10.272 -0.0022 -0.1390 -0.3573
  233loPI   C2B 3726   7.937   4.049   9.831 -0.1746 -0.1693 -0.1928
  233loPI   C3B 3727   7.966   4.011   9.441  0.0062 -0.1539  0.1717
  233loPI   C4B 3728   7.933   4.029   8.997  0.6748 -0.1423 -0.1171
  234loPI    C1 3729   8.324  10.696  11.105  0.0851  0.2393 -0.0296
  234loPI    C2 3730   8.344  10.513  11.460  0.1974  0.0536 -0.1304
  234loPI    C3 3731   8.164  10.868  11.429 -0.1106 -0.0825  0.0494
  234loPI   PO4 3732   8.254  10.503  10.925 -0.4521 -0.2588 -0.2510
  234loPI   GL1 3733   8.178  10.615  10.532  0.4068 -0.3270  0.2213
  234loPI   GL2 3734   8.511  10.595  10.339 -0.2067  0.0463  0.2874
  234loPI   C1A 3735   7.927  10.469  10.050 -0.0347  0.2966 -0.1463
  234loPI   C2A 3736   7.895  10.409   9.547 -0.1368 -0.1597  0.0033
  234loPI   C3A 3737   7.866  10.464   9.079 -0.1696  0.0627 -0.2991
  234loPI   C4A 3738   7.866  10.438   8.549 -0.2334 -0.0525 -0.0942
  234loPI   C5A 3739   7.874  10.138   8.305 -0.1595 -0.0090  0.3177
  234loPI   C6A 3740   7.843   9.688   8.173  0.2701 -0.3036 -0.1430
  234loPI   C1B 3741   8.420  10.544   9.806  0.1353  0.0144  0.0334
  234loPI   C2B 3742   8.464  10.543   9.419 -0.1481  0.3127  0.0127
  234loPI   C3B 3743   8.403  10.521   9.045 -0.0488  0.1117  0.0545
  234loPI   C4B 3744   8.420  10.505   8.617 -0.2376 -0.0379 -0.2466
  235loPI    C1 3745   3.095  16.999  10.959 -0.1659  0.0120  0.0738
  235loPI    C2 3746   3.240  16.686  11.161 -0.0739 -0.0464 -0.0808
  235loPI    C3 3747   3.478  16.996  11.075 -0.1752  0.0848  0.1066
  235loPI   PO4 3748   2.987  16.884  10.746  0.1190  0.1256 -0.0369
  235loPI   GL1 3749   3.049  16.824  10.270 -0.1403  0.1744  0.0666
  235loPI   GL2 3750   3.132  16.459  10.285  0.2673  0.1696  0.1166
  235loPI   C1A 3751   2.756  16.886  10.009  0.0391 -0.2135  0.0645
  235loPI   C2A 3752   2.620  16.821   9.610 -0.2596 -0.0431 -0.1854
  235loPI   C3A 3753   2.582  16.824   9.151 -0.0099 -0.3611  0.1240
  235loPI   C4A 3754   2.664  16.963   8.759  0.2225  0.1359 -0.1706
  235loPI   C5A 3755   2.900  17.095   8.383  0.2935 -0.7422  0.1206
  235loPI   C6A 3756   3.155  17.310   8.040  0.1614 -0.2594 -0.2928
  235loPI   C1B 3757   2.931  16.423   9.827 -0.2472 -0.0195 -0.1521
  235loPI   C2B 3758   2.884  16.466   9.329  0.1813  0.0724  0.0620
  235loPI   C3B 3759   2.898  16.494   8.862  0.0210  0.0174 -0.1372
  235loPI   C4B 3760   2.706  16.495   8.516 -0.2626  0.0096  0.3321
  236loPI    C1 3761   8.914   5.244  11.040  0.0321 -0.1647  0.1528
  236loPI    C2 3762   8.988   5.582  11.242 -0.3323 -0.0478  0.0980
  236loPI    C3 3763   8.944   5.237  11.439 -0.0672 -0.0470  0.1630
  236loPI   PO4 3764   9.121   5.164  10.855  0.0641  0.3738  0.0603
  236loPI   GL1 3765   9.290   5.211  10.461 -0.1875  0.1860 -0.0400
  236loPI   GL2 3766   9.226   5.476  10.304 -0.0206 -0.4339  0.0273
  236loPI   C1A 3767   9.340   4.974  10.085 -0.0650 -0.3003  0.1017
  236loPI   C2A 3768   9.405   5.046   9.700  0.0510  0.3169 -0.1468
  236loPI   C3A 3769   9.504   5.089   9.323 -0.2607  0.0445  0.0547
  236loPI   C4A 3770   9.512   5.115   8.848  0.0727 -0.0746 -0.0963
  236loPI   C5A 3771   9.976   5.072   8.583  0.6617  0.0719 -0.0166
  236loPI   C6A 3772  10.158   4.714   8.291  0.2391 -0.2040 -0.2068
  236loPI   C1B 3773   9.121   5.511   9.887 -0.0761 -0.0529  0.0101
  236loPI   C2B 3774   9.151   5.462   9.419  0.1215 -0.2330  0.1788
  236loPI   C3B 3775   9.159   5.369   9.036 -0.0383 -0.0968  0.0859
  236loPI   C4B 3776   9.292   5.509   8.741  0.3922 -0.0563  0.2284
  237loPI    C1 3777   7.294   6.444  11.427 -0.2204 -0.0180 -0.0583
  237loPI    C2 3778   7.593   6.671  11.564 -0.1124 -0.2649  0.1232
  237loPI    C3 3779   7.310   6.540  11.815 -0.2482 -0.2208 -0.0056
  237loPI   PO4 3780   7.385   6.473  11.087  0.1237 -0.0956  0.0928
  237loPI   GL1 3781   7.507   6.265  10.785  0.0339  0.1341 -0.0258
  237loPI   GL2 3782   7.660   6.071  10.838  0.0525  0.2334  0.0183
  237loPI   C1A 3783   7.523   6.330  10.373  0.1544 -0.0507  0.0916
  237loPI   C2A 3784   7.533   6.279   9.868 -0.2817  0.2574 -0.2894
  237loPI   C3A 3785   7.391   6.334   9.481 -0.1232  0.0926  0.3670
  237loPI   C4A 3786   7.622   6.246   9.039 -0.2847 -0.0973  0.0207
  237loPI   C5A 3787   7.672   5.953   8.708 -0.1902  0.1259 -0.2656
  237loPI   C6A 3788   7.751   5.636   8.450  0.1349 -0.2872  0.1473
  237loPI   C1B 3789   7.778   5.884  10.391 -0.0810 -0.0539  0.3232
  237loPI   C2B 3790   7.790   5.861   9.966  0.3338  0.4238 -0.0815
  237loPI   C3B 3791   7.798   5.898   9.581  0.0026  0.2687 -0.0588
  237loPI   C4B 3792   7.867   5.798   9.154 -0.0629 -0.3464  0.0415
  238loPI    C1 3793   2.830   5.503  11.192 -0.0286 -0.0410 -0.1026
  238loPI    C2 3794   2.739   5.234  11.473  0.0884  0.0668  0.0403
  238loPI    C3 3795   2.453   5.376  11.232 -0.0169 -0.0107  0.1183
  238loPI   PO4 3796   3.007   5.365  11.109  0.0253 -0.1376  0.0403
  238loPI   GL1 3797   2.987   5.286  10.714  0.0165 -0.2748  0.1211
  238loPI   GL2 3798   2.659   5.177  10.749  0.2847 -0.1690 -0.0221
  238loPI   C1A 3799   3.083   5.293  10.296 -0.4412  0.3048 -0.0912
  238loPI   C2A 3800   3.200   5.369   9.931  0.0088  0.0943 -0.1282
  238loPI   C3A 3801   3.085   5.326   9.523 -0.3677 -0.0021 -0.0488
  238loPI   C4A 3802   3.146   5.408   9.092 -0.1280  0.2758  0.2656
  238loPI   C5A 3803   2.877   5.388   8.683  0.2691  0.1291 -0.0227
  238loPI   C6A 3804   2.690   5.078   8.407 -0.2830  0.0015 -0.1855
  238loPI   C1B 3805   2.604   5.229  10.320 -0.4959 -0.4647 -0.0266
  238loPI   C2B 3806   2.643   5.290   9.903 -0.3361  0.0016  0.1644
  238loPI   C3B 3807   2.532   5.311   9.560 -0.2033 -0.2176  0.2209
  238loPI   C4B 3808   2.653   5.327   9.247  0.0376  0.2724  0.0672
  239loPI    C1 3809   4.316   1.499  10.939 -0.0476  0.0376  0.0869
  239loPI    C2 3810   3.933   1.568  11.029 -0.1204 -0.2137 -0.0203
  239loPI    C3 3811   4.105   1.223  11.137  0.0561 -0.1309 -0.0335
  239loPI   PO4 3812   4.379   1.560  10.714 -0.2009 -0.1665 -0.2421
  239loPI   GL1 3813   4.485   1.804  10.415  0.1767  0.0977 -0.0125
  239loPI   GL2 3814   4.281   1.815  10.158 -0.2256  0.0145 -0.0796
  239loPI   C1A 3815   4.841   1.928  10.169  0.0979 -0.1702 -0.1243
  239loPI   C2A 3816   5.005   1.916   9.729  0.3127  0.2077 -0.2255
  239loPI   C3A 3817   5.109   1.923   9.308 -0.0906 -0.2253 -0.1965
  239loPI   C4A 3818   5.137   1.923   8.868  0.1719  0.0847 -0.1524
  239loPI   C5A 3819   5.349   2.071   8.505  0.0595  0.0398  0.0735
  239loPI   C6A 3820   5.729   2.217   8.342 -0.0154  0.0852  0.0996
  239loPI   C1B 3821   4.367   1.865   9.794 -0.1730 -0.2051 -0.0961
  239loPI   C2B 3822   4.587   1.793   9.419  0.0211 -0.2197 -0.0427
  239loPI   C3B 3823   4.590   1.892   8.976  0.1644  0.0883  0.1218
  239loPI   C4B 3824   4.629   1.915   8.526  0.0773  0.2502  0.1296
  240loPI    C1 3825   7.984   6.684  11.272 -0.0665  0.1972  0.1451
  240loPI    C2 3826   8.133   6.398  11.509  0.0459  0.1641  0.0357
  240loPI    C3 3827   8.153   6.781  11.622  0.2249  0.1608  0.0176
  240loPI   PO4 3828   7.952   6.585  11.044 -0.0985  0.1524  0.2377
  240loPI   GL1 3829   7.816   6.640  10.693  0.0943  0.0607  0.1005
  240loPI   GL2 3830   7.632   6.797  10.518  0.3018 -0.1190 -0.0807
  240loPI   C1A 3831   8.013   6.356  10.448  0.0316  0.0586 -0.1108
  240loPI   C2A 3832   8.004   6.276  10.079 -0.2328  0.0177 -0.1344
  240loPI   C3A 3833   8.034   6.311   9.691  0.1728 -0.0451 -0.2475
  240loPI   C4A 3834   8.086   6.274   9.248 -0.0427  0.0200 -0.0754
  240loPI   C5A 3835   8.077   6.380   8.788  0.1888 -0.0035 -0.1742
  240loPI   C6A 3836   7.789   6.554   8.418  0.0662 -0.1752 -0.2575
  240loPI   C1B 3837   7.717   6.725  10.098  0.0814  0.0633  0.3414
  240loPI   C2B 3838   7.717   6.783   9.654 -0.0196 -0.1254 -0.2323
  240loPI   C3B 3839   7.750   6.664   9.285 -0.0119  0.0779  0.0478
  240loPI   C4B 3840   7.826   6.783   8.843 -0.0662  0.3202  0.1976
  241loPI    C1 3841   3.787   9.847  11.168  0.2659  0.2154  0.1456
  241loPI    C2 3842   3.629  10.159  11.361 -0.1044  0.0056  0.1920
  241loPI    C3 3843   3.830   9.880  11.564  0.0452  0.1042  0.1808
  241loPI   PO4 3844   3.857   9.912  10.914  0.1588  0.2206 -0.0602
  241loPI   GL1 3845   3.857   9.693  10.540  0.0789 -0.1475  0.0963
  241loPI   GL2 3846   3.609   9.595  10.536  0.4184 -0.0508  0.3291
  241loPI   C1A 3847   4.013   9.484  10.147  0.0668  0.2889  0.2208
  241loPI   C2A 3848   4.064   9.499   9.786  0.0654  0.0502  0.3301
  241loPI   C3A 3849   3.990   9.515   9.400  0.1625 -0.1680  0.1566
  241loPI   C4A 3850   4.073   9.585   8.950  0.0315  0.2044  0.2641
  241loPI   C5A 3851   4.251   9.830   8.644  0.0452  0.0845  0.0208
  241loPI   C6A 3852   4.418  10.257   8.448  0.2892  0.0575 -0.0202
  241loPI   C1B 3853   3.461   9.516  10.189 -0.0287  0.1927  0.3162
  241loPI   C2B 3854   3.475   9.420   9.883 -0.0786  0.1281 -0.1333
  241loPI   C3B 3855   3.417   9.459   9.415 -0.0120  0.1351  0.1037
  241loPI   C4B 3856   3.602   9.590   9.041 -0.0547 -0.0024  0.1654
  242loPI    C1 3857  16.566  14.087  11.065 -0.0559 -0.0572  0.0679
  242loPI    C2 3858  16.880  14.181  10.836 -0.0690  0.1078  0.1164
  242loPI    C3 3859  16.793  14.403  11.158 -0.2398  0.0676  0.0987
  242loPI   PO4 3860  16.373  14.076  10.916  0.0785 -0.0833  0.2618
  242loPI   GL1 3861  16.212  14.214  10.524  0.2403 -0.1822 -0.1472
  242loPI   GL2 3862  16.129  13.900  10.510  0.0717  0.3561  0.0614
  242loPI   C1A 3863  16.259  14.296  10.083  0.2703  0.4199  0.5096
  242loPI   C2A 3864  16.232  14.214   9.676 -0.1323  0.0255  0.1183
  242loPI   C3A 3865  16.097  14.206   9.258  0.0527 -0.0379 -0.1607
  242loPI   C4A 3866  16.160  14.274   8.859 -0.0610 -0.0918 -0.2664
  242loPI   C5A 3867  16.189  14.148   8.481  0.0860 -0.4039  0.2362
  242loPI   C6A 3868  15.903  14.124   8.202 -0.0654  0.0060 -0.1104
  242loPI   C1B 3869  16.025  13.844  10.078 -0.0699 -0.1266 -0.1162
  242loPI   C2B 3870  16.015  13.796   9.653  0.1638  0.0401  0.1640
  242loPI   C3B 3871  15.850  13.749   9.245 -0.2376  0.0691  0.0313
  242loPI   C4B 3872  15.945  13.774   8.877 -0.0110  0.2151  0.1970
  243loPI    C1 3873   4.912   3.812  11.430 -0.0219 -0.0332 -0.2964
  243loPI    C2 3874   5.275   3.759  11.589 -0.0475 -0.1264 -0.2684
  243loPI    C3 3875   5.013   4.002  11.768 -0.0602 -0.1956 -0.1925
  243loPI   PO4 3876   4.927   3.794  11.189  0.0800  0.3094  0.1590
  243loPI   GL1 3877   5.064   3.757  10.845 -0.1356  0.2518  0.0442
  243loPI   GL2 3878   5.077   3.444  10.796  0.1499 -0.0385  0.0588
  243loPI   C1A 3879   4.847   4.000  10.486 -0.0238  0.1995  0.0670
  243loPI   C2A 3880   4.930   4.125  10.068 -0.0460 -0.0593 -0.3292
  243loPI   C3A 3881   5.121   4.195   9.675 -0.0288 -0.1690  0.1890
  243loPI   C4A 3882   5.047   4.204   9.190 -0.0573  0.1380 -0.0585
  243loPI   C5A 3883   5.179   4.140   8.748 -0.1974 -0.2679 -0.1232
  243loPI   C6A 3884   5.264   4.153   8.240 -0.1657  0.2771 -0.1518
  243loPI   C1B 3885   5.126   3.663  10.334 -0.1871 -0.1662 -0.1651
  243loPI   C2B 3886   5.336   3.761   9.894  0.2816 -0.5089  0.2349
  243loPI   C3B 3887   5.331   3.783   9.446  0.1434  0.2130 -0.0328
  243loPI   C4B 3888   5.389   3.843   9.148 -0.1512  0.2408  0.1564
  244loPI    C1 3889  11.122  14.686  10.843  0.0991 -0.0244 -0.0367
  244loPI    C2 3890  11.174  14.796  11.224 -0.2628  0.2735 -0.0680
  244loPI    C3 3891  10.806  14.721  11.086 -0.1138 -0.0399 -0.3070
  244loPI   PO4 3892  11.283  14.861  10.691 -0.1168  0.2889 -0.1106
  244loPI   GL1 3893  11.464  14.848  10.328  0.1177  0.0682 -0.1119
  244loPI   GL2 3894  11.666  14.593  10.446 -0.0297  0.0940  0.0424
  244loPI   C1A 3895  11.539  14.638   9.909 -0.0973  0.2238  0.0619
  244loPI   C2A 3896  11.499  14.712   9.442 -0.0979 -0.0031 -0.2416
  244loPI   C3A 3897  11.555  14.746   9.024  0.1302  0.1201  0.0085
  244loPI   C4A 3898  11.539  14.822   8.547 -0.0281  0.2740  0.1380
  244loPI   C5A 3899  11.311  15.128   8.283  0.2160  0.2904 -0.1140
  244loPI   C6A 3900  11.139  15.552   8.157 -0.0031 -0.0349  0.4082
  244loPI   C1B 3901  11.725  14.242  10.173 -0.2795 -0.3892 -0.1042
  244loPI   C2B 3902  11.797  14.273   9.637 -0.0384  0.0144  0.1022
  244loPI   C3B 3903  11.824  14.319   9.225 -0.5954  0.1797  0.0848
  244loPI   C4B 3904  11.814  14.396   8.769 -0.1157 -0.0484  0.1058
  245loPI    C1 3905   1.136   0.689  10.974  0.0134  0.1140 -0.0271
  245loPI    C2 3906   1.242   0.339  11.136  0.1706  0.0840 -0.1923
  245loPI    C3 3907   1.098   0.630  11.368  0.0975 -0.0678 -0.0448
  245loPI   PO4 3908   1.180   0.640  10.720  0.2393  0.0177  0.1272
  245loPI   GL1 3909   1.101   0.738  10.320  0.1474 -0.1409  0.3677
  245loPI   GL2 3910   0.895   0.524  10.281 -0.1306  0.0690  0.1963
  245loPI   C1A 3911   1.394   0.715   9.939  0.1615  0.3782 -0.1654
  245loPI   C2A 3912   1.498   0.589   9.621  0.0562 -0.2262  0.1310
  245loPI   C3A 3913   1.505   0.630   9.237 -0.1679  0.4196  0.0912
  245loPI   C4A 3914   1.500   0.548   8.785  0.2032  0.2404  0.2596
  245loPI   C5A 3915   1.362   0.604   8.380 -0.0081 -0.1395 -0.2592
  245loPI   C6A 3916   0.996   0.687   8.138 -0.2171 -0.0612 -0.1185
  245loPI   C1B 3917   0.886   0.606   9.871  0.0685  0.0808 -0.2847
  245loPI   C2B 3918   1.044   0.619   9.481 -0.0786  0.0287  0.0319
  245loPI   C3B 3919   1.051   0.610   9.034  0.0392  0.0400 -0.1144
  245loPI   C4B 3920   0.873   0.615   8.646  0.1855 -0.3088 -0.0940
  246loPI    C1 3921   3.037   6.604  11.150  0.0624  0.0396  0.0579
  246loPI    C2 3922   3.199   6.476  11.492  0.1548 -0.0919 -0.0339
  246loPI    C3 3923   2.928   6.770  11.497  0.1915 -0.0596  0.1470
  246loPI   PO4 3924   3.182   6.514  10.967 -0.2112  0.0063 -0.0350
  246loPI   GL1 3925   3.261   6.304  10.694 -0.2829  0.3614 -0.3066
  246loPI   GL2 3926   2.978   6.223  10.556 -0.3173 -0.4003 -0.1407
  246loPI   C1A 3927   3.521   6.310  10.254 -0.0053  0.1821  0.3088
  246loPI   C2A 3928   3.568   6.288   9.820  0.1279 -0.1015  0.2843
  246loPI   C3A 3929   3.477   6.345   9.374 -0.0869 -0.0859 -0.2880
  246loPI   C4A 3930   3.760   6.258   9.046  0.0648  0.0224  0.2454
  246loPI   C5A 3931   3.808   6.114   8.669  0.0449  0.1229 -0.1099
  246loPI   C6A 3932   3.747   5.972   8.227 -0.2413 -0.0438  0.0170
  246loPI   C1B 3933   2.945   6.257  10.089 -0.1014  0.1434  0.1325
  246loPI   C2B 3934   3.022   6.170   9.683  0.1449  0.5004 -0.0661
  246loPI   C3B 3935   2.982   6.352   9.313  0.0996  0.1063 -0.1520
  246loPI   C4B 3936   3.124   6.381   8.773 -0.3676  0.0860  0.0283
  247loPI    C1 3937  11.209   5.577  10.798 -0.0121 -0.1047 -0.0986
  247loPI    C2 3938  11.357   5.822  11.078  0.0687 -0.2464 -0.0158
  247loPI    C3 3939  11.107   5.527  11.181 -0.2138 -0.0569 -0.1454
  247loPI   PO4 3940  11.213   5.694  10.573 -0.1912  0.1962 -0.1779
  247loPI   GL1 3941  11.161   5.678  10.167 -0.0857 -0.3225  0.1167
  247loPI   GL2 3942  11.371   5.943  10.131 -0.0226 -0.0794 -0.1558
  247loPI   C1A 3943  11.169   5.701   9.689 -0.2608  0.0398  0.2133
  247loPI   C2A 3944  11.179   5.764   9.176  0.1462 -0.0635 -0.0208
  247loPI   C3A 3945  11.147   5.744   8.826  0.0196 -0.0562  0.1890
  247loPI   C4A 3946  11.144   5.866   8.409  0.0476 -0.1824 -0.1703
  247loPI   C5A 3947  11.062   6.384   8.235  0.0952 -0.0214  0.1951
  247loPI   C6A 3948  10.990   6.734   8.417 -0.1975 -0.1017  0.1254
  247loPI   C1B 3949  11.447   6.103   9.742  0.0426  0.0427 -0.1901
  247loPI   C2B 3950  11.392   6.184   9.324 -0.2109  0.0154  0.0928
  247loPI   C3B 3951  11.413   6.221   8.918 -0.1355  0.0616 -0.0074
  247loPI   C4B 3952  11.481   6.189   8.471  0.0209 -0.0248  0.1244
  248loPI    C1 3953   5.314  13.979  10.616 -0.0544  0.0276  0.2360
  248loPI    C2 3954   5.261  14.121  10.986 -0.2146 -0.1284  0.2746
  248loPI    C3 3955   4.986  14.190  10.704 -0.0379  0.0889  0.1518
  248loPI   PO4 3956   5.542  13.998  10.400 -0.0858 -0.0451  0.1394
  248loPI   GL1 3957   5.475  13.896   9.992  0.2268  0.0294  0.3964
  248loPI   GL2 3958   5.737  13.885   9.763 -0.4740  0.1119  0.1210
  248loPI   C1A 3959   5.177  13.746   9.570  0.2215  0.1537 -0.2599
  248loPI   C2A 3960   5.141  13.742   9.160  0.0338 -0.1510  0.2682
  248loPI   C3A 3961   4.855  13.801   8.829 -0.1291 -0.1000  0.1222
  248loPI   C4A 3962   4.730  13.727   8.516  0.0434 -0.0556  0.0984
  248loPI   C5A 3963   4.724  13.518   8.171 -0.0032 -0.1565  0.0902
  248loPI   C6A 3964   4.663  13.164   7.901 -0.0268 -0.1116 -0.1188
  248loPI   C1B 3965   5.588  13.844   9.400 -0.1643 -0.0065 -0.1208
  248loPI   C2B 3966   5.576  14.042   9.012  0.1182  0.2238 -0.0785
  248loPI   C3B 3967   5.268  14.006   8.634 -0.5181 -0.0695  0.1151
  248loPI   C4B 3968   5.165  13.814   8.225  0.1121  0.1197  0.0426
  249loPI    C1 3969  12.715   6.512  11.085 -0.2605 -0.0805 -0.2869
  249loPI    C2 3970  12.420   6.635  11.325  0.0123 -0.0158  0.0211
  249loPI    C3 3971  12.572   6.268  11.368  0.0712  0.0010 -0.0429
  249loPI   PO4 3972  12.630   6.734  10.813  0.1552 -0.2498 -0.0726
  249loPI   GL1 3973  12.204   6.876  10.563 -0.3164 -0.0188  0.3974
  249loPI   GL2 3974  12.282   7.185  10.461 -0.7055  0.1432  0.0674
  249loPI   C1A 3975  12.271   6.802  10.133  0.3462  0.1151  0.3359
  249loPI   C2A 3976  12.662   6.808   9.839 -0.2069 -0.0851  0.1539
  249loPI   C3A 3977  12.679   6.788   9.418 -0.1502  0.1399 -0.0484
  249loPI   C4A 3978  12.619   6.782   9.009 -0.0058  0.1902  0.2875
  249loPI   C5A 3979  12.719   6.652   8.505  0.1291 -0.3954 -0.1748
  249loPI   C6A 3980  12.562   6.831   8.105  0.4646  0.2898  0.4543
  249loPI   C1B 3981  12.452   7.282  10.141 -0.2846  0.1208 -0.0575
  249loPI   C2B 3982  12.406   7.204   9.748  0.0485 -0.4513  0.1312
  249loPI   C3B 3983  12.442   7.189   9.251 -0.1094 -0.1713  0.2298
  249loPI   C4B 3984  12.364   7.231   8.796 -0.0768 -0.1831  0.0647
  250loPI    C1 3985  10.538   0.977  11.199 -0.3590  0.2820  0.1587
  250loPI    C2 3986  10.863   1.202  11.262 -0.1225 -0.0306  0.0793
  250loPI    C3 3987  10.742   0.943  11.542 -0.1676 -0.0799  0.0145
  250loPI   PO4 3988  10.426   1.087  11.006  0.3256  0.1609  0.0941
  250loPI   GL1 3989  10.308   1.188  10.563 -0.0172  0.0281 -0.0160
  250loPI   GL2 3990  10.653   1.124  10.330  0.0908  0.3815 -0.0180
  250loPI   C1A 3991  10.113   1.111  10.145  0.0646 -0.1439  0.0860
  250loPI   C2A 3992   9.995   1.106   9.683 -0.1393  0.0792 -0.4710
  250loPI   C3A 3993  10.111   1.186   9.244  0.0812 -0.1831  0.0017
  250loPI   C4A 3994  10.085   1.113   8.810 -0.0366 -0.0638 -0.3481
  250loPI   C5A 3995  10.050   1.221   8.356 -0.1185  0.0345 -0.0152
  250loPI   C6A 3996   9.781   0.965   8.005  0.0178 -0.3654 -0.1928
  250loPI   C1B 3997  10.569   1.112   9.994 -0.1971 -0.0611  0.3032
  250loPI   C2B 3998  10.567   1.179   9.493  0.2137 -0.2475 -0.0921
  250loPI   C3B 3999  10.626   1.199   9.064  0.0878  0.1653  0.0715
  250loPI   C4B 4000  10.536   1.304   8.631  0.0510 -0.0804  0.1246
  251loPI    C1 4001  14.202  12.776  11.002 -0.0184  0.2472  0.0803
  251loPI    C2 4002  13.808  12.803  11.067 -0.0506  0.1440 -0.0683
  251loPI    C3 4003  14.042  12.620  11.335 -0.1295  0.0471 -0.0647
  251loPI   PO4 4004  14.246  12.924  10.766 -0.2895 -0.0435 -0.1946
  251loPI   GL1 4005  14.123  13.157  10.452 -0.3564 -0.2708 -0.2240
  251loPI   GL2 4006  14.434  13.341  10.697 -0.1937 -0.0395 -0.0475
  251loPI   C1A 4007  14.156  13.188  10.048 -0.0003 -0.0299  0.4178
  251loPI   C2A 4008  14.191  13.201   9.571  0.0939 -0.0424 -0.0766
  251loPI   C3A 4009  14.263  13.111   9.138  0.0966 -0.1418 -0.3845
  251loPI   C4A 4010  14.235  13.177   8.753 -0.1360 -0.0083 -0.0159
  251loPI   C5A 4011  14.149  13.420   8.382 -0.1949 -0.1424 -0.1328
  251loPI   C6A 4012  14.476  13.184   8.114 -0.0103  0.0285 -0.2416
  251loPI   C1B 4013  14.396  13.572  10.203 -0.0242  0.0304 -0.1512
  251loPI   C2B 4014  14.411  13.683   9.791 -0.2434 -0.1048  0.0383
  251loPI   C3B 4015  14.431  13.714   9.293  0.1246  0.3280  0.1759
  251loPI   C4B 4016  14.337  13.814   8.845 -0.2150 -0.0845 -0.0657
  252loPI    C1 4017  12.063   8.163  11.291  0.0487 -0.1466 -0.1800
  252loPI    C2 4018  11.876   7.822  11.384 -0.1538 -0.0514 -0.2341
  252loPI    C3 4019  12.181   7.949  11.608 -0.2191 -0.1561 -0.0842
  252loPI   PO4 4020  12.126   8.180  11.040  0.0421 -0.5083  0.2369
  252loPI   GL1 4021  12.089   8.199  10.593  0.3143  0.2180  0.1228
  252loPI   GL2 4022  12.343   8.215  10.396 -0.0176 -0.1119  0.0581
  252loPI   C1A 4023  11.889   8.117  10.115 -0.1958 -0.2932 -0.0726
  252loPI   C2A 4024  11.816   8.062   9.747 -0.2959  0.1124 -0.0652
  252loPI   C3A 4025  11.858   7.985   9.375 -0.1683  0.0163  0.2039
  252loPI   C4A 4026  11.889   8.109   8.883  0.3132 -0.1204  0.1905
  252loPI   C5A 4027  11.720   7.935   8.475 -0.0092  0.1683 -0.0416
  252loPI   C6A 4028  11.614   8.076   8.157 -0.1590  0.3681  0.1192
  252loPI   C1B 4029  12.336   8.122   9.859 -0.1067 -0.0620 -0.1393
  252loPI   C2B 4030  12.344   8.071   9.511 -0.3235  0.1477  0.3279
  252loPI   C3B 4031  12.351   8.104   9.081 -0.3007 -0.2066  0.2408
  252loPI   C4B 4032  12.515   8.200   8.572 -0.3207  0.0456 -0.2575
  253loPI    C1 4033   0.081  16.918  10.842 -0.1819  0.1761 -0.3491
  253loPI    C2 4034  -0.226  16.830  10.601 -0.2696 -0.2244 -0.0999
  253loPI    C3 4035  -0.275  17.091  10.900 -0.1809  0.2159 -0.4596
  253loPI   PO4 4036   0.345  16.805  10.699 -0.1243  0.0983  0.1157
  253loPI   GL1 4037   0.265  16.684  10.318  0.0461 -0.0131 -0.0122
  253loPI   GL2 4038   0.278  16.986  10.234  0.0228  0.0897 -0.0442
  253loPI   C1A 4039   0.056  16.576   9.941  0.0692  0.2339 -0.0981
  253loPI   C2A 4040  -0.117  16.619   9.511 -0.0604  0.1734  0.1253
  253loPI   C3A 4041  -0.110  16.622   9.046  0.0987 -0.1542 -0.3551
  253loPI   C4A 4042  -0.002  16.660   8.618  0.0527 -0.1234  0.2506
  253loPI   C5A 4043   0.116  16.349   8.202  0.2711  0.0452 -0.0502
  253loPI   C6A 4044  -0.071  15.987   7.921 -0.3885 -0.0874  0.4080
  253loPI   C1B 4045   0.162  17.060   9.764  0.0374 -0.0636  0.1895
  253loPI   C2B 4046   0.106  17.048   9.281 -0.2242  0.0195  0.0132
  253loPI   C3B 4047   0.114  17.070   8.906 -0.3254 -0.2515  0.1789
  253loPI   C4B 4048   0.065  17.208   8.427 -0.1930  0.1322  0.4390
  254loPI    C1 4049   7.154   6.898  11.435  0.0113  0.1978 -0.2252
  254loPI    C2 4050   7.027   7.098  11.757  0.1110  0.0028 -0.0618
  254loPI    C3 4051   7.361   7.213  11.568  0.0483  0.1220 -0.1017
  254loPI   PO4 4052   6.904   6.871  11.306 -0.1284  0.2271  0.1896
  254loPI   GL1 4053   7.091   6.808  10.859  0.0639 -0.0960 -0.1557
  254loPI   GL2 4054   6.690   6.759  10.823 -0.1104 -0.1626 -0.0571
  254loPI   C1A 4055   7.148   6.815  10.439  0.1131  0.0034 -0.0586
  254loPI   C2A 4056   7.259   6.756  10.062  0.0317  0.1601 -0.1375
  254loPI   C3A 4057   7.200   6.758   9.632  0.0239  0.0650 -0.2915
  254loPI   C4A 4058   7.242   6.666   9.159 -0.1136 -0.1737 -0.1037
  254loPI   C5A 4059   7.342   6.489   8.686  0.2416 -0.2440 -0.1512
  254loPI   C6A 4060   7.328   6.204   8.437 -0.0589 -0.2835 -0.0211
  254loPI   C1B 4061   6.620   6.671  10.329 -0.1207 -0.0430 -0.2888
  254loPI   C2B 4062   6.762   6.758  10.008  0.1877  0.0956  0.1164
  254loPI   C3B 4063   6.683   6.720   9.668  0.1415  0.0165  0.1484
  254loPI   C4B 4064   6.771   6.616   9.277  0.2472 -0.3065 -0.2284
  255loPI    C1 4065  13.082   6.896  11.199 -0.2423  0.0589 -0.0667
  255loPI    C2 4066  13.243   6.627  11.449 -0.0020  0.2914  0.0342
  255loPI    C3 4067  12.872   6.764  11.512 -0.1108  0.0161  0.0043
  255loPI   PO4 4068  13.175   6.796  10.914  0.1447 -0.1366  0.1322
  255loPI   GL1 4069  13.163   6.949  10.558  0.3253 -0.0675 -0.0608
  255loPI   GL2 4070  13.305   6.889  10.276 -0.0889 -0.0183 -0.3017
  255loPI   C1A 4071  12.963   7.188  10.104  0.2586 -0.0414  0.0736
  255loPI   C2A 4072  12.942   7.244   9.707 -0.1614 -0.2663 -0.0983
  255loPI   C3A 4073  12.949   7.216   9.233  0.0581 -0.1953  0.1344
  255loPI   C4A 4074  12.909   7.252   8.904  0.4208 -0.1084 -0.2030
  255loPI   C5A 4075  12.747   7.156   8.387  0.1294 -0.1478 -0.0423
  255loPI   C6A 4076  12.783   7.230   7.972 -0.0155  0.2192 -0.3932
  255loPI   C1B 4077  13.198   6.834   9.901 -0.4524  0.3010 -0.0531
  255loPI   C2B 4078  13.192   6.841   9.499  0.1944 -0.0143 -0.1521
  255loPI   C3B 4079  13.218   6.828   9.066 -0.0673  0.0283  0.1907
  255loPI   C4B 4080  13.203   6.903   8.608  0.1372  0.0836 -0.4624
  256loPI    C1 4081   4.076   6.588  11.404  0.0475  0.1845  0.1536
  256loPI    C2 4082   4.167   6.263  11.619 -0.0326  0.1166  0.0861
  256loPI    C3 4083   3.858   6.494  11.726 -0.0873  0.0694  0.0304
  256loPI   PO4 4084   4.057   6.541  11.186  0.2428 -0.3955 -0.1347
  256loPI   GL1 4085   3.816   6.491  10.796  0.1311  0.2977  0.0570
  256loPI   GL2 4086   4.144   6.345  10.691  0.2502 -0.0266 -0.3247
  256loPI   C1A 4087   3.690   6.749  10.543 -0.0507 -0.2414 -0.0185
  256loPI   C2A 4088   3.885   6.814  10.115 -0.0139 -0.0747 -0.1471
  256loPI   C3A 4089   3.722   6.752   9.734 -0.0003  0.0433  0.1544
  256loPI   C4A 4090   3.812   6.708   9.340  0.3942  0.2824  0.0894
  256loPI   C5A 4091   3.935   6.884   8.909 -0.0552  0.0811 -0.1298
  256loPI   C6A 4092   4.371   6.968   8.697  0.1030  0.0732  0.0527
  256loPI   C1B 4093   4.024   6.406  10.322 -0.0063 -0.0014 -0.1402
  256loPI   C2B 4094   4.134   6.326   9.899 -0.2254 -0.1769 -0.0033
  256loPI   C3B 4095   4.125   6.311   9.415 -0.0440  0.0735 -0.0154
  256loPI   C4B 4096   4.221   6.321   8.871 -0.0408  0.3791  0.1420
  257loPI    C1 4097   3.363   3.464  11.454  0.2219 -0.2275 -0.0662
  257loPI    C2 4098   3.604   3.574  11.754  0.0837 -0.0273 -0.0270
  257loPI    C3 4099   3.208   3.563  11.809  0.0459  0.1618 -0.2465
  257loPI   PO4 4100   3.451   3.490  11.196  0.1122  0.2111  0.0058
  257loPI   GL1 4101   3.631   3.282  10.889 -0.1685 -0.0093  0.0492
  257loPI   GL2 4102   3.492   3.168  10.565 -0.3051  0.0062  0.1360
  257loPI   C1A 4103   3.738   3.543  10.398 -0.4930  0.0218  0.2085
  257loPI   C2A 4104   3.731   3.555   9.976 -0.1625  0.2459  0.0343
  257loPI   C3A 4105   3.793   3.618   9.503  0.0917  0.0356 -0.2911
  257loPI   C4A 4106   3.900   3.633   9.068 -0.0126  0.0340 -0.4517
  257loPI   C5A 4107   3.967   3.644   8.651 -0.1083 -0.3044  0.0351
  257loPI   C6A 4108   3.773   3.441   8.328  0.2402  0.1601 -0.2099
  257loPI   C1B 4109   3.544   3.109  10.105 -0.0465  0.2025 -0.0192
  257loPI   C2B 4110   3.550   3.140   9.662  0.0635  0.1771 -0.0126
  257loPI   C3B 4111   3.656   3.178   9.220  0.0765 -0.1017  0.0933
  257loPI   C4B 4112   3.674   3.038   8.837 -0.2083 -0.3715 -0.2635
  258loPI    C1 4113   4.944  10.626  11.020 -0.0756  0.1987  0.1693
  258loPI    C2 4114   4.628  10.450  11.192 -0.0475 -0.1012 -0.0781
  258loPI    C3 4115   4.984  10.448  11.376 -0.1124 -0.0538  0.0489
  258loPI   PO4 4116   4.889  10.506  10.746 -0.1074 -0.2032 -0.0600
  258loPI   GL1 4117   4.641  10.360  10.431  0.1923 -0.1399  0.2304
  258loPI   GL2 4118   4.529  10.683  10.263  0.0864  0.3249 -0.1288
  258loPI   C1A 4119   4.798  10.187  10.068 -0.2569  0.0644  0.0469
  258loPI   C2A 4120   4.742  10.155   9.613  0.0515  0.1536 -0.2384
  258loPI   C3A 4121   4.758  10.147   9.134 -0.1867  0.1212  0.0017
  258loPI   C4A 4122   4.808   9.982   8.817  0.1477  0.0952  0.0328
  258loPI   C5A 4123   4.683   9.843   8.337 -0.0468 -0.1855 -0.0935
  258loPI   C6A 4124   4.354   9.862   8.007  0.1096  0.1128 -0.2214
  258loPI   C1B 4125   4.526  10.529   9.889  0.1234 -0.1589  0.2246
  258loPI   C2B 4126   4.513  10.544   9.387 -0.0512  0.1983  0.4352
  258loPI   C3B 4127   4.543  10.573   8.902 -0.2197 -0.2085  0.1964
  258loPI   C4B 4128   4.739  10.722   8.460  0.0888 -0.0671 -0.1383
  259loPI    C1 4129  16.485   9.330  11.092 -0.0557  0.1807 -0.0556
  259loPI    C2 4130  16.377   8.973  11.236  0.3921  0.1239  0.1583
  259loPI    C3 4131  16.192   9.305  11.363  0.0523 -0.0176  0.0452
  259loPI   PO4 4132  16.631   9.300  10.851  0.2375 -0.1166 -0.0149
  259loPI   GL1 4133  16.905   9.192  10.495 -0.0524  0.3494 -0.2078
  259loPI   GL2 4134  16.708   8.950  10.345 -0.3462 -0.0427 -0.2180
  259loPI   C1A 4135  16.898   9.450  10.140 -0.2582 -0.0693 -0.0798
  259loPI   C2A 4136  16.989   9.400   9.698  0.1083  0.0681 -0.0928
  259loPI   C3A 4137  16.998   9.420   9.212  0.0523 -0.2022 -0.1435
  259loPI   C4A 4138  17.096   9.532   8.759  0.1462 -0.2607 -0.2037
  259loPI   C5A 4139  17.383   9.437   8.326  0.0478 -0.1314 -0.1412
  259loPI   C6A 4140  17.437   9.166   7.939  0.3936  0.0938 -0.1374
  259loPI   C1B 4141  16.712   9.042   9.926 -0.0617  0.0929  0.1276
  259loPI   C2B 4142  16.711   8.924   9.505  0.0216 -0.0066 -0.0560
  259loPI   C3B 4143  16.823   8.910   9.097  0.4855 -0.1653 -0.2316
  259loPI   C4B 4144  16.808   9.088   8.803 -0.1798 -0.0178  0.2114
  260loPI    C1 4145   2.539   4.332  11.418 -0.1972  0.2446 -0.0262
  260loPI    C2 4146   2.905   4.236  11.547 -0.1594 -0.0290 -0.3259
  260loPI    C3 4147   2.618   4.326  11.810  0.0872  0.0622 -0.0834
  260loPI   PO4 4148   2.559   4.448  11.221  0.0259  0.0955 -0.4168
  260loPI   GL1 4149   2.413   4.586  10.898  0.0267 -0.1171  0.0368
  260loPI   GL2 4150   2.607   4.471  10.670 -0.1203  0.3147 -0.2938
  260loPI   C1A 4151   2.345   4.847  10.452 -0.0064 -0.3208  0.2263
  260loPI   C2A 4152   2.325   4.777   9.953  0.1367  0.1685 -0.1601
  260loPI   C3A 4153   2.512   4.825   9.598  0.2035 -0.1386  0.2175
  260loPI   C4A 4154   2.416   4.897   9.172  0.0260  0.1107 -0.0196
  260loPI   C5A 4155   2.428   4.730   8.819 -0.2014  0.0329  0.1789
  260loPI   C6A 4156   2.795   4.433   8.635 -0.1529  0.1704  0.0745
  260loPI   C1B 4157   2.613   4.439  10.274 -0.1666 -0.3067  0.0198
  260loPI   C2B 4158   2.718   4.414   9.892  0.2205  0.0405  0.1709
  260loPI   C3B 4159   2.775   4.373   9.464  0.0262 -0.2894  0.0734
  260loPI   C4B 4160   2.866   4.382   9.120 -0.2598 -0.1865  0.1037
  261loPI    C1 4161   7.879   5.073  11.202  0.0576 -0.0786  0.1503
  261loPI    C2 4162   8.032   5.426  11.310 -0.1103  0.0580 -0.0498
  261loPI    C3 4163   7.794   5.226  11.561 -0.0667  0.1171  0.0391
  261loPI   PO4 4164   7.829   5.172  10.915 -0.2991 -0.3027 -0.0171
  261loPI   GL1 4165   7.820   4.952  10.569 -0.0742 -0.1160  0.0039
  261loPI   GL2 4166   8.175   4.961  10.562  0.1113  0.1872 -0.0652
  261loPI   C1A 4167   7.817   4.877  10.084  0.1565 -0.1434  0.1040
  261loPI   C2A 4168   7.916   4.937   9.714  0.1004  0.1303 -0.2594
  261loPI   C3A 4169   7.874   4.949   9.277  0.1350 -0.3904 -0.2376
  261loPI   C4A 4170   8.014   4.878   8.795 -0.0083 -0.0523  0.0646
  261loPI   C5A 4171   8.140   4.881   8.336  0.1256 -0.0702  0.0573
  261loPI   C6A 4172   8.511   5.109   8.219  0.1457  0.1047  0.0271
  261loPI   C1B 4173   8.324   4.979  10.131  0.1517  0.3278 -0.1180
  261loPI   C2B 4174   8.379   5.001   9.626  0.0764  0.3432 -0.1182
  261loPI   C3B 4175   8.405   4.961   9.182  0.1969 -0.0309 -0.0755
  261loPI   C4B 4176   8.475   4.899   8.714  0.1979 -0.2990 -0.0281
  262loPI    C1 4177  17.771  15.955  10.752 -0.0430 -0.0286  0.0356
  262loPI    C2 4178  17.824  15.643  10.997  0.0536 -0.0256  0.0190
  262loPI    C3 4179  17.786  16.012  11.148  0.2080 -0.0114  0.0256
  262loPI   PO4 4180  17.689  15.810  10.575  0.2844 -0.0079  0.0213
  262loPI   GL1 4181  17.548  15.684  10.167 -0.0627  0.0464  0.0418
  262loPI   GL2 4182  17.358  15.426  10.237 -0.1446 -0.0240 -0.0984
  262loPI   C1A 4183  17.390  15.720   9.726 -0.1512  0.3095  0.0958
  262loPI   C2A 4184  17.269  15.680   9.306 -0.0006 -0.0714 -0.1253
  262loPI   C3A 4185  17.392  15.690   8.845  0.1675  0.2068  0.0791
  262loPI   C4A 4186  17.326  15.567   8.501  0.0296 -0.0533  0.5931
  262loPI   C5A 4187  17.328  15.776   8.069 -0.3320  0.1098  0.0747
  262loPI   C6A 4188  17.442  15.720   7.647 -0.4781  0.3181 -0.2547
  262loPI   C1B 4189  17.072  15.337   9.835 -0.2613 -0.3623  0.0509
  262loPI   C2B 4190  17.083  15.205   9.515 -0.0503 -0.1523 -0.1138
  262loPI   C3B 4191  17.122  15.226   9.124  0.0853 -0.0884  0.0780
  262loPI   C4B 4192  17.118  15.077   8.667  0.2851 -0.2488  0.1216
  263loPI    C1 4193   0.729   8.835  11.269  0.0875 -0.3141  0.0130
  263loPI    C2 4194   0.555   9.158  11.429  0.0037 -0.3242 -0.0566
  263loPI    C3 4195   0.801   8.932  11.650  0.0622 -0.2134 -0.0073
  263loPI   PO4 4196   0.676   8.852  10.989 -0.1032 -0.0493 -0.2004
  263loPI   GL1 4197   0.450   8.907  10.621 -0.0132 -0.0191 -0.0059
  263loPI   GL2 4198   0.179   8.724  10.667  0.1781 -0.1334  0.3588
  263loPI   C1A 4199   0.381   9.069  10.186  0.2934 -0.1832  0.1217
  263loPI   C2A 4200   0.474   9.044   9.731  0.0187 -0.2521 -0.3304
  263loPI   C3A 4201   0.423   9.117   9.330 -0.3465 -0.0622 -0.1993
  263loPI   C4A 4202   0.346   9.034   8.992  0.2465 -0.4882 -0.1935
  263loPI   C5A 4203   0.293   8.965   8.577  0.1007  0.1610 -0.1187
  263loPI   C6A 4204   0.152   8.673   8.380 -0.1917  0.4135  0.0308
  263loPI   C1B 4205   0.164   8.627  10.280 -0.1844 -0.0643 -0.2645
  263loPI   C2B 4206   0.240   8.527   9.845  0.0445 -0.0347  0.1663
  263loPI   C3B 4207   0.215   8.680   9.342  0.2222 -0.2238 -0.3413
  263loPI   C4B 4208   0.209   8.526   8.898 -0.2781 -0.0764 -0.3483
  264loPI    C1 4209   0.053   6.553  11.193  0.1058  0.0486 -0.1724
  264loPI    C2 4210  -0.218   6.847  11.195 -0.0204 -0.0662 -0.2088
  264loPI    C3 4211  -0.316   6.484  11.333  0.1665 -0.0636 -0.0662
  264loPI   PO4 4212   0.248   6.674  10.997  0.0042 -0.0997 -0.1921
  264loPI   GL1 4213   0.154   6.872  10.676 -0.0750 -0.0579  0.0430
  264loPI   GL2 4214   0.362   7.082  10.587  0.1306  0.0061 -0.0025
  264loPI   C1A 4215  -0.163   6.923  10.364  0.1507  0.0377  0.0562
  264loPI   C2A 4216  -0.119   6.904   9.935 -0.1065  0.1252  0.0086
  264loPI   C3A 4217  -0.135   6.823   9.453 -0.0571 -0.0853 -0.0139
  264loPI   C4A 4218  -0.014   6.755   9.054  0.0297 -0.1560  0.0157
  264loPI   C5A 4219   0.202   6.738   8.597 -0.0379  0.0626  0.0131
  264loPI   C6A 4220   0.618   6.730   8.395  0.0837  0.0452  0.2135
  264loPI   C1B 4221   0.298   6.964  10.144  0.0449 -0.2800 -0.0841
  264loPI   C2B 4222   0.352   6.845   9.769 -0.1488  0.1912 -0.2169
  264loPI   C3B 4223   0.373   6.907   9.339  0.1014 -0.3217  0.2209
  264loPI   C4B 4224   0.536   6.767   9.002  0.2170 -0.0488  0.4122
  265loPI    C1 4225   2.147   7.273  11.377 -0.0151  0.1985  0.0959
  265loPI    C2 4226   2.373   6.996  11.556  0.0380  0.1417 -0.0580
  265loPI    C3 4227   2.363   7.369  11.700  0.0087  0.0742  0.1172
  265loPI   PO4 4228   2.224   7.192  11.108 -0.1079 -0.2337 -0.0116
  265loPI   GL1 4229   2.452   7.183  10.750 -0.0949 -0.0808  0.1244
  265loPI   GL2 4230   2.314   6.871  10.754  0.2347 -0.0092  0.2182
  265loPI   C1A 4231   2.485   7.131  10.350 -0.0207  0.1962 -0.1951
  265loPI   C2A 4232   2.435   7.015   9.911 -0.2264 -0.0288 -0.1202
  265loPI   C3A 4233   2.468   7.155   9.466 -0.1320  0.2047 -0.1943
  265loPI   C4A 4234   2.449   7.112   9.123 -0.0110 -0.1773 -0.0865
  265loPI   C5A 4235   2.455   6.957   8.619 -0.0145  0.2679  0.3149
  265loPI   C6A 4236   2.479   7.266   8.277 -0.1809  0.2383  0.1370
  265loPI   C1B 4237   2.214   6.608  10.446 -0.1071 -0.1383 -0.1651
  265loPI   C2B 4238   2.215   6.532  10.061 -0.0223 -0.1685  0.1092
  265loPI   C3B 4239   2.224   6.550   9.564  0.0227  0.3549 -0.0564
  265loPI   C4B 4240   2.229   6.615   9.108 -0.1186 -0.3510 -0.0620
  266loPI    C1 4241   6.419  14.161  10.557  0.1257  0.0650 -0.0267
  266loPI    C2 4242   6.285  14.266  10.919 -0.0035  0.1190 -0.0895
  266loPI    C3 4243   6.131  13.947  10.733  0.3472 -0.1540  0.0759
  266loPI   PO4 4244   6.423  14.367  10.389  0.1032 -0.0146 -0.0609
  266loPI   GL1 4245   6.310  14.282  10.051 -0.3326 -0.0863  0.0587
  266loPI   GL2 4246   6.446  14.554   9.849  0.0889 -0.0210  0.0433
  266loPI   C1A 4247   6.654  14.146   9.762  0.0285 -0.2756  0.0212
  266loPI   C2A 4248   6.680  14.037   9.248 -0.1191 -0.3086 -0.1219
  266loPI   C3A 4249   6.831  13.711   8.994 -0.0067  0.2113  0.1375
  266loPI   C4A 4250   6.812  13.536   8.620  0.4116  0.1728 -0.1557
  266loPI   C5A 4251   6.926  13.503   8.254 -0.2974  0.1296  0.1021
  266loPI   C6A 4252   7.199  13.539   7.867  0.2058 -0.0583  0.0320
  266loPI   C1B 4253   6.468  14.505   9.446 -0.0416 -0.0606 -0.1567
  266loPI   C2B 4254   6.436  14.494   9.013  0.0193  0.1082  0.2203
  266loPI   C3B 4255   6.513  14.078   8.720 -0.0569 -0.2620 -0.0773
  266loPI   C4B 4256   6.506  13.782   8.341  0.2867 -0.1028 -0.1227
  267loPI    C1 4257   6.961  13.147  10.709  0.0372 -0.1516  0.0178
  267loPI    C2 4258   6.818  12.941  11.021 -0.0795 -0.0408  0.0386
  267loPI    C3 4259   6.809  13.341  11.025  0.1020 -0.0350 -0.0217
  267loPI   PO4 4260   6.909  13.008  10.520 -0.0544  0.0391 -0.2598
  267loPI   GL1 4261   6.574  13.027  10.146  0.3122  0.0576  0.1379
  267loPI   GL2 4262   6.826  13.289  10.002  0.0128  0.2337 -0.1126
  267loPI   C1A 4263   6.636  13.007   9.683  0.3627 -0.2325 -0.1693
  267loPI   C2A 4264   6.686  12.992   9.230  0.0465  0.0454 -0.0979
  267loPI   C3A 4265   6.673  13.070   8.863  0.0952  0.1462  0.1715
  267loPI   C4A 4266   6.713  12.974   8.453  0.0030 -0.0325 -0.0777
  267loPI   C5A 4267   6.879  13.003   7.944 -0.0314  0.0133 -0.2531
  267loPI   C6A 4268   6.902  13.093   7.504  0.3187  0.0054  0.1203
  267loPI   C1B 4269   6.999  13.393   9.493 -0.2164 -0.1973  0.0180
  267loPI   C2B 4270   7.079  13.228   9.106  0.0653 -0.0722  0.2668
  267loPI   C3B 4271   7.151  13.170   8.683 -0.2628 -0.0486 -0.1047
  267loPI   C4B 4272   7.300  13.120   8.284 -0.0163 -0.1701  0.0568
  268loPI    C1 4273  14.856   2.399  11.081  0.5045  0.0879  0.0446
  268loPI    C2 4274  14.745   2.498  11.452 -0.1386  0.1399 -0.1489
  268loPI    C3 4275  15.105   2.336  11.387 -0.0142  0.1336  0.4907
  268loPI   PO4 4276  14.758   2.626  10.914  0.1568 -0.2676  0.2427
  268loPI   GL1 4277  14.545   2.736  10.579  0.1780  0.0516 -0.1281
  268loPI   GL2 4278  14.326   2.646  10.660 -0.1013 -0.0141 -0.0494
  268loPI   C1A 4279  14.700   2.984  10.332 -0.1643 -0.2732 -0.0416
  268loPI   C2A 4280  14.820   3.027   9.912 -0.0005  0.3076  0.3739
  268loPI   C3A 4281  14.877   3.094   9.461 -0.0688  0.1794  0.2813
  268loPI   C4A 4282  14.952   2.961   9.089 -0.2284 -0.2865  0.1232
  268loPI   C5A 4283  14.950   2.867   8.645  0.2798  0.0807  0.0255
  268loPI   C6A 4284  14.705   3.031   8.259 -0.2877  0.3037 -0.1473
  268loPI   C1B 4285  14.129   2.461  10.370  0.1417 -0.0549 -0.1517
  268loPI   C2B 4286  14.120   2.525   9.874  0.4490 -0.3185  0.0284
  268loPI   C3B 4287  14.112   2.553   9.493  0.0550  0.1850  0.1732
  268loPI   C4B 4288  14.168   2.473   9.054  0.0484 -0.0656 -0.2429
  269loPI    C1 4289   2.391   6.065  11.237 -0.1251 -0.1331 -0.1434
  269loPI    C2 4290   2.212   5.759  11.422  0.0740 -0.0726  0.1575
  269loPI    C3 4291   2.268   6.104  11.616  0.0539  0.0811 -0.1053
  269loPI   PO4 4292   2.476   5.843  10.986  0.0341 -0.0390  0.2048
  269loPI   GL1 4293   2.255   5.706  10.596 -0.0302  0.1468 -0.0480
  269loPI   GL2 4294   2.178   5.497  10.863  0.0235  0.0875  0.1135
  269loPI   C1A 4295   2.279   5.725  10.191  0.2867  0.0507 -0.0667
  269loPI   C2A 4296   2.283   5.644   9.741  0.2845  0.1546  0.3262
  269loPI   C3A 4297   2.275   5.691   9.290  0.1175  0.1523  0.0691
  269loPI   C4A 4298   2.496   5.659   8.877 -0.1702 -0.1700 -0.0935
  269loPI   C5A 4299   2.954   5.891   8.721 -0.1354  0.0568 -0.1188
  269loPI   C6A 4300   3.303   5.950   8.514  0.1762 -0.3046 -0.3737
  269loPI   C1B 4301   2.084   5.243  10.544  0.1447  0.0284 -0.0082
  269loPI   C2B 4302   2.142   5.218  10.068 -0.2564  0.4389  0.0346
  269loPI   C3B 4303   2.056   5.167   9.677  0.0795 -0.1873 -0.0356
  269loPI   C4B 4304   2.065   5.242   9.251 -0.0030 -0.1867 -0.1062
  270loPI    C1 4305  16.738   2.875  11.218  0.0532  0.2045  0.0979
  270loPI    C2 4306  17.063   3.097  11.289  0.0082  0.1921  0.3507
  270loPI    C3 4307  16.905   2.875  11.582 -0.0497 -0.0390  0.1468
  270loPI   PO4 4308  16.762   2.989  10.941  0.2183 -0.0435 -0.1054
  270loPI   GL1 4309  16.915   2.870  10.635 -0.1989 -0.2206  0.0665
  270loPI   GL2 4310  17.160   2.599  10.555 -0.2047  0.2174  0.1642
  270loPI   C1A 4311  16.946   3.117  10.200  0.0044 -0.1587  0.0654
  270loPI   C2A 4312  17.020   3.137   9.728  0.1419  0.1905  0.1731
  270loPI   C3A 4313  17.023   3.194   9.291  0.0531  0.0336  0.1308
  270loPI   C4A 4314  16.994   3.174   8.802 -0.0200  0.2023  0.0111
  270loPI   C5A 4315  16.741   2.911   8.565  0.1897  0.1027  0.1838
  270loPI   C6A 4316  16.804   2.795   8.059 -0.0132  0.2389  0.0059
  270loPI   C1B 4317  17.269   2.634  10.136  0.2338 -0.2196  0.0184
  270loPI   C2B 4318  17.299   2.721   9.730  0.3211  0.1662 -0.0244
  270loPI   C3B 4319  17.315   2.789   9.247 -0.0135  0.0388  0.1831
  270loPI   C4B 4320  17.411   2.678   8.879  0.2949 -0.0880 -0.1409
  271loPI    C1 4321   0.167   3.860  11.425 -0.0028 -0.3745 -0.0898
  271loPI    C2 4322   0.495   3.835  11.652 -0.1416 -0.3029  0.1226
  271loPI    C3 4323   0.157   3.659  11.771 -0.3791  0.2328  0.2705
  271loPI   PO4 4324   0.221   3.747  11.221  0.0360  0.1716  0.4583
  271loPI   GL1 4325   0.158   3.491  10.821 -0.1656 -0.2681 -0.2624
  271loPI   GL2 4326  -0.111   3.451  10.710 -0.3155  0.1864 -0.0323
  271loPI   C1A 4327   0.373   3.555  10.481  0.1529  0.2251 -0.0632
  271loPI   C2A 4328   0.288   3.673  10.030 -0.2284  0.0270  0.3176
  271loPI   C3A 4329   0.436   3.749   9.553  0.2252 -0.0934  0.1117
  271loPI   C4A 4330   0.433   3.700   9.157 -0.3738 -0.3900  0.3773
  271loPI   C5A 4331   0.542   3.706   8.721  0.3636  0.3913  0.1093
  271loPI   C6A 4332   0.357   3.925   8.431  0.1999  0.0196 -0.2364
  271loPI   C1B 4333  -0.246   3.573  10.330  0.0379 -0.1452 -0.5092
  271loPI   C2B 4334  -0.184   3.633   9.903 -0.3364 -0.4659 -0.0410
  271loPI   C3B 4335  -0.052   3.596   9.492  0.0979  0.1924 -0.0507
  271loPI   C4B 4336  -0.082   3.665   9.164 -0.1788 -0.0196 -0.0378
  272loPI    C1 4337  12.661  14.260  11.036 -0.2628 -0.2643  0.1331
  272loPI    C2 4338  12.560  14.562  11.278  0.0651  0.0962 -0.1667
  272loPI    C3 4339  12.451  14.188  11.368  0.0184  0.2449  0.4340
  272loPI   PO4 4340  12.639  14.384  10.747 -0.0743 -0.0999 -0.3943
  272loPI   GL1 4341  12.705  14.448  10.388 -0.0404 -0.2240  0.2170
  272loPI   GL2 4342  12.970  14.656  10.429 -0.2833 -0.1606 -0.2889
  272loPI   C1A 4343  12.855  14.410  10.005 -0.0141  0.3461  0.0794
  272loPI   C2A 4344  12.799  14.430   9.494 -0.1063  0.0962  0.3539
  272loPI   C3A 4345  12.820  14.413   9.084 -0.0029 -0.3830  0.1411
  272loPI   C4A 4346  12.833  14.333   8.643  0.0956  0.3656 -0.2071
  272loPI   C5A 4347  12.699  14.209   8.290 -0.0029  0.1599  0.0155
  272loPI   C6A 4348  12.730  14.021   7.865  0.1302 -0.0648  0.0903
  272loPI   C1B 4349  13.033  14.863   9.982 -0.0216  0.0105  0.1276
  272loPI   C2B 4350  13.084  14.926   9.539  0.0014  0.1638  0.1076
  272loPI   C3B 4351  13.083  14.879   9.068 -0.0670 -0.0627  0.0553
  272loPI   C4B 4352  13.087  14.844   8.643 -0.3115  0.1171  0.0767
  273loPI    C1 4353   3.254  15.348  10.810  0.0436  0.1659  0.0150
  273loPI    C2 4354   3.411  14.989  10.886 -0.0312  0.1237 -0.0294
  273loPI    C3 4355   3.518  15.304  11.107  0.0638  0.0819 -0.0152
  273loPI   PO4 4356   3.288  15.386  10.556 -0.1999 -0.1828 -0.1345
  273loPI   GL1 4357   3.597  15.629  10.279  0.0141  0.1944  0.1535
  273loPI   GL2 4358   3.399  15.795  10.220  0.2329 -0.0052  0.1453
  273loPI   C1A 4359   3.524  15.506   9.810  0.0806 -0.1901 -0.1235
  273loPI   C2A 4360   3.387  15.238   9.502  0.2140 -0.0891  0.1973
  273loPI   C3A 4361   3.350  15.242   9.071 -0.0128  0.3742  0.1158
  273loPI   C4A 4362   3.613  15.210   8.601  0.1217 -0.0068  0.2290
  273loPI   C5A 4363   3.936  15.370   8.260 -0.2910 -0.2910  0.1210
  273loPI   C6A 4364   3.903  15.362   7.853 -0.1980 -0.2484  0.2112
  273loPI   C1B 4365   3.313  15.979   9.889 -0.1658 -0.0033 -0.3107
  273loPI   C2B 4366   3.274  16.154   9.487  0.0618  0.0903 -0.1661
  273loPI   C3B 4367   3.223  16.156   9.077 -0.0000 -0.0401  0.0807
  273loPI   C4B 4368   3.075  15.994   8.726  0.1073 -0.2194  0.0506
  274loPI    C1 4369   6.963  16.783  10.950 -0.0725 -0.0423 -0.0451
  274loPI    C2 4370   6.687  17.006  11.135  0.0692 -0.0731  0.2065
  274loPI    C3 4371   6.583  16.658  10.967 -0.1195  0.0998 -0.0404
  274loPI   PO4 4372   7.099  16.839  10.758  0.1157 -0.0821  0.2846
  274loPI   GL1 4373   7.222  17.208  10.464  0.0428  0.0529  0.1185
  274loPI   GL2 4374   7.041  17.207  10.227  0.0997 -0.2154  0.1876
  274loPI   C1A 4375   7.615  17.154  10.251 -0.0555  0.3253  0.0997
  274loPI   C2A 4376   7.700  17.355   9.816 -0.0835 -0.0524 -0.1530
  274loPI   C3A 4377   7.564  17.379   9.480  0.2631 -0.2733 -0.1308
  274loPI   C4A 4378   7.506  17.395   9.034  0.1889 -0.0992 -0.1492
  274loPI   C5A 4379   7.414  17.393   8.610 -0.1376 -0.0797 -0.5014
  274loPI   C6A 4380   7.370  17.690   8.240  0.2014  0.0581 -0.1064
  274loPI   C1B 4381   7.251  17.097   9.792 -0.1818 -0.2246 -0.0335
  274loPI   C2B 4382   7.181  17.068   9.328 -0.3321  0.0422  0.0957
  274loPI   C3B 4383   7.234  16.877   8.918 -0.2260  0.4144  0.0035
  274loPI   C4B 4384   7.361  16.628   8.605  0.1213 -0.1732 -0.0750
  275loPI    C1 4385  13.563   8.483  11.040 -0.0351 -0.0862 -0.0217
  275loPI    C2 4386  13.509   8.871  10.958 -0.0115 -0.1214 -0.2081
  275loPI    C3 4387  13.750   8.762  11.258 -0.2512  0.0136  0.0385
  275loPI   PO4 4388  13.621   8.391  10.802 -0.2754 -0.1735  0.1161
  275loPI   GL1 4389  13.342   8.557  10.555 -0.1857 -0.2538  0.0303
  275loPI   GL2 4390  13.653   8.763  10.454  0.1105  0.0204  0.2278
  275loPI   C1A 4391  13.165   8.671  10.175  0.1153 -0.0374  0.1043
  275loPI   C2A 4392  13.033   8.586   9.797  0.3430  0.0207  0.2317
  275loPI   C3A 4393  13.025   8.630   9.387 -0.0527  0.1563 -0.1060
  275loPI   C4A 4394  13.090   8.706   8.957  0.0645  0.3160  0.1310
  275loPI   C5A 4395  13.246   8.729   8.553 -0.0658 -0.1014  0.2281
  275loPI   C6A 4396  13.605   8.957   8.280  0.0213 -0.0949 -0.2914
  275loPI   C1B 4397  13.664   8.679  10.002 -0.0902 -0.4485  0.2408
  275loPI   C2B 4398  13.561   8.631   9.665 -0.1571 -0.1907 -0.1867
  275loPI   C3B 4399  13.520   8.696   9.177 -0.1318  0.0693 -0.1311
  275loPI   C4B 4400  13.707   8.637   8.799 -0.3117  0.0483 -0.1489
  276loPI    C1 4401  16.167  11.450  10.944 -0.1552  0.0860 -0.0263
  276loPI    C2 4402  16.292  11.145  10.718 -0.1391  0.1483 -0.1019
  276loPI    C3 4403  16.503  11.255  11.039 -0.0103  0.2389 -0.2167
  276loPI   PO4 4404  16.127  11.592  10.751 -0.0038 -0.1268 -0.1807
  276loPI   GL1 4405  16.027  11.517  10.384  0.1050 -0.5976 -0.2855
  276loPI   GL2 4406  16.108  11.200  10.257  0.2382 -0.4379 -0.1574
  276loPI   C1A 4407  15.874  11.580   9.943 -0.2694 -0.1658 -0.0065
  276loPI   C2A 4408  15.914  11.500   9.506  0.1573  0.1326 -0.1047
  276loPI   C3A 4409  16.076  11.534   9.131 -0.0822 -0.2600 -0.1430
  276loPI   C4A 4410  16.027  11.477   8.698 -0.0488 -0.1685 -0.5017
  276loPI   C5A 4411  15.784  11.664   8.476 -0.0177 -0.3308 -0.2967
  276loPI   C6A 4412  15.550  12.033   8.415 -0.2982 -0.0279  0.3418
  276loPI   C1B 4413  16.140  11.166   9.814  0.2151 -0.4204  0.1679
  276loPI   C2B 4414  16.190  11.114   9.372  0.0159  0.0387  0.0445
  276loPI   C3B 4415  16.370  11.107   8.984  0.0796  0.2458  0.0757
  276loPI   C4B 4416  16.368  11.113   8.564  0.1107  0.2582 -0.2455
  277loPI    C1 4417  17.762  14.264  10.915  0.2374 -0.1978 -0.1875
  277loPI    C2 4418  17.845  14.107  11.273 -0.0192 -0.1453 -0.1029
  277loPI    C3 4419  17.855  14.504  11.221  0.0441 -0.1545 -0.1615
  277loPI   PO4 4420  17.891  14.146  10.771 -0.2684 -0.2052 -0.2626
  277loPI   GL1 4421  17.949  14.216  10.294 -0.1762  0.0570 -0.1376
  277loPI   GL2 4422  18.136  14.471  10.160  0.0908  0.0307 -0.1860
  277loPI   C1A 4423  18.032  13.969   9.972  0.1061 -0.1565  0.2207
  277loPI   C2A 4424  18.026  13.924   9.505 -0.0742  0.3158 -0.0826
  277loPI   C3A 4425  17.929  13.972   9.135 -0.2251 -0.2914  0.0691
  277loPI   C4A 4426  18.055  13.951   8.770  0.0608 -0.1549  0.3378
  277loPI   C5A 4427  17.976  13.791   8.422 -0.3312  0.3186  0.1092
  277loPI   C6A 4428  17.899  13.879   8.031  0.2624  0.1247  0.3563
  277loPI   C1B 4429  18.189  14.463   9.717  0.3293 -0.0907  0.0560
  277loPI   C2B 4430  18.149  14.434   9.370 -0.0536  0.2490 -0.1379
  277loPI   C3B 4431  18.145  14.392   8.978  0.0943 -0.0485 -0.1171
  277loPI   C4B 4432  18.242  14.412   8.582 -0.0939  0.0849 -0.0742
  278loPI    C1 4433   2.800   0.564  10.922 -0.0857  0.0530 -0.0560
  278loPI    C2 4434   2.902   0.875  11.151  0.0453 -0.1920  0.2251
  278loPI    C3 4435   2.568   0.670  11.230 -0.1333 -0.0196 -0.0666
  278loPI   PO4 4436   2.831   0.691  10.650 -0.1109  0.2840  0.0060
  278loPI   GL1 4437   3.172   0.720  10.307  0.2807 -0.1314 -0.0414
  278loPI   GL2 4438   2.912   0.851  10.082 -0.3407  0.2431  0.2055
  278loPI   C1A 4439   3.359   1.022   9.983 -0.1089  0.2706  0.0380
  278loPI   C2A 4440   3.244   1.308   9.770 -0.0862 -0.4958 -0.1383
  278loPI   C3A 4441   3.136   1.343   9.333  0.0184 -0.3834 -0.2415
  278loPI   C4A 4442   3.202   1.374   8.905  0.1517  0.1106 -0.0949
  278loPI   C5A 4443   3.261   1.344   8.463  0.2501  0.0499 -0.0355
  278loPI   C6A 4444   3.576   1.352   8.176  0.1783  0.1092  0.0829
  278loPI   C1B 4445   2.945   0.873   9.601 -0.1816 -0.1553 -0.0654
  278loPI   C2B 4446   2.895   0.878   9.205  0.0368 -0.0069 -0.2438
  278loPI   C3B 4447   2.961   0.922   8.734  0.0869  0.0045 -0.1278
  278loPI   C4B 4448   2.930   0.918   8.325 -0.1428 -0.1448  0.0681
  279loPI    C1 4449   3.635   8.017  11.304  0.0166  0.3237 -0.2866
  279loPI    C2 4450   3.353   7.736  11.345  0.1484  0.2095 -0.1501
  279loPI    C3 4451   3.276   8.114  11.451 -0.0312  0.2274 -0.3389
  279loPI   PO4 4452   3.698   7.945  11.026  0.2061  0.2387 -0.0203
  279loPI   GL1 4453   3.432   7.773  10.652 -0.2805  0.0249  0.1188
  279loPI   GL2 4454   3.159   7.750  10.469  0.2503  0.0409  0.0574
  279loPI   C1A 4455   3.600   7.585  10.238  0.1889 -0.5386 -0.1136
  279loPI   C2A 4456   3.665   7.753   9.891 -0.3230 -0.1411  0.1762
  279loPI   C3A 4457   3.613   7.654   9.560  0.3223  0.3095  0.1129
  279loPI   C4A 4458   3.772   7.586   9.171 -0.0011 -0.1639  0.0282
  279loPI   C5A 4459   3.771   7.625   8.641 -0.0356  0.1445  0.1282
  279loPI   C6A 4460   3.598   7.191   8.452  0.0294 -0.2930 -0.1036
  279loPI   C1B 4461   3.133   7.688   9.973  0.1745 -0.1716  0.1646
  279loPI   C2B 4462   3.087   7.634   9.550  0.1215 -0.0525 -0.0437
  279loPI   C3B 4463   3.181   7.588   9.101 -0.0689  0.0870  0.0353
  279loPI   C4B 4464   3.258   7.456   8.693 -0.0484  0.0633 -0.2409
  280loPI    C1 4465  15.734   2.384  11.139  0.0044  0.0338  0.0762
  280loPI    C2 4466  15.880   2.720  11.298  0.1055 -0.0327  0.1249
  280loPI    C3 4467  15.545   2.559  11.444 -0.1625  0.2602 -0.1535
  280loPI   PO4 4468  15.803   2.431  10.795 -0.2091 -0.1375 -0.1703
  280loPI   GL1 4469  15.584   2.420  10.472 -0.0656 -0.0879 -0.1033
  280loPI   GL2 4470  15.519   2.061  10.472 -0.2749  0.0314  0.2742
  280loPI   C1A 4471  15.725   2.606  10.164 -0.0293  0.1711  0.0657
  280loPI   C2A 4472  15.652   2.670   9.812  0.3710 -0.1807 -0.2885
  280loPI   C3A 4473  15.814   2.712   9.366  0.2952  0.2312 -0.1791
  280loPI   C4A 4474  15.794   2.568   8.978 -0.3362 -0.0799  0.1076
  280loPI   C5A 4475  15.814   2.573   8.538  0.0859 -0.1563 -0.1502
  280loPI   C6A 4476  15.515   2.355   8.314  0.2495  0.1557  0.1002
  280loPI   C1B 4477  15.493   2.144  10.054 -0.1057 -0.0504 -0.0061
  280loPI   C2B 4478  15.503   2.244   9.501  0.1168 -0.2010 -0.0301
  280loPI   C3B 4479  15.548   2.127   9.098 -0.0419  0.1226  0.0479
  280loPI   C4B 4480  15.446   2.065   8.689  0.1720 -0.0561  0.1374
  281loPI    C1 4481  13.252   7.341  10.968 -0.3289  0.1456 -0.0095
  281loPI    C2 4482  13.421   7.518  11.285 -0.4669 -0.1026  0.2070
  281loPI    C3 4483  13.535   7.150  11.177 -0.5067 -0.0670  0.0401
  281loPI   PO4 4484  13.276   7.478  10.765  0.1099  0.0384  0.2754
  281loPI   GL1 4485  13.360   7.382  10.308  0.0079 -0.2818 -0.0348
  281loPI   GL2 4486  13.108   7.621  10.284 -0.2795  0.1586  0.3005
  281loPI   C1A 4487  13.400   7.285   9.879 -0.1068 -0.0005 -0.0512
  281loPI   C2A 4488  13.530   7.261   9.398  0.0744 -0.1826  0.1063
  281loPI   C3A 4489  13.460   7.316   8.913  0.1516  0.0766  0.1641
  281loPI   C4A 4490  13.590   7.471   8.487  0.0169 -0.2170  0.0662
  281loPI   C5A 4491  13.951   7.648   8.265  0.1085 -0.3341  0.0073
  281loPI   C6A 4492  14.154   7.842   7.848 -0.2097  0.1039  0.0932
  281loPI   C1B 4493  13.116   7.699   9.894 -0.2831  0.0715  0.1932
  281loPI   C2B 4494  13.210   7.743   9.375 -0.4110  0.2492 -0.0643
  281loPI   C3B 4495  13.287   7.751   8.823  0.2335  0.1272 -0.0848
  281loPI   C4B 4496  13.289   7.954   8.416 -0.3008 -0.2011  0.0112
  282loPI    C1 4497   9.399  17.464  11.037 -0.1448 -0.0172 -0.0058
  282loPI    C2 4498   9.551  17.332  11.382  0.0751 -0.1099 -0.1354
  282loPI    C3 4499   9.291  17.107  11.179 -0.3353  0.0982  0.1439
  282loPI   PO4 4500   9.610  17.489  10.882 -0.2659 -0.0467  0.0553
  282loPI   GL1 4501   9.599  17.528  10.406 -0.3758  0.2608  0.0078
  282loPI   GL2 4502   9.536  17.854  10.566  0.0614  0.0799 -0.2989
  282loPI   C1A 4503   9.490  17.520   9.999  0.1926  0.2055  0.1809
  282loPI   C2A 4504   9.458  17.584   9.612  0.0269  0.0498 -0.1327
  282loPI   C3A 4505   9.507  17.643   9.161 -0.0708 -0.1472  0.1286
  282loPI   C4A 4506   9.563  17.650   8.729 -0.1702 -0.0941  0.3777
  282loPI   C5A 4507   9.557  17.529   8.320 -0.3315 -0.1289 -0.0758
  282loPI   C6A 4508   9.273  17.555   7.981 -0.0163  0.1477  0.0670
  282loPI   C1B 4509   9.573  18.027  10.130 -0.1413  0.2063  0.2550
  282loPI   C2B 4510   9.620  18.014   9.738 -0.0143 -0.0705 -0.2378
  282loPI   C3B 4511   9.608  18.091   9.357 -0.2566  0.1520  0.1355
  282loPI   C4B 4512   9.653  18.105   8.883  0.1272  0.1341  0.2699
  283loPI    C1 4513   1.543  13.183  10.984 -0.1721  0.1712  0.1083
  283loPI    C2 4514   1.872  13.203  11.211 -0.0448  0.1490 -0.0717
  283loPI    C3 4515   1.553  13.427  11.300 -0.0353  0.0624  0.1896
  283loPI   PO4 4516   1.653  13.175  10.758  0.2444 -0.3230 -0.2221
  283loPI   GL1 4517   1.521  13.260  10.333 -0.1895 -0.1350 -0.0349
  283loPI   GL2 4518   1.878  13.400  10.388 -0.1670  0.1077 -0.1879
  283loPI   C1A 4519   1.306  13.288   9.979  0.1254  0.0019 -0.1627
  283loPI   C2A 4520   1.216  13.191   9.488  0.1168 -0.2256 -0.2259
  283loPI   C3A 4521   1.242  13.263   9.008  0.1802  0.3041 -0.2089
  283loPI   C4A 4522   1.211  13.153   8.538  0.0255  0.0202 -0.2151
  283loPI   C5A 4523   1.506  13.195   8.244  0.1372 -0.0675 -0.0643
  283loPI   C6A 4524   1.731  13.201   7.859 -0.0585  0.1344  0.0318
  283loPI   C1B 4525   1.977  13.234  10.041 -0.0393  0.0863  0.0868
  283loPI   C2B 4526   2.014  13.257   9.562 -0.1604  0.0707  0.0755
  283loPI   C3B 4527   1.996  13.213   9.212  0.2524  0.0629  0.1170
  283loPI   C4B 4528   1.737  13.244   8.907  0.2687 -0.0195  0.4068
  284loPI    C1 4529   5.125   7.533  11.475 -0.1538 -0.0088 -0.0551
  284loPI    C2 4530   5.390   7.589  11.768  0.0730 -0.0237 -0.2543
  284loPI    C3 4531   5.127   7.877  11.679  0.0523  0.0102 -0.0874
  284loPI   PO4 4532   5.219   7.363  11.313  0.0919 -0.0932 -0.4245
  284loPI   GL1 4533   5.339   7.256  10.930 -0.1748 -0.1864 -0.0998
  284loPI   GL2 4534   5.476   7.418  10.713 -0.0313  0.1922  0.1455
  284loPI   C1A 4535   5.361   6.999  10.556 -0.2759  0.3498  0.1865
  284loPI   C2A 4536   5.297   7.064  10.020 -0.0453  0.2879  0.0081
  284loPI   C3A 4537   5.352   6.953   9.531 -0.0840 -0.1548 -0.0915
  284loPI   C4A 4538   5.535   6.984   9.114  0.1755 -0.0868 -0.0424
  284loPI   C5A 4539   5.813   6.869   8.835 -0.0668  0.2464  0.0994
  284loPI   C6A 4540   6.034   6.787   8.490  0.1683 -0.3637  0.2807
  284loPI   C1B 4541   5.448   7.555  10.266  0.0374  0.0589  0.0003
  284loPI   C2B 4542   5.486   7.502   9.872 -0.1615  0.2234  0.0810
  284loPI   C3B 4543   5.601   7.401   9.478  0.1807 -0.0209 -0.4618
  284loPI   C4B 4544   5.846   7.391   9.011  0.0395 -0.0966 -0.0584
  285loPI    C1 4545   2.942  11.495  11.161 -0.0071  0.0013 -0.0940
  285loPI    C2 4546   3.139  11.830  11.255  0.1834 -0.0983 -0.1325
  285loPI    C3 4547   3.111  11.533  11.521  0.0435 -0.0660 -0.1103
  285loPI   PO4 4548   3.093  11.316  10.924 -0.1641 -0.2295 -0.2482
  285loPI   GL1 4549   3.214  11.219  10.537 -0.2466 -0.2515  0.4919
  285loPI   GL2 4550   2.800  11.306  10.484 -0.0338 -0.1058  0.0993
  285loPI   C1A 4551   3.380  11.220  10.131  0.0045  0.1110 -0.0333
  285loPI   C2A 4552   3.314  11.209   9.778 -0.0124  0.4914 -0.1290
  285loPI   C3A 4553   3.361  11.305   9.321  0.1428 -0.1656  0.2758
  285loPI   C4A 4554   3.247  11.212   8.917 -0.1902  0.1054  0.1069
  285loPI   C5A 4555   3.338  11.123   8.547  0.6509  0.4066  0.2083
  285loPI   C6A 4556   3.039  11.279   8.153  0.2288  0.0064  0.0444
  285loPI   C1B 4557   2.865  11.191  10.057 -0.0861 -0.2487  0.1362
  285loPI   C2B 4558   2.852  11.179   9.578 -0.1801 -0.2378 -0.2886
  285loPI   C3B 4559   2.818  11.102   9.146  0.0679 -0.2755 -0.1255
  285loPI   C4B 4560   2.808  11.101   8.748 -0.1468  0.0429 -0.2012
  286loPI    C1 4561   1.085   9.326  11.440  0.1742 -0.0254  0.1107
  286loPI    C2 4562   1.326   9.104  11.668  0.3662  0.0542 -0.0121
  286loPI    C3 4563   1.286   9.495  11.741 -0.0673 -0.0377  0.2819
  286loPI   PO4 4564   1.107   9.227  11.188  0.1427 -0.0745  0.2438
  286loPI   GL1 4565   1.136   9.196  10.721 -0.0015 -0.2936 -0.0625
  286loPI   GL2 4566   1.301   9.030  10.548  0.0784  0.2471 -0.1803
  286loPI   C1A 4567   0.844   9.138  10.331  0.0311 -0.1569 -0.1814
  286loPI   C2A 4568   0.947   9.110   9.906  0.0975  0.0166  0.0839
  286loPI   C3A 4569   0.959   9.175   9.429  0.2917 -0.0754  0.0773
  286loPI   C4A 4570   0.891   9.093   8.907  0.0604 -0.1805  0.0295
  286loPI   C5A 4571   0.756   9.070   8.489  0.1662 -0.0144  0.2579
  286loPI   C6A 4572   0.833   9.103   8.074 -0.0878  0.0311 -0.1285
  286loPI   C1B 4573   1.439   9.218  10.140 -0.1261  0.0611  0.1661
  286loPI   C2B 4574   1.502   9.188   9.662  0.1237 -0.1898 -0.1288
  286loPI   C3B 4575   1.401   9.171   9.198  0.0347  0.2325  0.2886
  286loPI   C4B 4576   1.411   9.124   8.734 -0.0526 -0.2811  0.1244
  287loPI    C1 4577   2.225   1.672  11.009  0.2807 -0.0236 -0.1431
  287loPI    C2 4578   1.968   1.513  11.271  0.0272  0.2652 -0.2114
  287loPI    C3 4579   2.308   1.680  11.400 -0.1269  0.4649 -0.0564
  287loPI   PO4 4580   2.119   1.884  10.869 -0.0536  0.3502  0.2988
  287loPI   GL1 4581   2.041   1.921  10.425 -0.3594  0.0701 -0.0710
  287loPI   GL2 4582   2.240   1.666  10.396  0.3827 -0.0241 -0.0106
  287loPI   C1A 4583   2.035   2.144  10.077 -0.1411 -0.1706 -0.3950
  287loPI   C2A 4584   2.143   2.067   9.735  0.0491  0.0392 -0.2578
  287loPI   C3A 4585   2.108   2.117   9.281  0.1044  0.4633  0.0255
  287loPI   C4A 4586   2.093   2.169   8.829 -0.0783 -0.2208 -0.1667
  287loPI   C5A 4587   1.915   2.080   8.379  0.0836 -0.0252  0.3514
  287loPI   C6A 4588   1.756   1.755   7.989  0.0038 -0.1670 -0.1725
  287loPI   C1B 4589   2.407   1.714  10.003  0.1533  0.0787 -0.1160
  287loPI   C2B 4590   2.360   1.671   9.521 -0.0277  0.1910  0.0187
  287loPI   C3B 4591   2.421   1.758   9.045  0.1397  0.1179  0.0726
  287loPI   C4B 4592   2.318   1.759   8.598 -0.0891  0.0092 -0.4114
  288loPI    C1 4593   8.000   2.548  11.163  0.3254  0.0163  0.2264
  288loPI    C2 4594   7.821   2.897  11.244  0.2346  0.0036  0.0846
  288loPI    C3 4595   7.967   2.673  11.542  0.0121  0.0130  0.2028
  288loPI   PO4 4596   8.237   2.604  11.042  0.1489  0.2691  0.1781
  288loPI   GL1 4597   8.248   2.681  10.625  0.0592 -0.2389 -0.1008
  288loPI   GL2 4598   7.910   2.552  10.670 -0.1367 -0.1620 -0.0261
  288loPI   C1A 4599   8.234   2.706  10.134  0.1702 -0.2203 -0.1439
  288loPI   C2A 4600   8.283   2.736   9.740 -0.0748 -0.1539 -0.0418
  288loPI   C3A 4601   8.320   2.683   9.347 -0.0324 -0.1950  0.3263
  288loPI   C4A 4602   8.382   2.761   8.915 -0.0806  0.2213  0.1026
  288loPI   C5A 4603   8.703   2.780   8.488 -0.1362  0.0821  0.0548
  288loPI   C6A 4604   8.647   2.501   8.160 -0.3014 -0.1431  0.0861
  288loPI   C1B 4605   7.735   2.675  10.344  0.2553  0.1453 -0.1138
  288loPI   C2B 4606   7.719   2.664   9.923 -0.2683  0.1403  0.1004
  288loPI   C3B 4607   7.851   2.606   9.483 -0.1406 -0.0587 -0.0555
  288loPI   C4B 4608   7.805   2.698   9.024 -0.2223 -0.0240  0.0833
  289loPI    C1 4609  11.219  10.118  11.195  0.1716  0.1960  0.0677
  289loPI    C2 4610  10.988  10.428  11.297  0.1454  0.2329 -0.1002
  289loPI    C3 4611  11.330  10.360  11.493 -0.1594 -0.0104  0.3660
  289loPI   PO4 4612  11.335  10.154  10.977  0.0283 -0.0744 -0.0882
  289loPI   GL1 4613  11.489   9.966  10.634  0.1365 -0.2641 -0.2726
  289loPI   GL2 4614  11.172   9.931  10.571 -0.2090 -0.0399  0.2872
  289loPI   C1A 4615  11.581   9.841  10.181 -0.0809  0.1736  0.1982
  289loPI   C2A 4616  11.685   9.882   9.719 -0.2382 -0.2810  0.2094
  289loPI   C3A 4617  11.630   9.883   9.257 -0.0338 -0.2161  0.2594
  289loPI   C4A 4618  11.612   9.804   8.791 -0.0438  0.2170  0.0240
  289loPI   C5A 4619  11.329   9.858   8.392  0.1211 -0.0504 -0.0198
  289loPI   C6A 4620  11.608   9.971   8.173 -0.1223  0.3565  0.1548
  289loPI   C1B 4621  11.064   9.804  10.134 -0.0052  0.3518  0.0876
  289loPI   C2B 4622  11.155   9.792   9.696 -0.0068 -0.1255  0.0957
  289loPI   C3B 4623  11.122   9.797   9.296 -0.1420  0.0693  0.1046
  289loPI   C4B 4624  11.089   9.738   8.877  0.0194 -0.1673  0.2541
  290loPI    C1 4625  13.607   0.114  11.118 -0.1360  0.0254 -0.1214
  290loPI    C2 4626  13.543   0.279  11.476 -0.0651  0.1346 -0.1586
  290loPI    C3 4627  13.896   0.327  11.294 -0.0776  0.0223 -0.2129
  290loPI   PO4 4628  13.418   0.203  10.982  0.0554  0.1816 -0.1574
  290loPI   GL1 4629  13.421   0.275  10.536  0.0423  0.2297 -0.3382
  290loPI   GL2 4630  13.207   0.144  10.380 -0.2598  0.2489  0.0832
  290loPI   C1A 4631  13.665   0.175  10.136 -0.3260  0.4575  0.0125
  290loPI   C2A 4632  13.532   0.192   9.687 -0.0675  0.2051 -0.2496
  290loPI   C3A 4633  13.468   0.195   9.246 -0.2661  0.1096 -0.0106
  290loPI   C4A 4634  13.564   0.160   8.820 -0.0606  0.2693  0.0895
  290loPI   C5A 4635  13.678   0.332   8.351  0.1061 -0.1199 -0.1199
  290loPI   C6A 4636  13.943   0.066   8.092  0.2056 -0.2786 -0.2655
  290loPI   C1B 4637  13.094   0.124   9.997 -0.1784 -0.1652 -0.1054
  290loPI   C2B 4638  13.034   0.148   9.549  0.1527  0.0178  0.2131
  290loPI   C3B 4639  12.931   0.171   9.209 -0.1737 -0.3051  0.1318
  290loPI   C4B 4640  13.073   0.274   8.769  0.0634  0.1074 -0.0160
  291loPI    C1 4641  11.931   5.232  10.962  0.0495  0.1366  0.3092
  291loPI    C2 4642  11.558   5.311  11.084  0.0092  0.1328  0.1893
  291loPI    C3 4643  11.846   5.585  11.132 -0.1147  0.3307 -0.1591
  291loPI   PO4 4644  11.866   5.146  10.676 -0.0836 -0.1092  0.0752
  291loPI   GL1 4645  11.985   4.736  10.444 -0.0411 -0.0389  0.1138
  291loPI   GL2 4646  11.649   4.771  10.428 -0.2415 -0.2368 -0.0570
  291loPI   C1A 4647  12.053   4.429  10.026 -0.1592  0.0716  0.1486
  291loPI   C2A 4648  12.044   4.474   9.637  0.1780 -0.1626 -0.0767
  291loPI   C3A 4649  12.042   4.476   9.133 -0.3189 -0.2925  0.2543
  291loPI   C4A 4650  12.191   4.430   8.615 -0.0047 -0.0492  0.1141
  291loPI   C5A 4651  11.972   4.585   8.286  0.0475  0.0196  0.1858
  291loPI   C6A 4652  12.001   4.924   8.080  0.0120  0.0710 -0.0640
  291loPI   C1B 4653  11.835   4.972  10.052 -0.1837  0.2197  0.0401
  291loPI   C2B 4654  11.850   4.955   9.586 -0.0317 -0.1424  0.4206
  291loPI   C3B 4655  11.784   4.957   9.148  0.2478 -0.0683 -0.4249
  291loPI   C4B 4656  11.883   4.886   8.711 -0.1804  0.1375 -0.2777
  292loPI    C1 4657  10.849   3.059  10.952  0.0401 -0.0548 -0.0345
  292loPI    C2 4658  10.562   3.330  11.015  0.2031  0.1431 -0.1307
  292loPI    C3 4659  10.746   3.157  11.326 -0.1471 -0.1259 -0.0663
  292loPI   PO4 4660  10.819   2.844  10.797 -0.0144  0.3104  0.4295
  292loPI   GL1 4661  10.593   2.760  10.415  0.2983 -0.1976 -0.1563
  292loPI   GL2 4662  10.746   2.420  10.364 -0.3478 -0.1251  0.1308
  292loPI   C1A 4663  10.393   2.912  10.142  0.2878  0.3690  0.0085
  292loPI   C2A 4664  10.248   2.901   9.726 -0.1804  0.0166 -0.1645
  292loPI   C3A 4665  10.340   3.000   9.320 -0.0923 -0.4406 -0.3791
  292loPI   C4A 4666  10.490   2.920   9.016 -0.4174 -0.0634  0.1570
  292loPI   C5A 4667  10.279   2.871   8.555  0.0716 -0.1579 -0.2946
  292loPI   C6A 4668  10.223   3.125   8.183 -0.0778  0.2060  0.2519
  292loPI   C1B 4669  10.666   2.480   9.990  0.1781 -0.2221  0.1391
  292loPI   C2B 4670  10.595   2.526   9.624  0.0826 -0.1391 -0.0595
  292loPI   C3B 4671  10.738   2.502   9.164  0.0132 -0.2040 -0.1080
  292loPI   C4B 4672  10.701   2.665   8.676 -0.2163  0.2572 -0.4428
  293loPI    C1 4673   1.410   5.525  11.280 -0.1984  0.2059 -0.0817
  293loPI    C2 4674   1.627   5.834  11.414 -0.2503  0.2645 -0.1321
  293loPI    C3 4675   1.382   5.638  11.663  0.2051 -0.0984  0.0440
  293loPI   PO4 4676   1.264   5.703  11.074  0.0154 -0.2986  0.2609
  293loPI   GL1 4677   1.132   5.627  10.614  0.1020  0.1327 -0.2191
  293loPI   GL2 4678   0.859   5.507  10.537  0.0970  0.0473  0.6332
  293loPI   C1A 4679   1.210   5.495  10.211  0.0352 -0.2210  0.2937
  293loPI   C2A 4680   1.265   5.532   9.771  0.0889 -0.0336  0.0226
  293loPI   C3A 4681   1.330   5.539   9.357 -0.1143 -0.0324  0.2644
  293loPI   C4A 4682   1.422   5.591   8.948 -0.0433 -0.2829 -0.2354
  293loPI   C5A 4683   1.312   5.387   8.630 -0.1468  0.1239 -0.1281
  293loPI   C6A 4684   1.016   5.145   8.390 -0.0258  0.1630  0.0833
  293loPI   C1B 4685   0.722   5.481  10.051  0.0786 -0.0693  0.1790
  293loPI   C2B 4686   0.749   5.502   9.634 -0.0258  0.3443 -0.0617
  293loPI   C3B 4687   0.802   5.505   9.237  0.0017  0.0524  0.0023
  293loPI   C4B 4688   0.812   5.455   8.777 -0.2762  0.0740  0.0655
  294loPI    C1 4689  14.956  16.462  11.311  0.0787 -0.1223 -0.1060
  294loPI    C2 4690  14.935  16.853  11.393  0.5096 -0.0927 -0.1144
  294loPI    C3 4691  14.840  16.584  11.674  0.0087  0.0136 -0.1735
  294loPI   PO4 4692  14.891  16.456  11.027 -0.0192 -0.1261  0.1816
  294loPI   GL1 4693  14.936  16.478  10.594  0.2517  0.0691  0.0743
  294loPI   GL2 4694  14.964  16.763  10.388  0.0909 -0.0101 -0.3714
  294loPI   C1A 4695  14.731  16.355  10.076  0.0234  0.1866  0.1188
  294loPI   C2A 4696  14.745  16.260   9.644  0.0437 -0.1156  0.2083
  294loPI   C3A 4697  14.767  16.351   9.215  0.0643  0.2386  0.2201
  294loPI   C4A 4698  14.759  16.298   8.807 -0.1893 -0.2660 -0.2673
  294loPI   C5A 4699  14.671  16.439   8.334 -0.1949 -0.1607  0.1833
  294loPI   C6A 4700  14.573  16.671   8.015 -0.0145  0.0975  0.2595
  294loPI   C1B 4701  15.049  16.780  10.067 -0.0968 -0.1604  0.1129
  294loPI   C2B 4702  14.944  16.775   9.566  0.0524 -0.0445  0.0916
  294loPI   C3B 4703  14.966  16.797   9.108  0.0116 -0.1591 -0.0904
  294loPI   C4B 4704  14.939  16.773   8.668  0.0787 -0.0108  0.1589
  295loPI    C1 4705  16.341   3.178  11.262 -0.1787  0.0006  0.2499
  295loPI    C2 4706  16.657   3.336  11.449  0.1114 -0.0060 -0.2199
  295loPI    C3 4707  16.450   3.041  11.622  0.2952  0.0688  0.1386
  295loPI   PO4 4708  16.402   3.339  11.031 -0.1597 -0.1161  0.1654
  295loPI   GL1 4709  16.515   3.329  10.647  0.1505  0.0306 -0.1831
  295loPI   GL2 4710  16.415   3.065  10.588  0.2686 -0.1774 -0.1799
  295loPI   C1A 4711  16.678   3.555  10.201  0.0260 -0.0604 -0.0252
  295loPI   C2A 4712  16.712   3.536   9.766 -0.1560  0.0041 -0.0754
  295loPI   C3A 4713  16.737   3.598   9.363  0.1333 -0.0395  0.1180
  295loPI   C4A 4714  16.692   3.553   8.937  0.1802  0.0641  0.0428
  295loPI   C5A 4715  16.574   3.492   8.608 -0.0196 -0.1732 -0.0032
  295loPI   C6A 4716  16.114   3.533   8.452  0.0769  0.2019  0.3694
  295loPI   C1B 4717  16.443   3.119  10.136  0.0267 -0.0348  0.0337
  295loPI   C2B 4718  16.493   3.131   9.681 -0.0646 -0.3311  0.0877
  295loPI   C3B 4719  16.543   3.130   9.287 -0.3484 -0.1795 -0.0326
  295loPI   C4B 4720  16.459   3.104   8.900 -0.1502 -0.2356  0.3078
  296loPI    C1 4721  17.811  10.778  11.235 -0.0627  0.0660  0.0150
  296loPI    C2 4722  18.189  10.877  11.151 -0.0800  0.1024 -0.0196
  296loPI    C3 4723  18.113  10.564  11.388 -0.0301  0.0361 -0.0906
  296loPI   PO4 4724  17.691  10.771  10.971  0.1183  0.0874 -0.0091
  296loPI   GL1 4725  17.792  10.752  10.531  0.0656 -0.2609 -0.0657
  296loPI   GL2 4726  17.929  10.387  10.410 -0.2339  0.0999 -0.1070
  296loPI   C1A 4727  17.616  10.890  10.122 -0.0107  0.0873  0.1424
  296loPI   C2A 4728  17.620  10.731   9.599  0.1195  0.2254  0.3139
  296loPI   C3A 4729  17.698  10.850   9.194  0.0017 -0.2020  0.1913
  296loPI   C4A 4730  17.743  10.733   8.781  0.2279  0.0330 -0.0492
  296loPI   C5A 4731  17.435  10.440   8.567  0.1635 -0.0704  0.0197
  296loPI   C6A 4732  17.284  10.005   8.488  0.4466 -0.3119 -0.1840
  296loPI   C1B 4733  17.950  10.437   9.970 -0.0012  0.0881 -0.3558
  296loPI   C2B 4734  17.959  10.325   9.580 -0.1928 -0.2463 -0.2185
  296loPI   C3B 4735  18.006  10.387   9.152  0.3390  0.0664 -0.0410
  296loPI   C4B 4736  17.883  10.229   8.747  0.1701  0.0031 -0.2906
  297loPI    C1 4737  11.297  13.024  11.088 -0.0736  0.1206  0.0262
  297loPI    C2 4738  11.498  12.824  11.371  0.0116  0.2332  0.0463
  297loPI    C3 4739  11.140  12.983  11.454 -0.0476  0.1069  0.0359
  297loPI   PO4 4740  11.527  13.043  10.921 -0.0280 -0.0254  0.1105
  297loPI   GL1 4741  11.525  12.993  10.383 -0.0952 -0.3357  0.0252
  297loPI   GL2 4742  11.339  13.218  10.518 -0.2907  0.1439  0.1119
  297loPI   C1A 4743  11.536  13.022   9.926 -0.0313  0.2228  0.0163
  297loPI   C2A 4744  11.634  12.925   9.493 -0.1254  0.1473 -0.3671
  297loPI   C3A 4745  11.705  12.977   9.078  0.0998 -0.3576  0.1050
  297loPI   C4A 4746  11.767  13.009   8.636  0.2002  0.1762 -0.0250
  297loPI   C5A 4747  11.838  12.838   8.246 -0.1960 -0.1272  0.0842
  297loPI   C6A 4748  11.648  12.707   7.847  0.0354 -0.2172  0.1176
  297loPI   C1B 4749  11.296  13.347  10.138  0.0636  0.1608  0.1161
  297loPI   C2B 4750  11.327  13.335   9.663 -0.2575 -0.1144 -0.1013
  297loPI   C3B 4751  11.412  13.333   9.248 -0.1271  0.0420  0.3104
  297loPI   C4B 4752  11.343  13.462   8.861 -0.0505 -0.0995  0.0536
  298loPI    C1 4753   2.926   4.217  11.054  0.0908  0.0448  0.3628
  298loPI    C2 4754   3.158   4.438  10.814  0.1181 -0.1732  0.1852
  298loPI    C3 4755   3.179   4.485  11.211 -0.1301  0.3915  0.1410
  298loPI   PO4 4756   2.891   4.011  10.884  0.0992  0.3248  0.0586
  298loPI   GL1 4757   2.928   4.120  10.448 -0.0105 -0.0909 -0.2585
  298loPI   GL2 4758   3.052   3.897  10.335 -0.1514  0.4605 -0.3869
  298loPI   C1A 4759   3.186   4.435  10.239  0.0204 -0.0417  0.0912
  298loPI   C2A 4760   3.216   4.372   9.794  0.0939 -0.3618 -0.2565
  298loPI   C3A 4761   3.341   4.581   9.484 -0.1952 -0.1013 -0.3377
  298loPI   C4A 4762   3.316   4.552   9.001  0.0995 -0.0518 -0.1620
  298loPI   C5A 4763   3.274   4.568   8.659 -0.0089 -0.0663  0.1769
  298loPI   C6A 4764   3.041   4.768   8.263 -0.1145 -0.0352 -0.0700
  298loPI   C1B 4765   2.931   3.944   9.845  0.1539 -0.1154 -0.1508
  298loPI   C2B 4766   3.074   3.978   9.384  0.1109 -0.2247 -0.0363
  298loPI   C3B 4767   3.096   3.986   8.961 -0.0806 -0.1077  0.2591
  298loPI   C4B 4768   3.145   4.123   8.530 -0.0218  0.1033 -0.0593
  299loPI    C1 4769   8.148   5.862  11.493 -0.1752 -0.0247 -0.0523
  299loPI    C2 4770   8.011   5.960  11.855  0.2581  0.0483  0.0982
  299loPI    C3 4771   8.127   5.584  11.780  0.0345 -0.0005 -0.0118
  299loPI   PO4 4772   8.054   5.895  11.223  0.1997 -0.0526  0.1138
  299loPI   GL1 4773   8.179   6.016  10.731  0.1208  0.0847 -0.1124
  299loPI   GL2 4774   8.010   5.659  10.796  0.0748 -0.0497  0.2024
  299loPI   C1A 4775   8.268   5.885  10.239  0.1878  0.3353 -0.3427
  299loPI   C2A 4776   8.264   5.905   9.817  0.1019 -0.0996  0.0566
  299loPI   C3A 4777   8.354   5.903   9.423 -0.2066  0.3559  0.0575
  299loPI   C4A 4778   8.303   5.902   8.939 -0.0516 -0.0444 -0.3085
  299loPI   C5A 4779   8.224   5.714   8.661  0.2104  0.1404  0.1897
  299loPI   C6A 4780   8.190   5.317   8.586  0.0283 -0.0235  0.1561
  299loPI   C1B 4781   8.024   5.414  10.388  0.0940  0.0183 -0.0779
  299loPI   C2B 4782   8.058   5.378  10.001 -0.0778  0.1972 -0.2052
  299loPI   C3B 4783   8.064   5.354   9.521 -0.1369  0.0253 -0.4024
  299loPI   C4B 4784   8.173   5.371   9.071  0.1459  0.0025  0.2557
  300loPI    C1 4785  12.944  16.024  10.630 -0.4572 -0.1366  0.0672
  300loPI    C2 4786  13.233  15.748  10.654 -0.0890  0.2461  0.1748
  300loPI    C3 4787  12.998  15.820  10.970 -0.2114  0.0337  0.1340
  300loPI   PO4 4788  13.078  16.359  10.575  0.0103 -0.0678 -0.2583
  300loPI   GL1 4789  13.257  16.582  10.319  0.2416  0.0584 -0.2152
  300loPI   GL2 4790  13.551  16.508  10.334  0.0619  0.1952 -0.1437
  300loPI   C1A 4791  13.372  16.725   9.894  0.1156  0.0267 -0.1146
  300loPI   C2A 4792  13.438  16.825   9.472  0.0338 -0.1852  0.1737
  300loPI   C3A 4793  13.528  16.732   9.006 -0.2343  0.1115  0.1878
  300loPI   C4A 4794  13.557  16.815   8.561 -0.2120 -0.0395  0.3401
  300loPI   C5A 4795  13.539  17.006   8.064  0.0122 -0.2372 -0.1706
  300loPI   C6A 4796  13.611  17.528   7.943  0.1592  0.0196 -0.0602
  300loPI   C1B 4797  13.757  16.225  10.002 -0.0714  0.2766 -0.3956
  300loPI   C2B 4798  13.784  16.301   9.554 -0.0490 -0.1366 -0.2136
  300loPI   C3B 4799  13.731  16.219   9.187  0.1616  0.3352 -0.1193
  300loPI   C4B 4800  13.788  16.280   8.732 -0.1931 -0.3016 -0.0133
  301loPI    C1 4801   8.660  11.450  10.822 -0.2794 -0.1409 -0.2004
  301loPI    C2 4802   8.586  11.799  11.002  0.0161 -0.0883 -0.1761
  301loPI    C3 4803   8.784  11.512  11.197  0.1239 -0.1210 -0.3325
  301loPI   PO4 4804   8.731  11.492  10.612  0.1931 -0.0345  0.0558
  301loPI   GL1 4805   8.913  11.673  10.248 -0.1292 -0.1315 -0.0007
  301loPI   GL2 4806   8.651  11.799  10.105 -0.0184 -0.0165 -0.0244
  301loPI   C1A 4807   8.956  11.445   9.881  0.0557  0.3382  0.1255
  301loPI   C2A 4808   8.869  11.394   9.497 -0.0440 -0.3408 -0.1808
  301loPI   C3A 4809   8.917  11.415   9.102 -0.0927  0.0872 -0.0484
  301loPI   C4A 4810   8.940  11.286   8.622  0.0095 -0.1371  0.1326
  301loPI   C5A 4811   8.686  11.028   8.342  0.5401 -0.0093  0.0916
  301loPI   C6A 4812   8.533  10.977   7.961 -0.0932 -0.0030  0.0042
  301loPI   C1B 4813   8.589  11.737   9.669  0.1656  0.2871 -0.1552
  301loPI   C2B 4814   8.513  11.701   9.247 -0.0653  0.0612 -0.0271
  301loPI   C3B 4815   8.628  11.724   8.872 -0.2139 -0.1810 -0.0127
  301loPI   C4B 4816   8.615  11.856   8.486  0.1306 -0.0907  0.1176
  302loPI    C1 4817  15.575   3.549  11.605  0.1403 -0.0701  0.1498
  302loPI    C2 4818  15.482   3.857  11.841  0.0550  0.0175  0.0037
  302loPI    C3 4819  15.808   3.638  11.917  0.1411  0.1707  0.0824
  302loPI   PO4 4820  15.497   3.698  11.302  0.2918  0.2321  0.0485
  302loPI   GL1 4821  15.584   3.630  10.872  0.4150 -0.2238  0.0984
  302loPI   GL2 4822  15.852   3.836  10.833  0.1313  0.1743  0.2245
  302loPI   C1A 4823  15.600   3.385  10.523 -0.1648  0.1541  0.2844
  302loPI   C2A 4824  15.541   3.420  10.121  0.2784 -0.1235 -0.0555
  302loPI   C3A 4825  15.694   3.446   9.734 -0.2537 -0.3494 -0.0080
  302loPI   C4A 4826  15.659   3.501   9.292 -0.0615 -0.0037 -0.0729
  302loPI   C5A 4827  15.725   3.539   8.808 -0.1743  0.1487 -0.2206
  302loPI   C6A 4828  15.782   3.915   8.596  0.1953 -0.2469 -0.0598
  302loPI   C1B 4829  15.740   3.951  10.393  0.1625  0.1008  0.1489
  302loPI   C2B 4830  15.828   3.891  10.008 -0.0242  0.2076 -0.2745
  302loPI   C3B 4831  15.896   3.900   9.618  0.0345  0.0832 -0.2200
  302loPI   C4B 4832  15.929   3.957   9.200 -0.0062 -0.0298 -0.1395
  303loPI    C1 4833  14.976   1.886  11.201  0.0375  0.0101  0.0921
  303loPI    C2 4834  14.593   1.999  11.233  0.0933  0.1665  0.2210
  303loPI    C3 4835  14.714   1.655  11.397 -0.0995 -0.1416 -0.2623
  303loPI   PO4 4836  15.018   1.869  10.973 -0.0562 -0.0713 -0.1346
  303loPI   GL1 4837  15.075   1.874  10.559 -0.3409  0.0367 -0.0790
  303loPI   GL2 4838  14.805   1.671  10.474  0.5572  0.2091 -0.0831
  303loPI   C1A 4839  15.006   2.061  10.222  0.0664 -0.3123  0.0172
  303loPI   C2A 4840  14.923   2.176   9.810 -0.0984  0.0362 -0.1983
  303loPI   C3A 4841  15.004   2.149   9.325 -0.1311  0.2235  0.3520
  303loPI   C4A 4842  15.048   2.155   8.955  0.1537  0.1101 -0.2098
  303loPI   C5A 4843  14.880   1.993   8.659  0.0499 -0.1162  0.2006
  303loPI   C6A 4844  15.125   1.987   8.251 -0.1955 -0.1124 -0.3137
  303loPI   C1B 4845  14.812   1.615  10.101  0.1981  0.2757 -0.1740
  303loPI   C2B 4846  14.789   1.618   9.651  0.3157  0.1704  0.0075
  303loPI   C3B 4847  14.732   1.728   9.256 -0.0501 -0.0239 -0.0122
  303loPI   C4B 4848  14.820   1.586   8.907 -0.0082  0.2458  0.0499
  304loPI    C1 4849   5.273   9.445  11.169  0.1135  0.0980 -0.0143
  304loPI    C2 4850   5.024   9.257  10.919  0.1046  0.0629  0.0208
  304loPI    C3 4851   5.414   9.169  10.916  0.1099  0.0869 -0.0043
  304loPI   PO4 4852   5.190   9.677  11.146  0.0002  0.0357 -0.2976
  304loPI   GL1 4853   5.254   9.580  10.635 -0.0607 -0.0025  0.1035
  304loPI   GL2 4854   5.355   9.339  10.446  0.1739 -0.0642 -0.3453
  304loPI   C1A 4855   5.054   9.703  10.271 -0.1213  0.2519 -0.2057
  304loPI   C2A 4856   4.997   9.688   9.831 -0.1071 -0.0741 -0.0394
  304loPI   C3A 4857   5.000   9.760   9.397  0.2784 -0.0069  0.2036
  304loPI   C4A 4858   5.008   9.502   8.972  0.0191  0.3294  0.1313
  304loPI   C5A 4859   5.080   9.621   8.523 -0.1218  0.1516 -0.0828
  304loPI   C6A 4860   5.458   9.716   8.310  0.2198 -0.2953  0.1152
  304loPI   C1B 4861   5.330   9.335  10.052 -0.1567  0.2728 -0.0045
  304loPI   C2B 4862   5.415   9.272   9.652  0.0309  0.1238 -0.3595
  304loPI   C3B 4863   5.391   9.223   9.100 -0.1750  0.1014 -0.2119
  304loPI   C4B 4864   5.408   9.177   8.645 -0.0971  0.0114 -0.0825
  305loPI    C1 4865   7.396   5.131  11.248 -0.0699 -0.2324 -0.3360
  305loPI    C2 4866   7.166   4.971  11.534 -0.1057  0.0860 -0.1824
  305loPI    C3 4867   7.530   4.821  11.462 -0.2065 -0.1735 -0.1629
  305loPI   PO4 4868   7.336   5.111  11.044  0.1210 -0.1681 -0.1299
  305loPI   GL1 4869   7.252   5.307  10.709 -0.2293 -0.2062 -0.1881
  305loPI   GL2 4870   7.565   5.416  10.634 -0.4888 -0.1176 -0.0508
  305loPI   C1A 4871   7.041   5.269  10.368  0.5855 -0.1480 -0.2121
  305loPI   C2A 4872   7.097   5.318   9.902 -0.0306  0.0084 -0.1893
  305loPI   C3A 4873   7.015   5.312   9.464 -0.1409 -0.2775  0.2968
  305loPI   C4A 4874   7.152   5.371   9.018 -0.0070  0.0224  0.0350
  305loPI   C5A 4875   7.151   5.552   8.519 -0.1363  0.0274 -0.0083
  305loPI   C6A 4876   6.848   5.731   8.257  0.0022  0.0826 -0.1801
  305loPI   C1B 4877   7.485   5.267  10.231  0.0749 -0.1475 -0.1487
  305loPI   C2B 4878   7.555   5.403   9.793  0.1523 -0.0929 -0.0250
  305loPI   C3B 4879   7.559   5.396   9.339 -0.3272  0.2727 -0.0574
  305loPI   C4B 4880   7.699   5.363   8.933  0.0186 -0.1637  0.1257
  306loPI    C1 4881  10.114   5.008  10.687  0.2694 -0.0715  0.0666
  306loPI    C2 4882  10.346   5.326  10.618  0.0774  0.0340 -0.1054
  306loPI    C3 4883  10.051   5.349  10.887 -0.0343  0.0517 -0.2287
  306loPI   PO4 4884  10.310   4.799  10.708 -0.1046 -0.4864 -0.0915
  306loPI   GL1 4885  10.545   4.579  10.381 -0.0907 -0.3331  0.3847
  306loPI   GL2 4886  10.514   4.311  10.196 -0.1559  0.2779 -0.1201
  306loPI   C1A 4887  10.670   4.789   9.985  0.0154  0.4054  0.1174
  306loPI   C2A 4888  10.595   4.711   9.619  0.1622 -0.0018 -0.3895
  306loPI   C3A 4889  10.698   4.834   9.264 -0.1966 -0.0282  0.1729
  306loPI   C4A 4890  10.773   4.897   8.795  0.0507 -0.0690 -0.1071
  306loPI   C5A 4891  10.595   4.991   8.326 -0.1267 -0.0193  0.1802
  306loPI   C6A 4892  10.319   5.221   8.178 -0.2619  0.1552 -0.0284
  306loPI   C1B 4893  10.478   4.288   9.800 -0.1334  0.0756 -0.1415
  306loPI   C2B 4894  10.457   4.256   9.346  0.1390  0.2354 -0.0696
  306loPI   C3B 4895  10.487   4.342   8.889 -0.0328  0.2345 -0.2228
  306loPI   C4B 4896  10.501   4.355   8.405  0.2173 -0.0020  0.1014
  307loPI    C1 4897  13.053  14.643  11.031  0.1452 -0.0460  0.0680
  307loPI    C2 4898  13.271  14.853  11.292 -0.1060  0.1576  0.1177
  307loPI    C3 4899  13.097  14.512  11.406  0.1646  0.0054  0.0838
  307loPI   PO4 4900  12.822  14.834  10.872  0.5516 -0.2822 -0.0406
  307loPI   GL1 4901  12.637  15.009  10.489  0.0896 -0.0256 -0.2881
  307loPI   GL2 4902  12.842  15.245  10.341 -0.0061  0.1708 -0.3384
  307loPI   C1A 4903  12.530  14.865  10.072  0.1836  0.2199 -0.0660
  307loPI   C2A 4904  12.502  14.830   9.676  0.1718 -0.0562 -0.2388
  307loPI   C3A 4905  12.636  14.828   9.299  0.2439  0.1233 -0.0774
  307loPI   C4A 4906  12.635  14.816   8.871  0.5141 -0.0481  0.1573
  307loPI   C5A 4907  12.552  14.799   8.468 -0.0944  0.3637  0.3429
  307loPI   C6A 4908  12.588  14.685   7.961 -0.2748 -0.0020  0.1450
  307loPI   C1B 4909  12.744  15.306   9.931 -0.0860 -0.1162  0.1200
  307loPI   C2B 4910  12.803  15.342   9.494  0.2023  0.0550 -0.2295
  307loPI   C3B 4911  12.841  15.347   9.056 -0.1334 -0.1817 -0.1391
  307loPI   C4B 4912  12.823  15.299   8.645  0.1010  0.0071  0.0121
  308loPI    C1 4913  16.003  17.477  10.848 -0.2287 -0.2384 -0.0174
  308loPI    C2 4914  16.088  17.389  11.229 -0.0379 -0.0056 -0.0035
  308loPI    C3 4915  15.734  17.550  11.135 -0.1095 -0.1207  0.0656
  308loPI   PO4 4916  16.205  17.203  10.702  0.2527  0.1886 -0.0038
  308loPI   GL1 4917  16.302  17.019  10.338  0.1290  0.1113 -0.2485
  308loPI   GL2 4918  16.028  16.966  10.206 -0.0453  0.0614 -0.2467
  308loPI   C1A 4919  16.526  16.933   9.955  0.5730 -0.0350  0.0658
  308loPI   C2A 4920  16.466  16.943   9.568  0.2139 -0.1797 -0.3207
  308loPI   C3A 4921  16.516  16.911   9.162 -0.2075 -0.2449 -0.3472
  308loPI   C4A 4922  16.492  16.853   8.790 -0.1974 -0.2177  0.1178
  308loPI   C5A 4923  16.546  16.880   8.417  0.1922 -0.2295  0.1630
  308loPI   C6A 4924  16.612  17.237   8.213  0.1126 -0.0505 -0.3994
  308loPI   C1B 4925  15.984  16.945   9.723  0.0894  0.2422  0.0980
  308loPI   C2B 4926  16.023  16.873   9.270  0.2046 -0.3290 -0.1175
  308loPI   C3B 4927  15.907  16.810   8.845 -0.1086  0.2793 -0.2367
  308loPI   C4B 4928  16.014  16.753   8.465  0.0627  0.2411  0.0160
  309loPI    C1 4929   4.441   3.880  11.125 -0.0382  0.0014  0.0206
  309loPI    C2 4930   4.389   3.681  11.469 -0.0259  0.2441  0.1653
  309loPI    C3 4931   4.498   4.066  11.475  0.2548  0.1738 -0.1150
  309loPI   PO4 4932   4.277   3.747  11.007 -0.0223 -0.1917 -0.2512
  309loPI   GL1 4933   4.247   3.541  10.677 -0.3455 -0.2656 -0.1234
  309loPI   GL2 4934   4.588   3.574  10.562  0.3774 -0.2925  0.0745
  309loPI   C1A 4935   4.218   3.603  10.190 -0.0523 -0.0918 -0.1580
  309loPI   C2A 4936   4.176   3.612   9.815 -0.1068 -0.2739 -0.2330
  309loPI   C3A 4937   4.313   3.662   9.387  0.3218  0.3930  0.0163
  309loPI   C4A 4938   4.389   3.675   9.001 -0.1207  0.0455 -0.2861
  309loPI   C5A 4939   4.475   3.643   8.622 -0.1194 -0.0261  0.1846
  309loPI   C6A 4940   4.329   3.761   8.299 -0.1439  0.1230 -0.0635
  309loPI   C1B 4941   4.660   3.650  10.024  0.3832  0.1118  0.5072
  309loPI   C2B 4942   4.880   3.747   9.718  0.2179  0.0328 -0.0520
  309loPI   C3B 4943   4.845   3.727   9.348  0.1270  0.1159  0.2395
  309loPI   C4B 4944   4.927   3.702   8.944 -0.0641 -0.1811  0.0285
  310loPI    C1 4945  17.489   2.449  11.148 -0.0832  0.3101  0.1533
  310loPI    C2 4946  17.101   2.544  11.153 -0.0964  0.2771 -0.1092
  310loPI    C3 4947  17.351   2.713  11.415 -0.2922  0.2736  0.0829
  310loPI   PO4 4948  17.563   2.468  10.811 -0.1168  0.2351  0.0647
  310loPI   GL1 4949  17.701   2.591  10.422  0.1029  0.1693  0.2191
  310loPI   GL2 4950  17.582   2.211  10.362 -0.0742  0.1818 -0.2768
  310loPI   C1A 4951  17.734   2.728   9.998 -0.1669  0.0555  0.0668
  310loPI   C2A 4952  17.812   2.809   9.501  0.0237 -0.0859 -0.0974
  310loPI   C3A 4953  17.927   2.842   9.146  0.2343 -0.0448  0.1730
  310loPI   C4A 4954  18.111   2.751   8.759 -0.0257 -0.0597 -0.0782
  310loPI   C5A 4955  18.437   2.871   8.473 -0.1024 -0.1349 -0.1298
  310loPI   C6A 4956  18.668   2.686   8.194 -0.3287 -0.2994 -0.0259
  310loPI   C1B 4957  17.522   2.264   9.943 -0.0242 -0.0214 -0.2604
  310loPI   C2B 4958  17.584   2.349   9.530 -0.0615  0.1937  0.0895
  310loPI   C3B 4959  17.583   2.274   9.155 -0.0022  0.1549 -0.0043
  310loPI   C4B 4960  17.443   2.140   8.686  0.2222  0.1550 -0.0010
  311loPI    C1 4961  12.446   9.904  10.996 -0.0767 -0.0623 -0.1482
  311loPI    C2 4962  12.654   9.562  11.010 -0.1456 -0.1048 -0.1563
  311loPI    C3 4963  12.337   9.613  11.249  0.0547  0.0804  0.0765
  311loPI   PO4 4964  12.340   9.942  10.810 -0.0077 -0.3622 -0.0340
  311loPI   GL1 4965  12.014  10.091  10.607 -0.0462  0.1890  0.0962
  311loPI   GL2 4966  11.821  10.300  10.356  0.1141  0.3019 -0.0034
  311loPI   C1A 4967  12.107   9.926  10.219 -0.1874  0.0106 -0.0086
  311loPI   C2A 4968  12.148   9.935   9.814  0.1654 -0.0732  0.1845
  311loPI   C3A 4969  12.140   9.834   9.439  0.2566  0.0196 -0.0445
  311loPI   C4A 4970  12.089   9.844   9.041  0.0891 -0.0862 -0.2437
  311loPI   C5A 4971  12.151   9.854   8.715  0.1390  0.2101 -0.4003
  311loPI   C6A 4972  12.331   9.540   8.569 -0.1974  0.0459  0.3384
  311loPI   C1B 4973  11.861  10.336   9.959 -0.0571 -0.0160 -0.1111
  311loPI   C2B 4974  11.915  10.297   9.452 -0.0233 -0.2599 -0.2062
  311loPI   C3B 4975  11.840  10.263   8.984  0.1447 -0.1135 -0.2873
  311loPI   C4B 4976  11.937  10.237   8.576  0.0983 -0.3090  0.2197
  312loPI    C1 4977  15.839   0.896  11.041 -0.0969 -0.0411  0.0410
  312loPI    C2 4978  15.971   0.667  11.341 -0.1122 -0.2229 -0.0895
  312loPI    C3 4979  15.791   1.015  11.420  0.1102 -0.1490  0.1023
  312loPI   PO4 4980  15.712   0.742  10.819 -0.1404  0.2657 -0.4751
  312loPI   GL1 4981  15.943   0.551  10.513 -0.2046  0.0089 -0.0279
  312loPI   GL2 4982  15.674   0.398  10.413  0.2719  0.0194 -0.1807
  312loPI   C1A 4983  15.893   0.821  10.199  0.0905  0.0498 -0.2009
  312loPI   C2A 4984  15.889   0.864   9.778  0.1331  0.1356 -0.1143
  312loPI   C3A 4985  15.884   0.954   9.386 -0.1594 -0.0714  0.1203
  312loPI   C4A 4986  15.863   0.771   8.960 -0.1087 -0.0749  0.4705
  312loPI   C5A 4987  15.740   0.692   8.455  0.2857  0.0126  0.0284
  312loPI   C6A 4988  15.308   0.745   8.294 -0.3291  0.1264 -0.1778
  312loPI   C1B 4989  15.621   0.367  10.026  0.1433  0.3359 -0.2106
  312loPI   C2B 4990  15.623   0.404   9.551 -0.0694  0.2863 -0.1480
  312loPI   C3B 4991  15.609   0.313   9.094  0.0417  0.0844  0.4029
  312loPI   C4B 4992  15.609   0.262   8.673  0.1830  0.0233 -0.1219
  313loPI    C1 4993  10.455   5.927  11.083 -0.0649  0.0454  0.1340
  313loPI    C2 4994  10.319   5.991  11.454 -0.2828  0.0213  0.0596
  313loPI    C3 4995  10.222   5.655  11.261  0.0866 -0.1107  0.0959
  313loPI   PO4 4996  10.366   6.094  10.969 -0.3434 -0.0779 -0.0943
  313loPI   GL1 4997  10.071   6.109  10.578 -0.0965 -0.0011  0.2401
  313loPI   GL2 4998  10.086   5.769  10.638 -0.0747 -0.1185  0.2349
  313loPI   C1A 4999   9.954   6.060  10.154  0.2611 -0.0953 -0.1751
  313loPI   C2A 5000   9.826   6.056   9.671 -0.0779 -0.0966 -0.0233
  313loPI   C3A 5001   9.871   6.146   9.292 -0.0105  0.0415 -0.1146
  313loPI   C4A 5002   9.903   6.110   8.872  0.0965 -0.0899  0.1678
  313loPI   C5A 5003   9.815   6.086   8.418  0.0985 -0.1110  0.2839
  313loPI   C6A 5004  10.104   6.054   8.124  0.0041  0.3251 -0.1353
  313loPI   C1B 5005  10.118   5.613  10.179 -0.0694  0.1510  0.0529
  313loPI   C2B 5006  10.165   5.679   9.823 -0.0135 -0.1977  0.4572
  313loPI   C3B 5007  10.120   5.711   9.425  0.1495 -0.1984 -0.1520
  313loPI   C4B 5008  10.154   5.739   9.039 -0.2691  0.0228 -0.3093
  314loPI    C1 5009   5.289   1.672  11.041  0.0433 -0.1021 -0.1247
  314loPI    C2 5010   5.384   1.435  11.350  0.0900  0.2355  0.1257
  314loPI    C3 5011   5.024   1.608  11.334 -0.0803 -0.1336 -0.2422
  314loPI   PO4 5012   5.289   1.503  10.849  0.0510  0.0496  0.2181
  314loPI   GL1 5013   5.290   1.584  10.434  0.2520  0.1058 -0.3914
  314loPI   GL2 5014   5.541   1.487  10.315  0.2502 -0.0722  0.0386
  314loPI   C1A 5015   5.152   1.580  10.077  0.2161 -0.1270 -0.1348
  314loPI   C2A 5016   5.349   1.541   9.680  0.2618 -0.0579  0.1290
  314loPI   C3A 5017   5.441   1.548   9.211 -0.0107  0.1383 -0.1455
  314loPI   C4A 5018   5.311   1.435   8.760 -0.1062  0.2031 -0.0639
  314loPI   C5A 5019   5.183   1.540   8.396  0.0947 -0.1379 -0.1442
  314loPI   C6A 5020   4.998   1.821   8.122  0.0369  0.0467 -0.1063
  314loPI   C1B 5021   5.755   1.579   9.949 -0.0994  0.0904  0.0609
  314loPI   C2B 5022   5.830   1.593   9.465  0.2535 -0.2008 -0.0343
  314loPI   C3B 5023   5.892   1.662   8.992  0.0932  0.1437 -0.1326
  314loPI   C4B 5024   5.668   1.680   8.584 -0.0478 -0.2741 -0.1092
  315loPI    C1 5025   7.432  14.879  10.552  0.1660  0.0227 -0.1681
  315loPI    C2 5026   7.497  14.971  10.936 -0.1097 -0.2776 -0.0445
  315loPI    C3 5027   7.214  15.164  10.729  0.1781  0.0285 -0.1626
  315loPI   PO4 5028   7.581  14.913  10.371  0.0771 -0.1320 -0.3708
  315loPI   GL1 5029   7.622  14.740   9.979 -0.1578  0.1234 -0.0719
  315loPI   GL2 5030   7.243  14.779   9.961 -0.0943  0.3443 -0.1041
  315loPI   C1A 5031   7.695  14.904   9.598 -0.1122 -0.2750 -0.1055
  315loPI   C2A 5032   7.757  15.041   9.124  0.0753  0.1895 -0.0443
  315loPI   C3A 5033   7.914  15.115   8.740  0.0215 -0.1452 -0.0233
  315loPI   C4A 5034   7.860  15.140   8.353 -0.0985  0.2401 -0.1709
  315loPI   C5A 5035   7.797  15.436   8.178 -0.0018 -0.0592  0.2217
  315loPI   C6A 5036   7.653  15.780   7.783  0.1501 -0.2680 -0.0020
  315loPI   C1B 5037   7.224  14.934   9.519  0.2412  0.1899 -0.2076
  315loPI   C2B 5038   7.265  15.033   9.139  0.0208  0.1682  0.1714
  315loPI   C3B 5039   7.404  15.145   8.810 -0.1346 -0.0894  0.0311
  315loPI   C4B 5040   7.421  15.375   8.479  0.1317 -0.1770  0.2871
  316loPI    C1 5041   8.569   9.213  11.144  0.1359 -0.2904 -0.0837
  316loPI    C2 5042   8.850   9.316  11.410  0.2432 -0.1944 -0.2326
  316loPI    C3 5043   8.484   9.214  11.535  0.1139  0.4203 -0.0764
  316loPI   PO4 5044   8.791   9.268  10.928 -0.0372  0.3861  0.2092
  316loPI   GL1 5045   8.829   9.458  10.536 -0.0984  0.0718  0.2080
  316loPI   GL2 5046   8.952   9.098  10.528  0.0063  0.0842  0.2717
  316loPI   C1A 5047   8.992   9.673  10.192 -0.0941  0.1794 -0.3571
  316loPI   C2A 5048   8.937   9.701   9.801 -0.0751  0.4164 -0.1022
  316loPI   C3A 5049   8.998   9.622   9.445 -0.1545  0.0470  0.2029
  316loPI   C4A 5050   8.905   9.617   9.027  0.0164 -0.1442 -0.1526
  316loPI   C5A 5051   8.840   9.667   8.616 -0.0948 -0.0234 -0.0600
  316loPI   C6A 5052   8.781   9.544   8.201  0.1603  0.1129 -0.0775
  316loPI   C1B 5053   8.751   9.203  10.142  0.0409  0.1458  0.4246
  316loPI   C2B 5054   8.690   9.064   9.731 -0.3322 -0.1425 -0.1672
  316loPI   C3B 5055   8.844   9.100   9.320  0.2772 -0.1254 -0.0699
  316loPI   C4B 5056   8.708   9.175   8.892 -0.4029 -0.1516  0.0043
  317loPI    C1 5057   4.746   6.961  11.721  0.0862 -0.2307  0.0394
  317loPI    C2 5058   4.961   7.003  12.056  0.1029  0.1386 -0.0129
  317loPI    C3 5059   4.782   6.654  11.975  0.2991 -0.0292  0.2581
  317loPI   PO4 5060   4.798   7.149  11.505  0.0317 -0.2784 -0.0941
  317loPI   GL1 5061   4.911   6.867  11.206  0.1036 -0.1033 -0.4114
  317loPI   GL2 5062   5.100   6.569  11.051 -0.0827  0.0763  0.2347
  317loPI   C1A 5063   4.920   6.971  10.765 -0.1626  0.3278  0.0725
  317loPI   C2A 5064   4.885   6.902  10.276 -0.0345 -0.1882 -0.0751
  317loPI   C3A 5065   4.793   6.913   9.844 -0.1104  0.0357 -0.0811
  317loPI   C4A 5066   4.864   6.821   9.402  0.0674 -0.1549 -0.2386
  317loPI   C5A 5067   5.045   6.832   9.037  0.2296  0.0066  0.5863
  317loPI   C6A 5068   5.163   6.980   8.691  0.2820  0.1705 -0.0664
  317loPI   C1B 5069   5.121   6.528  10.640 -0.0898  0.0838  0.1185
  317loPI   C2B 5070   5.193   6.439  10.237 -0.1579 -0.0221 -0.0297
  317loPI   C3B 5071   5.158   6.602   9.833  0.1067  0.1019  0.0241
  317loPI   C4B 5072   5.090   6.380   9.419  0.0813  0.1043  0.0219
  318loPI    C1 5073  17.063  17.265  11.030 -0.1636  0.0242 -0.0194
  318loPI    C2 5074  17.286  17.588  11.109 -0.1846  0.0296  0.0172
  318loPI    C3 5075  16.898  17.583  11.207 -0.2351  0.0756 -0.1763
  318loPI   PO4 5076  17.119  17.222  10.686 -0.2436  0.0866 -0.0555
  318loPI   GL1 5077  17.478  17.278  10.399  0.1325  0.1259 -0.1349
  318loPI   GL2 5078  17.276  17.537  10.220 -0.3610 -0.1877 -0.0335
  318loPI   C1A 5079  17.632  17.035  10.088 -0.3916  0.1550 -0.4120
  318loPI   C2A 5080  17.570  17.054   9.604  0.2431  0.0816  0.1979
  318loPI   C3A 5081  17.534  17.043   9.125  0.0339 -0.5549 -0.0969
  318loPI   C4A 5082  17.526  17.086   8.651  0.0418 -0.1198 -0.0764
  318loPI   C5A 5083  17.517  17.220   8.160 -0.2826 -0.0495 -0.0897
  318loPI   C6A 5084  17.550  17.561   7.867  0.2093  0.0362 -0.0978
  318loPI   C1B 5085  17.299  17.403   9.893 -0.1885  0.2250 -0.2606
  318loPI   C2B 5086  17.244  17.412   9.468 -0.2953  0.1458  0.0180
  318loPI   C3B 5087  17.261  17.398   9.042  0.2760 -0.2039 -0.0970
  318loPI   C4B 5088  17.162  17.545   8.578  0.1893  0.1859  0.1780
  319loPI    C1 5089   8.133   9.465  11.185  0.1709  0.1106 -0.0891
  319loPI    C2 5090   7.795   9.593  11.358 -0.0084 -0.0967 -0.2797
  319loPI    C3 5091   8.133   9.571  11.571 -0.0582  0.3331 -0.1476
  319loPI   PO4 5092   8.078   9.248  11.011 -0.1351 -0.0628 -0.2079
  319loPI   GL1 5093   8.102   9.359  10.566  0.1034  0.1718 -0.3090
  319loPI   GL2 5094   8.380   9.197  10.582  0.1320  0.1982 -0.0872
  319loPI   C1A 5095   7.843   9.530  10.202 -0.3570 -0.1827  0.1009
  319loPI   C2A 5096   7.903   9.529   9.749  0.0863  0.1977 -0.0434
  319loPI   C3A 5097   7.982   9.498   9.388  0.0780 -0.0911  0.1397
  319loPI   C4A 5098   7.960   9.576   8.961 -0.0807  0.1872  0.1431
  319loPI   C5A 5099   8.000   9.424   8.641  0.2058  0.1634 -0.1710
  319loPI   C6A 5100   7.970   9.216   8.259  0.3111  0.1747 -0.2416
  319loPI   C1B 5101   8.245   9.096  10.145 -0.2078  0.1339 -0.2220
  319loPI   C2B 5102   8.199   9.115   9.725  0.1423  0.0547 -0.3253
  319loPI   C3B 5103   8.291   9.107   9.282  0.0745  0.0482 -0.1410
  319loPI   C4B 5104   8.160   9.084   9.015  0.3960 -0.0491 -0.0786
  320loPI    C1 5105   0.961   5.521  11.427  0.1248  0.4291 -0.0433
  320loPI    C2 5106   0.629   5.741  11.380 -0.1880 -0.0128  0.0374
  320loPI    C3 5107   0.738   5.618  11.745  0.0512  0.1029  0.0073
  320loPI   PO4 5108   0.919   5.315  11.239  0.1358 -0.0959  0.0583
  320loPI   GL1 5109   0.801   5.080  10.899  0.1810  0.2597  0.2184
  320loPI   GL2 5110   1.100   5.162  10.823  0.1468  0.0020  0.1303
  320loPI   C1A 5111   0.527   5.111  10.559 -0.1394 -0.1766  0.2769
  320loPI   C2A 5112   0.403   5.034  10.133  0.1717  0.0354 -0.2502
  320loPI   C3A 5113   0.482   4.941   9.712  0.1530  0.0679 -0.0172
  320loPI   C4A 5114   0.618   5.055   9.331 -0.0277 -0.0936 -0.2505
  320loPI   C5A 5115   0.609   4.952   8.884 -0.0628 -0.0900  0.1624
  320loPI   C6A 5116   0.514   5.127   8.555  0.2989 -0.2766  0.0207
  320loPI   C1B 5117   0.998   5.093  10.381  0.4087  0.1321  0.0168
  320loPI   C2B 5118   1.065   5.090   9.929 -0.0978 -0.0401  0.1551
  320loPI   C3B 5119   1.124   5.071   9.483 -0.2082 -0.2584  0.2374
  320loPI   C4B 5120   1.126   5.132   8.978 -0.0119  0.2223  0.3182
  321loPI    C1 5121   1.462   1.352  11.097  0.1890 -0.3533 -0.0439
  321loPI    C2 5122   1.193   1.119  11.279 -0.0322  0.0259  0.1274
  321loPI    C3 5123   1.467   1.314  11.495  0.0577  0.0417  0.0003
  321loPI   PO4 5124   1.322   1.462  10.855  0.0293  0.0391 -0.0918
  321loPI   GL1 5125   1.227   1.446  10.490 -0.1360  0.0827  0.0986
  321loPI   GL2 5126   1.380   1.660  10.234  0.2642  0.1349 -0.1518
  321loPI   C1A 5127   0.888   1.555  10.119  0.2016  0.0662  0.3030
  321loPI   C2A 5128   0.858   1.471   9.769 -0.1339  0.2826  0.0651
  321loPI   C3A 5129   0.877   1.478   9.334  0.1086 -0.0806  0.0689
  321loPI   C4A 5130   0.842   1.503   8.923 -0.2239  0.0374 -0.1253
  321loPI   C5A 5131   0.765   1.552   8.423  0.4584  0.1855  0.1654
  321loPI   C6A 5132   0.361   1.673   8.260 -0.0060  0.1995 -0.2528
  321loPI   C1B 5133   1.378   1.562   9.918 -0.2103 -0.0276 -0.0001
  321loPI   C2B 5134   1.377   1.538   9.552 -0.0730 -0.2553  0.0648
  321loPI   C3B 5135   1.372   1.667   9.208  0.0531  0.1230  0.2426
  321loPI   C4B 5136   1.326   1.519   8.739 -0.2331  0.1381 -0.2768
  322loPI    C1 5137  17.344   7.284  11.498 -0.2081 -0.1556 -0.1629
  322loPI    C2 5138  16.960   7.178  11.539 -0.2484  0.0105 -0.1034
  322loPI    C3 5139  17.120   7.449  11.786 -0.0457 -0.1809 -0.0205
  322loPI   PO4 5140  17.476   7.309  11.265 -0.0545  0.0624  0.1972
  322loPI   GL1 5141  17.496   7.156  10.792 -0.0802 -0.2370  0.0207
  322loPI   GL2 5142  17.490   6.733  10.744  0.0150 -0.1324 -0.2220
  322loPI   C1A 5143  17.397   7.283  10.440 -0.1180  0.2418  0.2027
  322loPI   C2A 5144  17.389   7.238   9.999  0.1362  0.2086  0.0972
  322loPI   C3A 5145  17.380   7.162   9.609 -0.3097 -0.4457  0.0203
  322loPI   C4A 5146  17.455   7.187   9.261 -0.2448 -0.0021  0.2259
  322loPI   C5A 5147  17.533   7.132   8.818  0.1088  0.1054 -0.1164
  322loPI   C6A 5148  17.447   7.284   8.561  0.1101 -0.0308  0.0926
  322loPI   C1B 5149  17.235   6.779  10.339 -0.1933  0.0266 -0.0543
  322loPI   C2B 5150  17.283   6.737   9.885 -0.2214 -0.0177  0.3934
  322loPI   C3B 5151  17.251   6.740   9.432  0.2568 -0.0046  0.1106
  322loPI   C4B 5152  17.346   6.684   8.972 -0.0057  0.1434  0.1745
  323loPI    C1 5153   7.379  10.427  11.176 -0.5352  0.1614 -0.3637
  323loPI    C2 5154   7.144  10.244  11.443 -0.0099 -0.0404 -0.0213
  323loPI    C3 5155   7.253  10.624  11.501 -0.0491 -0.0245 -0.0506
  323loPI   PO4 5156   7.247  10.410  10.944 -0.1452  0.0903 -0.1420
  323loPI   GL1 5157   7.261  10.207  10.566 -0.1269 -0.0821  0.4465
  323loPI   GL2 5158   7.168   9.999  10.345 -0.1209  0.1525 -0.0453
  323loPI   C1A 5159   7.400  10.436  10.198  0.1722  0.2137 -0.0547
  323loPI   C2A 5160   7.430  10.442   9.787 -0.2440 -0.1802  0.2078
  323loPI   C3A 5161   7.370  10.321   9.321 -0.0586 -0.3710  0.0971
  323loPI   C4A 5162   7.418  10.402   8.898  0.1588  0.2135  0.0970
  323loPI   C5A 5163   7.339  10.284   8.560 -0.0676 -0.0396  0.1083
  323loPI   C6A 5164   6.933  10.357   8.379 -0.3108  0.2723 -0.1483
  323loPI   C1B 5165   7.054   9.857   9.917 -0.0929 -0.1401 -0.0647
  323loPI   C2B 5166   7.127   9.853   9.440  0.1087 -0.0408  0.2062
  323loPI   C3B 5167   7.198   9.899   8.990  0.0779 -0.3786 -0.0707
  323loPI   C4B 5168   7.059   9.820   8.581  0.0466  0.0005  0.1538
  324loPI    C1 5169  15.824  16.139  11.014  0.0347  0.2934  0.2653
  324loPI    C2 5170  16.190  16.036  11.138 -0.0942 -0.2979  0.1861
  324loPI    C3 5171  15.877  16.000  11.385 -0.1500 -0.1170  0.1436
  324loPI   PO4 5172  15.884  16.284  10.841 -0.0587 -0.1254 -0.0966
  324loPI   GL1 5173  15.741  16.132  10.441 -0.0442  0.1083  0.0128
  324loPI   GL2 5174  15.795  16.468  10.263  0.2267  0.2634 -0.2745
  324loPI   C1A 5175  15.605  16.004   9.971 -0.1459  0.3720  0.1325
  324loPI   C2A 5176  15.575  15.954   9.581 -0.3671  0.1800  0.1295
  324loPI   C3A 5177  15.519  15.900   9.154  0.0687 -0.1104 -0.0720
  324loPI   C4A 5178  15.509  15.939   8.643 -0.0780 -0.1234 -0.0276
  324loPI   C5A 5179  15.584  16.146   8.244 -0.0375 -0.1995  0.0933
  324loPI   C6A 5180  15.622  16.501   8.111  0.2530 -0.1153  0.1516
  324loPI   C1B 5181  15.774  16.432   9.796  0.1249 -0.3343 -0.0522
  324loPI   C2B 5182  15.744  16.384   9.451  0.0086 -0.1062 -0.1518
  324loPI   C3B 5183  15.721  16.334   9.043  0.0553 -0.3601 -0.2348
  324loPI   C4B 5184  15.731  16.399   8.661  0.1458  0.3200  0.0385
  325loPI    C1 5185  10.883   9.233  11.180 -0.0836 -0.1427  0.0170
  325loPI    C2 5186  11.214   9.332  11.383 -0.1388  0.2804 -0.0885
  325loPI    C3 5187  10.878   9.242  11.580 -0.0127  0.0258  0.0151
  325loPI   PO4 5188  10.901   9.392  11.013  0.3473 -0.0312 -0.0643
  325loPI   GL1 5189  10.920   9.462  10.534  0.0194  0.2133 -0.0163
  325loPI   GL2 5190  11.074   9.166  10.507  0.0127 -0.2190  0.1513
  325loPI   C1A 5191  10.851   9.341  10.052 -0.0843  0.0030  0.1682
  325loPI   C2A 5192  10.964   9.286   9.676 -0.3511 -0.0638 -0.4853
  325loPI   C3A 5193  10.940   9.326   9.226 -0.0337  0.0686 -0.2783
  325loPI   C4A 5194  10.929   9.274   8.837 -0.0010  0.1407 -0.0448
  325loPI   C5A 5195  10.621   9.352   8.458 -0.0984 -0.2031  0.1413
  325loPI   C6A 5196  10.128   9.244   8.352 -0.0364 -0.2837  0.1365
  325loPI   C1B 5197  11.199   8.898  10.157 -0.1608 -0.0647  0.2400
  325loPI   C2B 5198  11.270   8.906   9.701 -0.0531  0.1498 -0.2416
  325loPI   C3B 5199  11.187   8.869   9.255  0.2795 -0.0093  0.0669
  325loPI   C4B 5200  11.263   8.917   8.854  0.2533 -0.1721  0.0771
  326loPI    C1 5201   6.541   6.263  11.612 -0.1093  0.1515  0.0158
  326loPI    C2 5202   6.916   6.124  11.624 -0.0936  0.1797 -0.1301
  326loPI    C3 5203   6.844   6.511  11.695 -0.1355  0.1039  0.2587
  326loPI   PO4 5204   6.411   6.222  11.376 -0.2311  0.0872 -0.4276
  326loPI   GL1 5205   6.320   6.273  10.966 -0.4001  0.1111 -0.1055
  326loPI   GL2 5206   6.429   6.052  10.743 -0.1201  0.0524  0.1052
  326loPI   C1A 5207   6.240   6.527  10.725 -0.1747 -0.0234  0.1951
  326loPI   C2A 5208   6.083   6.616  10.326  0.1533 -0.3355 -0.0479
  326loPI   C3A 5209   6.155   6.653   9.861 -0.0927 -0.1601 -0.2039
  326loPI   C4A 5210   6.282   6.542   9.483 -0.0703  0.1155  0.1169
  326loPI   C5A 5211   6.264   6.518   8.996  0.0887  0.1556  0.0218
  326loPI   C6A 5212   6.443   6.271   8.689  0.2054 -0.1286 -0.0866
  326loPI   C1B 5213   6.447   6.216  10.383 -0.2452  0.1774 -0.1933
  326loPI   C2B 5214   6.475   6.282   9.991  0.1877  0.0880  0.0468
  326loPI   C3B 5215   6.501   6.148   9.617 -0.1144 -0.1190  0.4508
  326loPI   C4B 5216   6.428   6.105   9.208 -0.3330  0.1238 -0.1697
  327loPI    C1 5217  14.748  11.472  11.085 -0.0484 -0.0148 -0.0734
  327loPI    C2 5218  14.973  11.673  11.347 -0.0057 -0.0679 -0.0691
  327loPI    C3 5219  14.960  11.274  11.359 -0.0423 -0.0682 -0.1164
  327loPI   PO4 5220  14.843  11.555  10.867  0.1562 -0.0845 -0.2909
  327loPI   GL1 5221  14.775  11.388  10.516  0.1732 -0.1091 -0.2885
  327loPI   GL2 5222  14.695  11.009  10.461  0.0958  0.0407 -0.1128
  327loPI   C1A 5223  14.897  11.467  10.145 -0.0823  0.3197 -0.1449
  327loPI   C2A 5224  14.736  11.421   9.814  0.2025 -0.0217  0.2453
  327loPI   C3A 5225  14.896  11.466   9.431 -0.0887 -0.0302  0.0090
  327loPI   C4A 5226  14.888  11.399   8.886 -0.1494 -0.0152  0.2621
  327loPI   C5A 5227  14.946  11.305   8.440 -0.1255 -0.0053  0.0170
  327loPI   C6A 5228  15.083  11.234   7.992  0.2344  0.3321  0.1657
  327loPI   C1B 5229  14.528  11.061  10.063  0.1197 -0.0767 -0.2492
  327loPI   C2B 5230  14.643  11.018   9.592  0.1019 -0.0297 -0.1095
  327loPI   C3B 5231  14.746  11.021   9.205  0.1887  0.2826 -0.1893
  327loPI   C4B 5232  14.610  10.958   8.796  0.0142  0.0718 -0.1115
  328loPI    C1 5233  10.252   9.401  11.072  0.1395  0.1256  0.2963
  328loPI    C2 5234  10.414   9.633  10.789 -0.0295 -0.0756  0.0303
  328loPI    C3 5235  10.178   9.794  11.068 -0.0313  0.0934 -0.0678
  328loPI   PO4 5236  10.129   9.208  10.955 -0.1673  0.2048 -0.0011
  328loPI   GL1 5237  10.061   9.109  10.486 -0.2148  0.1426  0.2028
  328loPI   GL2 5238  10.288   9.324  10.407  0.1008  0.1008  0.1142
  328loPI   C1A 5239   9.844   9.220  10.129 -0.2603 -0.4563 -0.3682
  328loPI   C2A 5240   9.917   9.187   9.673 -0.1476 -0.2746 -0.3080
  328loPI   C3A 5241   9.894   9.211   9.213 -0.0253  0.1303 -0.0100
  328loPI   C4A 5242   9.787   9.303   8.783 -0.2485 -0.1735  0.4116
  328loPI   C5A 5243   9.693   9.607   8.404 -0.1417  0.1658  0.2190
  328loPI   C6A 5244   9.456  10.001   8.228 -0.1120  0.0926 -0.0392
  328loPI   C1B 5245  10.365   9.252  10.075  0.0973 -0.1266 -0.0714
  328loPI   C2B 5246  10.414   9.167   9.694  0.2868  0.3742 -0.1118
  328loPI   C3B 5247  10.434   9.270   9.330  0.3642 -0.1472  0.0307
  328loPI   C4B 5248  10.387   9.241   8.920 -0.0688 -0.3280 -0.2537
  329loPI    C1 5249  14.141  15.418  10.957  0.0270 -0.1114 -0.0055
  329loPI    C2 5250  14.302  15.491  11.315  0.0276 -0.5030  0.0783
  329loPI    C3 5251  13.925  15.601  11.240  0.1331 -0.1221  0.0830
  329loPI   PO4 5252  14.212  15.135  10.804  0.1925 -0.0027 -0.1189
  329loPI   GL1 5253  14.198  14.918  10.503  0.0492  0.2087  0.0213
  329loPI   GL2 5254  13.855  14.832  10.614 -0.1680  0.1149  0.4532
  329loPI   C1A 5255  14.106  14.948  10.033  0.0676 -0.0703 -0.2949
  329loPI   C2A 5256  14.118  14.991   9.622 -0.1072  0.2217 -0.2553
  329loPI   C3A 5257  14.074  14.970   9.189 -0.1232 -0.0210 -0.1721
  329loPI   C4A 5258  13.999  14.945   8.736 -0.0627 -0.0418  0.1128
  329loPI   C5A 5259  14.287  14.715   8.345 -0.1400  0.1886 -0.0862
  329loPI   C6A 5260  14.541  14.852   8.098  0.1233 -0.1060  0.2116
  329loPI   C1B 5261  13.608  14.885  10.253  0.0931 -0.1384 -0.1375
  329loPI   C2B 5262  13.566  14.913   9.828  0.2935 -0.0232 -0.2370
  329loPI   C3B 5263  13.563  14.945   9.394  0.0357  0.0637 -0.0747
  329loPI   C4B 5264  13.600  14.932   8.938  0.1521  0.0677  0.1056
  330loPI    C1 5265   2.887  11.019  11.305  0.1151 -0.1661 -0.1094
  330loPI    C2 5266   3.269  11.110  11.384  0.0743 -0.0657 -0.0253
  330loPI    C3 5267   3.049  10.915  11.656  0.0533 -0.0854 -0.0564
  330loPI   PO4 5268   2.848  10.902  11.096 -0.2120 -0.2255 -0.1416
  330loPI   GL1 5269   2.940  10.821  10.717 -0.3548  0.2757 -0.1678
  330loPI   GL2 5270   2.630  10.664  10.640  0.0926 -0.2884 -0.2107
  330loPI   C1A 5271   3.026  10.773  10.300 -0.0534  0.1639  0.0979
  330loPI   C2A 5272   3.063  10.720   9.911 -0.0112  0.0602 -0.0573
  330loPI   C3A 5273   3.139  10.761   9.516 -0.1901  0.0568  0.1276
  330loPI   C4A 5274   3.104  10.683   9.002 -0.0387 -0.1657 -0.0460
  330loPI   C5A 5275   3.090  10.689   8.507 -0.0234 -0.1113  0.2524
  330loPI   C6A 5276   2.720  10.770   8.216  0.0184  0.2690 -0.0761
  330loPI   C1B 5277   2.580  10.685  10.162 -0.1517 -0.0363  0.0732
  330loPI   C2B 5278   2.584  10.722   9.783  0.0338  0.3139  0.1334
  330loPI   C3B 5279   2.644  10.690   9.339 -0.2801 -0.0171  0.1084
  330loPI   C4B 5280   2.617  10.672   8.852 -0.0312  0.2798 -0.1883
  331loPI    C1 5281   3.301  13.697  10.736 -0.2700 -0.2604 -0.4777
  331loPI    C2 5282   3.127  13.390  10.925  0.1048 -0.2111 -0.0365
  331loPI    C3 5283   2.962  13.754  10.941  0.1308 -0.2082  0.1980
  331loPI   PO4 5284   3.290  13.633  10.364 -0.2065 -0.0626  0.0830
  331loPI   GL1 5285   3.192  13.871  10.024 -0.2093  0.2322 -0.0029
  331loPI   GL2 5286   2.846  13.555   9.934  0.2317 -0.5456  0.0758
  331loPI   C1A 5287   3.122  13.894   9.643  0.2733  0.0635 -0.4235
  331loPI   C2A 5288   3.126  13.902   9.203 -0.0969 -0.0109 -0.0802
  331loPI   C3A 5289   2.971  13.814   8.867  0.2428  0.0215  0.0467
  331loPI   C4A 5290   2.566  13.697   8.617  0.1111  0.0642 -0.0232
  331loPI   C5A 5291   2.358  13.696   8.204  0.0173  0.1683 -0.0575
  331loPI   C6A 5292   2.537  13.896   7.863 -0.1685 -0.0365  0.3366
  331loPI   C1B 5293   2.826  13.486   9.533  0.1808  0.2339  0.4169
  331loPI   C2B 5294   2.747  13.378   9.020 -0.1253 -0.1120  0.0778
  331loPI   C3B 5295   2.827  13.230   8.636  0.3353  0.1567 -0.0069
  331loPI   C4B 5296   2.767  13.125   8.243  0.1079 -0.1747 -0.0497
  332loPI    C1 5297   6.837   1.415  11.122 -0.1499 -0.0433 -0.1313
  332loPI    C2 5298   6.709   1.415  11.501 -0.1709 -0.0227 -0.1384
  332loPI    C3 5299   7.101   1.426  11.422 -0.1681  0.0267 -0.1178
  332loPI   PO4 5300   6.758   1.585  11.029  0.0660  0.0178  0.2726
  332loPI   GL1 5301   6.556   1.684  10.734  0.1011  0.0766 -0.2913
  332loPI   GL2 5302   6.199   1.650  10.729 -0.0201 -0.3700  0.2106
  332loPI   C1A 5303   6.418   1.959  10.316  0.0927  0.2128 -0.0667
  332loPI   C2A 5304   6.589   2.060   9.892  0.0484  0.1078 -0.2467
  332loPI   C3A 5305   6.553   2.137   9.428  0.1867 -0.0077  0.3159
  332loPI   C4A 5306   6.595   2.180   8.914  0.1563  0.0031  0.1971
  332loPI   C5A 5307   6.607   1.885   8.469 -0.1387 -0.1687  0.1401
  332loPI   C6A 5308   6.444   1.914   7.966 -0.0340 -0.0751  0.1928
  332loPI   C1B 5309   6.138   1.563  10.302  0.0940 -0.3670 -0.2140
  332loPI   C2B 5310   6.338   1.585   9.948  0.0893  0.1369 -0.2648
  332loPI   C3B 5311   6.365   1.618   9.496 -0.1459  0.2357 -0.2599
  332loPI   C4B 5312   6.388   1.663   9.070 -0.1656 -0.3162  0.2578
  333loPI    C1 5313   6.129   0.616  11.060 -0.2299 -0.1369 -0.1358
  333loPI    C2 5314   6.120   0.526  11.450 -0.0572 -0.0280 -0.1055
  333loPI    C3 5315   5.891   0.323  11.192 -0.0875 -0.1766  0.0369
  333loPI   PO4 5316   6.123   0.809  10.958  0.0520 -0.1325 -0.0098
  333loPI   GL1 5317   6.424   0.790  10.611  0.0128  0.0866 -0.1897
  333loPI   GL2 5318   6.306   0.641  10.399  0.4064  0.0667 -0.1507
  333loPI   C1A 5319   6.555   1.123  10.284 -0.2000 -0.0386  0.2341
  333loPI   C2A 5320   6.619   1.201   9.893 -0.2034  0.1432  0.1550
  333loPI   C3A 5321   6.654   1.198   9.406 -0.0869  0.2247  0.1055
  333loPI   C4A 5322   6.732   1.303   8.974 -0.0267  0.2426  0.1807
  333loPI   C5A 5323   6.799   1.195   8.533 -0.2019  0.0082 -0.2683
  333loPI   C6A 5324   6.684   1.269   8.178  0.2806 -0.2040 -0.0244
  333loPI   C1B 5325   6.460   0.732   9.982 -0.1416 -0.0230  0.3631
  333loPI   C2B 5326   6.470   0.737   9.528 -0.1952  0.1512 -0.2766
  333loPI   C3B 5327   6.467   0.740   9.103 -0.0425 -0.0631 -0.2298
  333loPI   C4B 5328   6.490   0.814   8.673 -0.0174  0.1276 -0.3174
  334loPI    C1 5329   7.927  11.063  11.004 -0.1206 -0.1266 -0.1137
  334loPI    C2 5330   7.805  10.687  11.063  0.1068 -0.1621  0.1477
  334loPI    C3 5331   7.708  10.972  11.326  0.1872 -0.0976  0.1082
  334loPI   PO4 5332   7.786  11.164  10.682 -0.3342  0.1241 -0.4480
  334loPI   GL1 5333   7.706  10.873  10.314  0.0639 -0.1607  0.2737
  334loPI   GL2 5334   8.074  10.989  10.251 -0.1568  0.1075  0.0700
  334loPI   C1A 5335   7.624  10.878   9.845  0.0462 -0.0422 -0.0739
  334loPI   C2A 5336   7.581  10.785   9.399  0.1476  0.1743  0.0804
  334loPI   C3A 5337   7.608  10.859   8.919  0.0251 -0.1675  0.2300
  334loPI   C4A 5338   7.516  10.754   8.524  0.0458 -0.1538 -0.2707
  334loPI   C5A 5339   7.146  10.837   8.283  0.0045  0.1618 -0.0252
  334loPI   C6A 5340   6.670  10.878   8.202  0.2840  0.2747 -0.0186
  334loPI   C1B 5341   8.101  10.973   9.768 -0.0059  0.0402 -0.1048
  334loPI   C2B 5342   8.111  10.902   9.249  0.0269  0.2625 -0.0251
  334loPI   C3B 5343   8.135  10.899   8.802 -0.0048  0.1968  0.2598
  334loPI   C4B 5344   8.168  10.871   8.378 -0.2619 -0.1949 -0.0496
  335loPI    C1 5345  14.198   6.748  10.957  0.1007  0.0124 -0.0890
  335loPI    C2 5346  14.010   7.022  11.181  0.2007  0.0822 -0.0899
  335loPI    C3 5347  14.105   6.666  11.338  0.1234  0.0697 -0.0711
  335loPI   PO4 5348  14.021   6.704  10.727  0.0497  0.2147 -0.2401
  335loPI   GL1 5349  14.197   6.822  10.324  0.1036 -0.0423 -0.2440
  335loPI   GL2 5350  13.894   6.828  10.167  0.2641 -0.3807  0.1599
  335loPI   C1A 5351  14.277   6.874   9.791 -0.0223  0.0714 -0.0025
  335loPI   C2A 5352  14.334   6.960   9.342 -0.0361  0.1239 -0.1974
  335loPI   C3A 5353  14.279   6.920   8.918  0.0329 -0.1616 -0.3111
  335loPI   C4A 5354  14.320   6.952   8.609  0.0448  0.2071  0.1279
  335loPI   C5A 5355  14.211   6.728   8.254 -0.2777 -0.1102 -0.0739
  335loPI   C6A 5356  14.236   6.411   8.038  0.1261  0.0967  0.1022
  335loPI   C1B 5357  13.704   6.876   9.753 -0.0695  0.0289  0.0256
  335loPI   C2B 5358  13.789   6.806   9.352 -0.0990 -0.2411  0.1504
  335loPI   C3B 5359  13.770   6.907   8.947 -0.1856  0.1114  0.1190
  335loPI   C4B 5360  13.749   6.851   8.556  0.0577  0.4756  0.0581
  336loPI    C1 5361  11.710  15.596  10.986 -0.0543 -0.0358  0.2003
  336loPI    C2 5362  12.101  15.589  11.067 -0.0013  0.0330 -0.0413
  336loPI    C3 5363  11.901  15.935  11.079 -0.0075  0.0326 -0.1305
  336loPI   PO4 5364  11.697  15.510  10.733  0.2432 -0.0929 -0.0935
  336loPI   GL1 5365  11.690  15.560  10.396  0.2373 -0.0428  0.0271
  336loPI   GL2 5366  11.886  15.802  10.378  0.2204  0.1228 -0.0124
  336loPI   C1A 5367  11.679  15.596   9.947 -0.5224  0.2934 -0.0168
  336loPI   C2A 5368  11.514  15.661   9.572 -0.0866  0.0027  0.0317
  336loPI   C3A 5369  11.687  15.664   9.135 -0.0387 -0.0414  0.0289
  336loPI   C4A 5370  12.026  15.612   8.970  0.0227  0.1167  0.3686
  336loPI   C5A 5371  12.110  15.685   8.577 -0.0110 -0.0657  0.0365
  336loPI   C6A 5372  12.050  15.633   8.126  0.3089  0.0178 -0.0269
  336loPI   C1B 5373  12.102  15.767  10.011 -0.0303  0.3381  0.3746
  336loPI   C2B 5374  12.071  15.865   9.595 -0.0092  0.0148  0.1283
  336loPI   C3B 5375  12.205  16.034   9.124  0.1249  0.4041  0.0581
  336loPI   C4B 5376  12.274  16.178   8.693 -0.1957 -0.2716  0.1339
  337loPI    C1 5377   0.912  13.621  10.877  0.2626 -0.0696  0.0478
  337loPI    C2 5378   0.833  13.712  11.258  0.2926 -0.0146  0.0411
  337loPI    C3 5379   0.951  13.342  11.161 -0.3551 -0.2212 -0.0031
  337loPI   PO4 5380   0.753  13.706  10.741 -0.1458 -0.3927  0.1715
  337loPI   GL1 5381   0.629  13.435  10.408 -0.0349 -0.0116 -0.1107
  337loPI   GL2 5382   0.818  13.199  10.256  0.1002 -0.1012 -0.0927
  337loPI   C1A 5383   0.493  13.559   9.981 -0.1887 -0.2334  0.0922
  337loPI   C2A 5384   0.416  13.503   9.513  0.1678 -0.2750 -0.2370
  337loPI   C3A 5385   0.377  13.584   9.073  0.1820 -0.1119  0.1570
  337loPI   C4A 5386   0.500  13.528   8.685  0.1352 -0.0315  0.0257
  337loPI   C5A 5387   0.464  13.497   8.207  0.0146 -0.2092 -0.5128
  337loPI   C6A 5388   0.215  13.376   7.936  0.0226 -0.3607 -0.0828
  337loPI   C1B 5389   0.708  13.155   9.795  0.1511  0.2137  0.0685
  337loPI   C2B 5390   0.713  13.194   9.306 -0.0622 -0.0581  0.2362
  337loPI   C3B 5391   0.688  13.040   8.914  0.1139 -0.1176 -0.0350
  337loPI   C4B 5392   0.658  13.072   8.469  0.0364 -0.0714 -0.0054
  338loPI    C1 5393   9.946  10.595  11.050  0.1117  0.1403 -0.0194
  338loPI    C2 5394   9.683  10.883  11.139  0.0941  0.0890  0.0962
  338loPI    C3 5395   9.940  10.753  11.417  0.0421 -0.0692  0.0714
  338loPI   PO4 5396   9.898  10.574  10.844 -0.0722  0.2801  0.4054
  338loPI   GL1 5397   9.973  10.668  10.395  0.0645  0.2225  0.2057
  338loPI   GL2 5398   9.771  10.893  10.470 -0.2658  0.0934 -0.3723
  338loPI   C1A 5399  10.021  10.607   9.933 -0.1218  0.0797  0.1107
  338loPI   C2A 5400   9.995  10.521   9.481  0.0570 -0.0279  0.0090
  338loPI   C3A 5401  10.091  10.576   9.031 -0.2317  0.0092 -0.1336
  338loPI   C4A 5402  10.102  10.535   8.624  0.1785 -0.0853 -0.4347
  338loPI   C5A 5403  10.303  10.241   8.390 -0.2145  0.0440  0.1790
  338loPI   C6A 5404  10.353  10.061   7.969 -0.0142 -0.1001 -0.2998
  338loPI   C1B 5405   9.711  11.040  10.075 -0.0742  0.0703  0.1921
  338loPI   C2B 5406   9.725  10.982   9.655 -0.2290  0.0573  0.0475
  338loPI   C3B 5407   9.819  10.930   9.239  0.0215 -0.0250  0.2197
  338loPI   C4B 5408   9.738  10.846   8.835 -0.1193  0.0494 -0.2291
  339loPI    C1 5409   1.683   0.657  10.923 -0.0000  0.0954  0.1032
  339loPI    C2 5410   1.815   1.006  11.066  0.3589 -0.1003  0.2638
  339loPI    C3 5411   1.575   0.777  11.289  0.3686 -0.0945  0.2802
  339loPI   PO4 5412   1.897   0.528  10.807 -0.2322  0.1092  0.2797
  339loPI   GL1 5413   2.074   0.663  10.402 -0.1423  0.0460 -0.1569
  339loPI   GL2 5414   2.361   0.671  10.261 -0.3667  0.1888 -0.3684
  339loPI   C1A 5415   1.980   0.814   9.970 -0.1065 -0.0749  0.0180
  339loPI   C2A 5416   1.945   0.771   9.483  0.2169  0.1684 -0.0359
  339loPI   C3A 5417   1.940   0.838   8.993  0.0748 -0.0711 -0.4409
  339loPI   C4A 5418   1.918   0.696   8.510 -0.2414  0.0677  0.0645
  339loPI   C5A 5419   2.164   0.855   8.071 -0.3628 -0.1057  0.0253
  339loPI   C6A 5420   2.338   1.103   7.723 -0.0218 -0.1024  0.1107
  339loPI   C1B 5421   2.446   0.834   9.825  0.2281 -0.0123 -0.2657
  339loPI   C2B 5422   2.425   0.859   9.348 -0.1214  0.0406 -0.1481
  339loPI   C3B 5423   2.455   0.882   8.852  0.1107 -0.0950  0.2969
  339loPI   C4B 5424   2.494   0.707   8.446 -0.0427  0.2322  0.2713
  340loPI    C1 5425   0.328  17.209  11.149 -0.0795  0.1587 -0.0171
  340loPI    C2 5426   0.529  17.494  11.347  0.4077 -0.3214  0.2062
  340loPI    C3 5427   0.317  17.222  11.549 -0.1206 -0.0838 -0.0094
  340loPI   PO4 5428   0.481  17.234  10.898 -0.1905  0.0621 -0.1020
  340loPI   GL1 5429   0.655  17.357  10.500  0.0541  0.4289  0.2037
  340loPI   GL2 5430   0.456  17.614  10.352 -0.0878  0.0579 -0.1108
  340loPI   C1A 5431   0.886  17.276  10.097  0.2429 -0.1126  0.0910
  340loPI   C2A 5432   0.935  17.174   9.648  0.1755 -0.1428 -0.4033
  340loPI   C3A 5433   0.769  17.090   9.207  0.0876 -0.1513 -0.0953
  340loPI   C4A 5434   0.692  17.135   8.794 -0.1910  0.1303  0.1875
  340loPI   C5A 5435   0.442  16.903   8.439 -0.2309  0.0613  0.0767
  340loPI   C6A 5436   0.149  16.807   8.051 -0.1958  0.1352 -0.0239
  340loPI   C1B 5437   0.450  17.418   9.907  0.1847 -0.1100  0.0276
  340loPI   C2B 5438   0.513  17.332   9.521 -0.1335 -0.2362  0.2983
  340loPI   C3B 5439   0.389  17.407   9.101  0.0413 -0.6101  0.0988
  340loPI   C4B 5440   0.420  17.558   8.645 -0.2261 -0.2369  0.2471
  341loPI    C1 5441   4.151  10.897  10.937  0.0687  0.1670  0.2014
  341loPI    C2 5442   4.316  10.550  10.824 -0.2069  0.1464 -0.1560
  341loPI    C3 5443   4.541  10.880  10.850 -0.0250  0.0283 -0.2113
  341loPI   PO4 5444   3.891  10.921  10.847 -0.2321  0.0304  0.2775
  341loPI   GL1 5445   3.645  10.970  10.491 -0.0381  0.0824  0.0458
  341loPI   GL2 5446   3.479  10.676  10.488  0.1858 -0.2740  0.6931
  341loPI   C1A 5447   3.711  10.842  10.059  0.1952 -0.2190 -0.0406
  341loPI   C2A 5448   3.678  10.828   9.572  0.0185  0.1891 -0.2102
  341loPI   C3A 5449   3.619  10.890   9.168 -0.1111  0.1003 -0.2286
  341loPI   C4A 5450   3.678  10.750   8.867  0.1612  0.2275 -0.1130
  341loPI   C5A 5451   3.708  10.556   8.455 -0.1646 -0.0477  0.1146
  341loPI   C6A 5452   3.698  10.726   8.057  0.0966  0.0461 -0.1159
  341loPI   C1B 5453   3.370  10.380  10.131  0.1269  0.0973 -0.0009
  341loPI   C2B 5454   3.366  10.359   9.661  0.0705  0.0955  0.1701
  341loPI   C3B 5455   3.452  10.365   9.170 -0.2560  0.1226 -0.2524
  341loPI   C4B 5456   3.309  10.321   8.702 -0.1946 -0.1490  0.2319
  342loPI    C1 5457   4.616   4.935  11.293 -0.1845  0.0785  0.0311
  342loPI    C2 5458   4.602   4.615  11.533  0.3118 -0.0929 -0.1566
  342loPI    C3 5459   4.705   4.972  11.681  0.0782 -0.0837 -0.0114
  342loPI   PO4 5460   4.769   4.783  11.084  0.3081 -0.1015  0.3299
  342loPI   GL1 5461   4.825   4.722  10.674 -0.0640  0.3294 -0.0296
  342loPI   GL2 5462   5.137   4.916  10.801 -0.0364  0.0288 -0.0231
  342loPI   C1A 5463   4.802   4.493  10.419  0.0272 -0.0486 -0.0184
  342loPI   C2A 5464   4.714   4.563   9.935 -0.1092  0.1316  0.2912
  342loPI   C3A 5465   4.778   4.658   9.496 -0.0739 -0.0025 -0.0803
  342loPI   C4A 5466   4.830   4.623   9.073 -0.1534 -0.0869  0.0738
  342loPI   C5A 5467   4.792   4.923   8.697  0.1169  0.0087  0.0985
  342loPI   C6A 5468   5.129   5.161   8.563 -0.0974 -0.3459 -0.2105
  342loPI   C1B 5469   5.008   5.024  10.319  0.0336  0.1965 -0.1876
  342loPI   C2B 5470   4.937   5.063   9.908  0.0511  0.0397  0.0399
  342loPI   C3B 5471   4.999   5.192   9.458  0.0740  0.2213  0.0264
  342loPI   C4B 5472   4.999   5.262   9.037 -0.0992 -0.1392  0.1738
  343loPI    C1 5473   5.524   2.116  11.137 -0.2312  0.0801  0.0173
  343loPI    C2 5474   5.574   2.285  11.495  0.3093 -0.0034 -0.0114
  343loPI    C3 5475   5.509   1.892  11.468 -0.2336  0.0779  0.0156
  343loPI   PO4 5476   5.663   2.285  10.972 -0.3913 -0.2413  0.2897
  343loPI   GL1 5477   5.803   2.307  10.565 -0.0567 -0.0199  0.0172
  343loPI   GL2 5478   5.930   2.065  10.503  0.1090  0.0149  0.1045
  343loPI   C1A 5479   5.658   2.443  10.131  0.3452  0.1412 -0.2730
  343loPI   C2A 5480   5.720   2.468   9.752 -0.0328 -0.0443  0.0078
  343loPI   C3A 5481   5.813   2.537   9.335  0.0447 -0.3177 -0.0888
  343loPI   C4A 5482   5.828   2.507   8.842  0.1507 -0.0184  0.0139
  343loPI   C5A 5483   5.921   2.698   8.491  0.0362  0.0697  0.0287
  343loPI   C6A 5484   5.750   2.651   8.109  0.2675  0.2284  0.1030
  343loPI   C1B 5485   5.991   2.033  10.009  0.2595 -0.1531 -0.0872
  343loPI   C2B 5486   6.058   2.025   9.590 -0.1246 -0.4409  0.0446
  343loPI   C3B 5487   6.085   2.119   9.190 -0.3065  0.1652 -0.1682
  343loPI   C4B 5488   6.087   1.985   8.704 -0.0702  0.0447 -0.1648
  344loPI    C1 5489  15.512  11.471  11.064 -0.1943 -0.0354  0.1569
  344loPI    C2 5490  15.483  11.785  11.310  0.1558  0.1809 -0.0696
  344loPI    C3 5491  15.814  11.560  11.310  0.1251  0.1334 -0.2839
  344loPI   PO4 5492  15.327  11.332  10.997 -0.0986  0.1826  0.0728
  344loPI   GL1 5493  15.296  11.235  10.611 -0.1858 -0.3019 -0.0839
  344loPI   GL2 5494  15.324  11.484  10.453  0.0191  0.3601  0.1078
  344loPI   C1A 5495  15.211  11.016  10.265  0.1002  0.2084 -0.2368
  344loPI   C2A 5496  15.052  11.029   9.850 -0.0263 -0.2490 -0.1367
  344loPI   C3A 5497  15.153  11.044   9.483 -0.0031  0.1251 -0.0860
  344loPI   C4A 5498  15.219  11.043   9.010  0.0287 -0.2197  0.0924
  344loPI   C5A 5499  15.344  11.031   8.634  0.1096 -0.0768 -0.1664
  344loPI   C6A 5500  15.460  11.270   8.345 -0.1083  0.3223  0.0153
  344loPI   C1B 5501  15.421  11.533  10.184 -0.2200 -0.0685 -0.4423
  344loPI   C2B 5502  15.268  11.498   9.731  0.1626  0.0968  0.0461
  344loPI   C3B 5503  15.339  11.497   9.242 -0.0644 -0.0015  0.0707
  344loPI   C4B 5504  15.573  11.477   8.919  0.1911 -0.1911  0.1874
  345loPI    C1 5505   1.368  16.596  10.862 -0.0148  0.2019 -0.0384
  345loPI    C2 5506   1.044  16.641  11.093 -0.0713  0.0811 -0.0936
  345loPI    C3 5507   1.375  16.474  11.243 -0.0950  0.0385 -0.0885
  345loPI   PO4 5508   1.275  16.758  10.645  0.0043  0.0726 -0.0124
  345loPI   GL1 5509   1.278  16.497  10.216  0.1525 -0.3025 -0.1125
  345loPI   GL2 5510   1.538  16.578  10.290  0.2686  0.0333  0.1474
  345loPI   C1A 5511   1.148  16.699   9.818  0.2770 -0.1670 -0.2135
  345loPI   C2A 5512   1.050  16.652   9.400  0.1522 -0.1353 -0.0528
  345loPI   C3A 5513   1.060  16.687   8.982 -0.1969 -0.0091 -0.2658
  345loPI   C4A 5514   0.869  16.592   8.664 -0.1746 -0.2995  0.2425
  345loPI   C5A 5515   0.787  16.223   8.299  0.1155 -0.0610  0.0918
  345loPI   C6A 5516   0.762  15.840   8.023  0.0133  0.2920  0.0388
  345loPI   C1B 5517   1.643  16.705   9.876 -0.6133 -0.2938 -0.2091
  345loPI   C2B 5518   1.589  16.667   9.454 -0.2205 -0.1987 -0.2667
  345loPI   C3B 5519   1.522  16.596   9.117 -0.2652  0.1209 -0.0949
  345loPI   C4B 5520   1.518  16.742   8.736 -0.0656  0.3299  0.1193
  346loPI    C1 5521  14.439  11.077  11.125  0.3803  0.0185  0.1304
  346loPI    C2 5522  14.093  11.051  11.326  0.2546 -0.0052 -0.0864
  346loPI    C3 5523  14.390  11.278  11.467  0.0308  0.2802 -0.0672
  346loPI   PO4 5524  14.398  11.157  10.869 -0.2065  0.0270 -0.2066
  346loPI   GL1 5525  14.190  11.231  10.556 -0.4188 -0.1301 -0.1373
  346loPI   GL2 5526  14.273  11.458  10.373  0.1591 -0.5104  0.2687
  346loPI   C1A 5527  14.050  11.014  10.129  0.1163  0.3568  0.1216
  346loPI   C2A 5528  14.067  11.002   9.686 -0.3343  0.0834  0.2749
  346loPI   C3A 5529  14.152  10.959   9.226  0.0373 -0.1187 -0.3825
  346loPI   C4A 5530  14.151  10.911   8.771  0.2531  0.1625 -0.2121
  346loPI   C5A 5531  14.339  10.610   8.403  0.2932 -0.0002  0.0497
  346loPI   C6A 5532  14.517  10.441   8.089 -0.1615  0.1464 -0.3178
  346loPI   C1B 5533  14.232  11.442   9.861 -0.3014  0.3386 -0.2026
  346loPI   C2B 5534  14.338  11.498   9.359 -0.0009 -0.0872 -0.3161
  346loPI   C3B 5535  14.375  11.441   8.932 -0.0665  0.1617  0.2768
  346loPI   C4B 5536  14.511  11.480   8.491  0.0868  0.0447  0.1627
  347loPI    C1 5537   3.993   4.597  11.411  0.1173 -0.1803  0.0259
  347loPI    C2 5538   4.142   4.428  11.742  0.3513  0.0376  0.0345
  347loPI    C3 5539   3.862   4.712  11.771  0.2232 -0.0879  0.0354
  347loPI   PO4 5540   4.106   4.663  11.243  0.2139  0.0607 -0.0404
  347loPI   GL1 5541   4.142   4.706  10.840  0.1093  0.1831 -0.0189
  347loPI   GL2 5542   4.354   4.899  10.867  0.0030  0.1646  0.0067
  347loPI   C1A 5543   4.302   4.578  10.459 -0.0764  0.1655 -0.2457
  347loPI   C2A 5544   4.217   4.472  10.013  0.4122  0.1496 -0.1994
  347loPI   C3A 5545   4.278   4.628   9.637  0.1433  0.2129 -0.3230
  347loPI   C4A 5546   4.332   4.618   9.177  0.2911  0.0533 -0.0125
  347loPI   C5A 5547   4.251   4.764   8.737  0.2323 -0.0282 -0.1020
  347loPI   C6A 5548   4.102   4.864   8.330  0.0166  0.1464 -0.2469
  347loPI   C1B 5549   4.512   5.010  10.464  0.0826  0.2521 -0.1699
  347loPI   C2B 5550   4.389   4.930  10.066  0.1952 -0.0261  0.3381
  347loPI   C3B 5551   4.453   5.087   9.568  0.1923 -0.1885  0.0497
  347loPI   C4B 5552   4.543   5.048   9.170  0.2788  0.0727  0.0496
  348loPI    C1 5553   1.948  14.351  10.496  0.2279  0.0515 -0.1334
  348loPI    C2 5554   2.063  14.636  10.753  0.0396  0.1940 -0.2043
  348loPI    C3 5555   2.061  14.253  10.867 -0.0365  0.2557  0.0057
  348loPI   PO4 5556   2.054  14.531  10.237 -0.2141  0.1470  0.0228
  348loPI   GL1 5557   2.457  14.647  10.008  0.2146 -0.0849  0.0629
  348loPI   GL2 5558   2.552  14.544   9.799 -0.1664 -0.0361 -0.0566
  348loPI   C1A 5559   2.117  14.442   9.631  0.0233 -0.1041  0.0484
  348loPI   C2A 5560   2.072  14.492   9.046 -0.0099  0.0232  0.1329
  348loPI   C3A 5561   1.810  14.570   8.601  0.2355 -0.0638 -0.1090
  348loPI   C4A 5562   1.786  14.515   8.110  0.2302  0.1002 -0.0988
  348loPI   C5A 5563   1.651  14.882   7.943  0.0623 -0.1228 -0.0421
  348loPI   C6A 5564   1.850  15.121   7.590 -0.2139 -0.2779 -0.0227
  348loPI   C1B 5565   2.535  14.542   9.358 -0.1395  0.0832  0.2079
  348loPI   C2B 5566   2.680  14.604   9.018 -0.1023 -0.3970 -0.0514
  348loPI   C3B 5567   2.439  14.611   8.690  0.2647  0.0859 -0.2122
  348loPI   C4B 5568   2.254  14.734   8.314  0.2165  0.1721  0.0487
  349loPI    C1 5569   1.126  10.764  10.879 -0.1210 -0.0058  0.0851
  349loPI    C2 5570   1.244  10.565  11.206 -0.1270  0.1436  0.1789
  349loPI    C3 5571   1.218  10.965  11.213  0.0504  0.1613 -0.0605
  349loPI   PO4 5572   1.290  10.771  10.654 -0.0802 -0.1772  0.0937
  349loPI   GL1 5573   1.380  11.061  10.465  0.0011  0.1567  0.1403
  349loPI   GL2 5574   1.677  11.182  10.598 -0.0763 -0.0884 -0.0011
  349loPI   C1A 5575   1.260  10.991  10.026 -0.0835 -0.1280 -0.0202
  349loPI   C2A 5576   1.291  10.942   9.657 -0.0069 -0.1330 -0.0519
  349loPI   C3A 5577   1.332  10.953   9.240 -0.0879 -0.1678 -0.1485
  349loPI   C4A 5578   1.345  10.962   8.770  0.0205 -0.1142  0.0164
  349loPI   C5A 5579   1.661  10.908   8.374  0.0581  0.0158 -0.1989
  349loPI   C6A 5580   1.984  11.289   8.223 -0.0946 -0.2714 -0.0347
  349loPI   C1B 5581   1.799  11.029  10.178  0.5437  0.1117 -0.0403
  349loPI   C2B 5582   1.749  11.010   9.733  0.0629  0.4038  0.1630
  349loPI   C3B 5583   1.797  11.015   9.280  0.1152 -0.2660  0.0712
  349loPI   C4B 5584   1.875  10.946   8.922 -0.0942  0.1625 -0.1242
  350loPI    C1 5585   5.992  13.472  10.641 -0.1520  0.2332  0.1248
  350loPI    C2 5586   5.764  13.299  10.921 -0.1748  0.1672  0.0659
  350loPI    C3 5587   6.130  13.431  11.014 -0.0985 -0.0481  0.0768
  350loPI   PO4 5588   5.830  13.478  10.495  0.1099 -0.1931 -0.0317
  350loPI   GL1 5589   5.679  13.372  10.191  0.0999  0.1906 -0.0182
  350loPI   GL2 5590   5.914  13.396   9.991  0.1424  0.2398 -0.3261
  350loPI   C1A 5591   5.362  13.353   9.884 -0.2335 -0.0270 -0.0356
  350loPI   C2A 5592   5.156  13.151   9.650 -0.0469  0.1916 -0.0688
  350loPI   C3A 5593   5.073  12.849   9.364  0.0487 -0.0023 -0.0724
  350loPI   C4A 5594   5.004  12.709   8.908 -0.2151  0.3501 -0.0582
  350loPI   C5A 5595   5.200  12.694   8.447 -0.1075 -0.0598 -0.1511
  350loPI   C6A 5596   5.399  12.564   8.126  0.0294 -0.2901  0.1223
  350loPI   C1B 5597   5.733  13.394   9.525 -0.0023  0.1677 -0.2292
  350loPI   C2B 5598   5.402  13.352   9.261  0.1110  0.0715 -0.2840
  350loPI   C3B 5599   5.089  13.289   8.904 -0.2326  0.0281 -0.0435
  350loPI   C4B 5600   5.147  13.421   8.576 -0.0172  0.1162 -0.2433
  351loPI    C1 5601   9.791   0.020  11.072 -0.1603 -0.0463 -0.1108
  351loPI    C2 5602   9.829   0.282  11.372  0.5068 -0.0983 -0.1355
  351loPI    C3 5603   9.755  -0.103  11.451  0.0632 -0.0065 -0.0757
  351loPI   PO4 5604   9.846   0.247  10.813 -0.1695  0.0099  0.1337
  351loPI   GL1 5605  10.152   0.254  10.556  0.2053 -0.0351 -0.0270
  351loPI   GL2 5606  10.371   0.628  10.348 -0.1200 -0.1136  0.2585
  351loPI   C1A 5607  10.042   0.234  10.056  0.1900  0.1983 -0.0794
  351loPI   C2A 5608  10.118   0.293   9.659 -0.0522 -0.0331  0.1120
  351loPI   C3A 5609  10.131   0.252   9.257 -0.1621 -0.0200 -0.2903
  351loPI   C4A 5610  10.261   0.292   8.840  0.0795 -0.0302 -0.4075
  351loPI   C5A 5611  10.284   0.260   8.382  0.3180 -0.1341 -0.1794
  351loPI   C6A 5612  10.475   0.146   8.068 -0.0434  0.2005 -0.0627
  351loPI   C1B 5613  10.330   0.630   9.955 -0.0796 -0.1908  0.1015
  351loPI   C2B 5614  10.285   0.750   9.546 -0.0417 -0.0718  0.3018
  351loPI   C3B 5615  10.369   0.702   9.108  0.3369  0.0546 -0.0124
  351loPI   C4B 5616  10.472   0.735   8.757 -0.2055  0.0989  0.0123
  352loPI    C1 5617   9.012  12.461  10.763  0.2753 -0.0265 -0.0961
  352loPI    C2 5618   9.088  12.199  11.055  0.0986 -0.1129 -0.1260
  352loPI    C3 5619   9.029  12.584  11.143  0.2221 -0.1070 -0.0674
  352loPI   PO4 5620   8.833  12.345  10.606 -0.1508  0.2572  0.0946
  352loPI   GL1 5621   8.672  12.340  10.143  0.2347  0.2593 -0.0802
  352loPI   GL2 5622   8.839  12.526   9.927  0.0221 -0.0400  0.0517
  352loPI   C1A 5623   8.418  12.197   9.780 -0.1639 -0.1359  0.1217
  352loPI   C2A 5624   8.528  12.221   9.389  0.2823 -0.0547  0.0389
  352loPI   C3A 5625   8.388  12.192   9.004  0.2190 -0.1201  0.1841
  352loPI   C4A 5626   8.388  12.367   8.556  0.1894  0.1092  0.0013
  352loPI   C5A 5627   8.240  12.452   8.117 -0.0995  0.2782  0.1466
  352loPI   C6A 5628   8.240  12.734   7.761  0.2475 -0.4749  0.0030
  352loPI   C1B 5629   8.930  12.511   9.529  0.0996  0.0545 -0.0926
  352loPI   C2B 5630   8.844  12.401   9.096 -0.0752  0.0776 -0.0809
  352loPI   C3B 5631   8.843  12.192   8.679  0.0169 -0.0689 -0.0941
  352loPI   C4B 5632   9.126  11.972   8.361  0.3485 -0.0723  0.1593
  353loPI    C1 5633  13.546  14.368  11.172 -0.0145 -0.0087  0.0372
  353loPI    C2 5634  13.721  14.677  11.356  0.0558  0.0203 -0.0774
  353loPI    C3 5635  13.860  14.306  11.412  0.0459  0.0232 -0.0331
  353loPI   PO4 5636  13.579  14.522  10.931 -0.0633  0.1782 -0.0830
  353loPI   GL1 5637  13.320  14.403  10.618  0.0372  0.1242  0.3723
  353loPI   GL2 5638  13.525  14.049  10.741  0.0984 -0.0923  0.2654
  353loPI   C1A 5639  13.334  14.446  10.178 -0.3918 -0.0637  0.2077
  353loPI   C2A 5640  13.281  14.485   9.762 -0.1064  0.0924 -0.0929
  353loPI   C3A 5641  13.285  14.488   9.312 -0.2677  0.1084 -0.0201
  353loPI   C4A 5642  13.371  14.456   8.867 -0.2048  0.2179  0.0260
  353loPI   C5A 5643  13.361  14.177   8.510 -0.0171  0.1123  0.0232
  353loPI   C6A 5644  13.192  13.968   8.158  0.1082  0.2769  0.2611
  353loPI   C1B 5645  13.664  14.057  10.337  0.1262  0.0750 -0.2132
  353loPI   C2B 5646  13.626  14.108   9.933  0.0535 -0.4476  0.0368
  353loPI   C3B 5647  13.625  14.070   9.503 -0.0079 -0.4167  0.5160
  353loPI   C4B 5648  13.600  14.000   9.033 -0.3182  0.2137 -0.2347
  354loPI    C1 5649  10.948   6.047  10.966  0.1408  0.0702 -0.1138
  354loPI    C2 5650  10.842   6.357  11.196 -0.0819  0.0149 -0.1399
  354loPI    C3 5651  10.827   5.985  11.341  0.0147  0.0007 -0.1655
  354loPI   PO4 5652  10.884   6.015  10.771 -0.2362 -0.0740 -0.2575
  354loPI   GL1 5653  10.573   5.951  10.478 -0.1725  0.2022  0.0691
  354loPI   GL2 5654  10.653   5.712  10.314  0.0274 -0.2782  0.1007
  354loPI   C1A 5655  10.506   6.159  10.079 -0.1980  0.0451 -0.0661
  354loPI   C2A 5656  10.406   6.119   9.770  0.4210  0.1852 -0.3680
  354loPI   C3A 5657  10.378   6.191   9.407  0.1789 -0.1020 -0.0764
  354loPI   C4A 5658  10.399   6.239   8.895  0.1777 -0.0372  0.1917
  354loPI   C5A 5659  10.309   6.032   8.610  0.1566  0.2309 -0.4091
  354loPI   C6A 5660  10.117   5.648   8.488  0.2017  0.1509  0.2039
  354loPI   C1B 5661  10.693   5.688   9.807  0.0258 -0.0100  0.0123
  354loPI   C2B 5662  10.613   5.714   9.348  0.0961  0.1955  0.1032
  354loPI   C3B 5663  10.639   5.817   8.895 -0.6363  0.0594 -0.2233
  354loPI   C4B 5664  10.645   5.765   8.409  0.0903 -0.2036  0.2003
  355loPI    C1 5665   8.488   7.967  11.390  0.1972 -0.1200  0.3178
  355loPI    C2 5666   8.273   7.638  11.462  0.2968 -0.2703 -0.0488
  355loPI    C3 5667   8.639   7.607  11.304  0.2906  0.0189 -0.1243
  355loPI   PO4 5668   8.309   8.102  11.274 -0.1125  0.2677  0.1220
  355loPI   GL1 5669   8.115   8.271  10.969  0.1815  0.0711  0.0921
  355loPI   GL2 5670   8.427   8.362  10.671  0.2452  0.2476  0.2188
  355loPI   C1A 5671   7.909   8.233  10.474 -0.1910 -0.0495 -0.0430
  355loPI   C2A 5672   7.815   8.171   9.987 -0.1494  0.2353  0.0881
  355loPI   C3A 5673   7.806   8.198   9.566  0.0205 -0.3107 -0.1133
  355loPI   C4A 5674   7.784   8.143   9.108 -0.2347  0.3603  0.3019
  355loPI   C5A 5675   7.779   8.088   8.656  0.0139 -0.0284 -0.1258
  355loPI   C6A 5676   7.605   7.967   8.216 -0.3276 -0.2545  0.0272
  355loPI   C1B 5677   8.309   8.299  10.208 -0.0615 -0.0418  0.2245
  355loPI   C2B 5678   8.261   8.242   9.861 -0.0644 -0.0401 -0.1061
  355loPI   C3B 5679   8.318   8.181   9.473  0.0908 -0.2490  0.0321
  355loPI   C4B 5680   8.303   8.187   9.115  0.2225 -0.1636 -0.1017
  356loPI    C1 5681   7.839   4.382  11.236 -0.2026 -0.2556 -0.0053
  356loPI    C2 5682   7.472   4.363  11.392 -0.1803 -0.4677  0.0250
  356loPI    C3 5683   7.789   4.263  11.615 -0.0572  0.1523  0.1477
  356loPI   PO4 5684   7.819   4.238  10.983  0.0197 -0.0937 -0.1577
  356loPI   GL1 5685   7.860   4.311  10.672  0.0653 -0.1362 -0.0220
  356loPI   GL2 5686   7.520   4.346  10.508  0.3537  0.0065 -0.0742
  356loPI   C1A 5687   8.071   4.414  10.342  0.1478  0.2185  0.0049
  356loPI   C2A 5688   8.149   4.524   9.916 -0.1156  0.1998  0.2477
  356loPI   C3A 5689   8.190   4.538   9.457 -0.1687  0.0578 -0.1044
  356loPI   C4A 5690   8.153   4.515   9.081 -0.1812  0.1668 -0.0333
  356loPI   C5A 5691   8.093   4.420   8.606  0.3313 -0.3450 -0.0555
  356loPI   C6A 5692   7.881   4.089   8.475 -0.1428  0.0755  0.3963
  356loPI   C1B 5693   7.576   4.281  10.060 -0.2954  0.1626 -0.1905
  356loPI   C2B 5694   7.640   4.501   9.757  0.0999  0.0864  0.0900
  356loPI   C3B 5695   7.649   4.509   9.336  0.0806  0.2852  0.0635
  356loPI   C4B 5696   7.663   4.435   8.839 -0.1219  0.3419 -0.1745
  357loPI    C1 5697  15.857   8.250  10.812  0.1039  0.1551 -0.2967
  357loPI    C2 5698  16.114   7.954  10.735 -0.0613 -0.0393 -0.1107
  357loPI    C3 5699  16.110   8.127  11.095 -0.2361 -0.0843 -0.0898
  357loPI   PO4 5700  15.907   8.395  10.634  0.0654 -0.2262 -0.0603
  357loPI   GL1 5701  16.198   8.509  10.383  0.3478 -0.0651  0.0139
  357loPI   GL2 5702  16.015   8.418  10.131 -0.2440 -0.0107  0.0461
  357loPI   C1A 5703  16.538   8.528  10.059  0.2255 -0.0463 -0.1746
  357loPI   C2A 5704  16.522   8.436   9.642  0.0817  0.3740  0.0430
  357loPI   C3A 5705  16.489   8.451   9.233 -0.1030  0.0760  0.0529
  357loPI   C4A 5706  16.608   8.440   8.793 -0.1711  0.2809 -0.0624
  357loPI   C5A 5707  16.733   8.685   8.420 -0.3455  0.2657  0.1223
  357loPI   C6A 5708  17.123   8.870   8.264 -0.0229 -0.0693 -0.0268
  357loPI   C1B 5709  16.003   8.374   9.707 -0.0546 -0.2860  0.0910
  357loPI   C2B 5710  15.970   8.411   9.333 -0.2695 -0.0078  0.1529
  357loPI   C3B 5711  15.840   8.026   9.126 -0.1367 -0.1529 -0.0417
  357loPI   C4B 5712  15.855   7.847   8.775  0.1047  0.0686 -0.0574
  358loPI    C1 5713   2.745  15.160  10.733  0.1495 -0.1977  0.0220
  358loPI    C2 5714   2.947  15.106  11.074  0.2463 -0.0339 -0.0084
  358loPI    C3 5715   2.816  15.471  10.974  0.3779 -0.0468 -0.2341
  358loPI   PO4 5716   2.888  15.094  10.559  0.0688  0.2249 -0.1574
  358loPI   GL1 5717   3.139  15.252  10.112  0.1120 -0.1792  0.1408
  358loPI   GL2 5718   2.713  15.244  10.110  0.0312  0.0578 -0.3329
  358loPI   C1A 5719   3.017  15.550   9.831 -0.0825 -0.1049 -0.1259
  358loPI   C2A 5720   3.099  15.664   9.410  0.0948  0.1280  0.1453
  358loPI   C3A 5721   2.961  15.661   9.036  0.1371  0.0241 -0.3775
  358loPI   C4A 5722   3.022  15.473   8.660  0.0653  0.1277  0.1195
  358loPI   C5A 5723   3.058  15.141   8.492  0.3415  0.1479 -0.0683
  358loPI   C6A 5724   2.879  14.696   8.432  0.2015  0.0651 -0.1981
  358loPI   C1B 5725   2.569  15.423   9.663  0.2940  0.1350  0.0132
  358loPI   C2B 5726   2.467  15.528   9.237 -0.1137  0.0641  0.0788
  358loPI   C3B 5727   2.375  15.465   8.835 -0.0021 -0.1685 -0.0744
  358loPI   C4B 5728   2.419  15.554   8.443 -0.3287 -0.0290  0.0919
  359loPI    C1 5729   7.801  14.181  10.733  0.3063 -0.2516 -0.0644
  359loPI    C2 5730   7.843  14.575  10.781  0.0307 -0.1990 -0.2287
  359loPI    C3 5731   7.830  14.335  11.101  0.1623 -0.0726 -0.1266
  359loPI   PO4 5732   7.807  14.216  10.433 -0.3102 -0.0408 -0.2345
  359loPI   GL1 5733   8.029  14.243  10.026 -0.0759 -0.3279 -0.1953
  359loPI   GL2 5734   8.016  14.493   9.812 -0.0399  0.2722 -0.3046
  359loPI   C1A 5735   7.889  14.037   9.774 -0.3302  0.2229  0.1564
  359loPI   C2A 5736   7.723  14.059   9.419 -0.3754  0.1403 -0.1246
  359loPI   C3A 5737   7.717  14.184   9.104  0.0172 -0.0881 -0.3364
  359loPI   C4A 5738   7.641  14.196   8.706  0.2874  0.3403 -0.0142
  359loPI   C5A 5739   7.470  14.183   8.354  0.0099  0.0666 -0.0487
  359loPI   C6A 5740   7.552  13.892   8.060  0.0326 -0.0587 -0.1442
  359loPI   C1B 5741   7.963  14.559   9.313 -0.1109  0.2431 -0.0560
  359loPI   C2B 5742   7.990  14.591   8.795 -0.0750  0.1587 -0.1163
  359loPI   C3B 5743   8.032  14.665   8.418 -0.2227 -0.0497 -0.0290
  359loPI   C4B 5744   8.239  14.571   8.064 -0.0049  0.1372 -0.1435
  360loPI    C1 5745  17.393   5.026  11.578  0.2097 -0.0196  0.2637
  360loPI    C2 5746  17.610   5.348  11.675  0.1440 -0.0704  0.5923
  360loPI    C3 5747  17.241   5.303  11.823 -0.0303 -0.0688  0.1734
  360loPI   PO4 5748  17.391   5.006  11.291  0.3562  0.0539  0.3034
  360loPI   GL1 5749  17.443   5.096  10.864 -0.2629 -0.2363  0.2151
  360loPI   GL2 5750  17.384   4.807  10.742 -0.0877 -0.0688  0.0794
  360loPI   C1A 5751  17.590   5.331  10.606  0.0826  0.1006 -0.0542
  360loPI   C2A 5752  17.622   5.357  10.179  0.2317 -0.0151 -0.1099
  360loPI   C3A 5753  17.608   5.475   9.749  0.0017  0.0335 -0.3099
  360loPI   C4A 5754  17.605   5.445   9.366 -0.2040  0.0851 -0.1612
  360loPI   C5A 5755  17.707   5.468   8.897 -0.1400  0.1591 -0.0313
  360loPI   C6A 5756  17.792   5.406   8.490  0.2433  0.3269 -0.3803
  360loPI   C1B 5757  17.419   4.883  10.341 -0.2051  0.2060  0.1351
  360loPI   C2B 5758  17.416   4.989   9.874  0.4945  0.2293  0.0505
  360loPI   C3B 5759  17.442   4.891   9.409 -0.1051  0.0028 -0.0542
  360loPI   C4B 5760  17.444   4.981   8.947  0.2045  0.0301 -0.4821
  361loPI    C1 5761  14.258   9.041  11.235 -0.0038  0.0025 -0.1785
  361loPI    C2 5762  14.340   8.661  11.330  0.0670  0.0978  0.1561
  361loPI    C3 5763  14.636   8.930  11.304  0.0369  0.0986 -0.2439
  361loPI   PO4 5764  14.130   9.106  11.009  0.1555 -0.0314 -0.2353
  361loPI   GL1 5765  13.933   9.186  10.581  0.1167  0.0958  0.1130
  361loPI   GL2 5766  13.570   9.436  10.502  0.0897 -0.1178  0.0258
  361loPI   C1A 5767  13.817   9.158  10.143  0.3756 -0.1077  0.2121
  361loPI   C2A 5768  13.814   9.118   9.685  0.1668  0.2677 -0.2043
  361loPI   C3A 5769  13.761   9.122   9.237  0.1835 -0.1724  0.1512
  361loPI   C4A 5770  13.943   9.104   8.722 -0.0483  0.1781 -0.0818
  361loPI   C5A 5771  14.377   9.316   8.639 -0.1295 -0.1336 -0.0000
  361loPI   C6A 5772  14.581   9.195   8.260  0.0953 -0.2495  0.0124
  361loPI   C1B 5773  13.474   9.621  10.117 -0.1048  0.4428 -0.2845
  361loPI   C2B 5774  13.477   9.651   9.673  0.0789  0.0103  0.0249
  361loPI   C3B 5775  13.459   9.518   9.240 -0.2100 -0.0275  0.2128
  361loPI   C4B 5776  13.450   9.533   8.738  0.0590 -0.1390  0.2204
  362loPI    C1 5777  17.156  12.365  11.528  0.0223  0.0437  0.0221
  362loPI    C2 5778  17.319  12.682  11.710  0.0155  0.1290 -0.1184
  362loPI    C3 5779  17.067  12.444  11.909  0.3512 -0.0364  0.1190
  362loPI   PO4 5780  17.310  12.383  11.318  0.0961  0.2751 -0.0618
  362loPI   GL1 5781  17.212  12.594  11.007 -0.1691 -0.1886  0.0263
  362loPI   GL2 5782  17.000  12.756  10.892 -0.1332 -0.4780 -0.1875
  362loPI   C1A 5783  17.374  12.502  10.557 -0.3757  0.1404  0.0779
  362loPI   C2A 5784  17.476  12.609  10.088  0.2134  0.0825 -0.1022
  362loPI   C3A 5785  17.449  12.525   9.684 -0.4268  0.1250 -0.2298
  362loPI   C4A 5786  17.451  12.556   9.197 -0.0633  0.0351  0.4117
  362loPI   C5A 5787  17.488  12.544   8.764  0.2533  0.0611  0.2567
  362loPI   C6A 5788  17.382  12.306   8.388  0.0866 -0.1341 -0.0150
  362loPI   C1B 5789  16.964  12.647  10.401  0.3392  0.0386 -0.3249
  362loPI   C2B 5790  16.830  12.424  10.038 -0.1135 -0.2747 -0.2758
  362loPI   C3B 5791  16.914  12.487   9.616  0.2626 -0.1895 -0.1703
  362loPI   C4B 5792  16.841  12.503   9.165 -0.2883  0.0263 -0.1807
  363loPI    C1 5793   3.031  17.481  11.041  0.0724  0.0193 -0.0354
  363loPI    C2 5794   2.727  17.580  11.281 -0.1192 -0.0058 -0.2636
  363loPI    C3 5795   3.039  17.827  11.242 -0.0726 -0.0141  0.0287
  363loPI   PO4 5796   2.918  17.443  10.835 -0.0611  0.1660  0.0184
  363loPI   GL1 5797   2.902  17.319  10.328 -0.0119 -0.1812 -0.2767
  363loPI   GL2 5798   2.754  17.670  10.308 -0.2159  0.2585  0.1260
  363loPI   C1A 5799   2.950  17.391   9.898 -0.1210  0.2363  0.1873
  363loPI   C2A 5800   2.867  17.326   9.500  0.0387  0.2363  0.1001
  363loPI   C3A 5801   2.871  17.304   9.066 -0.0392  0.0571 -0.3871
  363loPI   C4A 5802   2.741  17.423   8.734  0.0147  0.0281  0.2856
  363loPI   C5A 5803   2.684  17.625   8.312  0.0672  0.0077 -0.0939
  363loPI   C6A 5804   2.586  17.866   8.005  0.2955  0.0187  0.3377
  363loPI   C1B 5805   2.580  17.692   9.977 -0.0519  0.0130 -0.0656
  363loPI   C2B 5806   2.581  17.690   9.680  0.2422 -0.2484 -0.0818
  363loPI   C3B 5807   2.624  17.743   9.267 -0.2143 -0.3105  0.0394
  363loPI   C4B 5808   2.528  17.852   8.930  0.0376  0.1161  0.1257
  364loPI    C1 5809  12.972  11.197  11.429  0.1821  0.1111 -0.0529
  364loPI    C2 5810  12.715  11.152  11.732  0.0271 -0.0086 -0.2005
  364loPI    C3 5811  12.936  11.484  11.706  0.1444 -0.0583  0.1195
  364loPI   PO4 5812  12.854  11.132  11.230 -0.2443 -0.0987  0.1141
  364loPI   GL1 5813  12.871  11.170  10.743 -0.2235  0.2439  0.2106
  364loPI   GL2 5814  12.757  11.337  10.523  0.0198  0.3999  0.0325
  364loPI   C1A 5815  13.013  10.967  10.419  0.1110  0.1830 -0.2873
  364loPI   C2A 5816  13.018  10.905   9.927 -0.0579  0.1387  0.3875
  364loPI   C3A 5817  13.122  10.879   9.509 -0.0445  0.1155  0.1151
  364loPI   C4A 5818  13.198  10.736   9.069 -0.0912 -0.1610  0.1567
  364loPI   C5A 5819  13.234  10.881   8.606 -0.1433 -0.3234 -0.1517
  364loPI   C6A 5820  13.067  10.735   8.256 -0.0378  0.0580 -0.1109
  364loPI   C1B 5821  12.676  11.305  10.131 -0.1814  0.0769 -0.1387
  364loPI   C2B 5822  12.707  11.329   9.727  0.0432  0.2198  0.1759
  364loPI   C3B 5823  12.748  11.273   9.310 -0.3256 -0.3239  0.1444
  364loPI   C4B 5824  12.794  11.158   8.867  0.3902 -0.0586  0.2936
  365loPI    C1 5825   3.073   1.682  10.860  0.0453  0.0745  0.0718
  365loPI    C2 5826   3.364   1.677  11.134 -0.2049  0.1135  0.3431
  365loPI    C3 5827   3.150   1.347  11.065  0.1319 -0.0191 -0.1117
  365loPI   PO4 5828   3.139   1.908  10.703  0.1177 -0.2046 -0.2899
  365loPI   GL1 5829   3.003   2.129  10.298  0.4173 -0.0739  0.2863
  365loPI   GL2 5830   2.648   2.072  10.341 -0.0537  0.3435  0.3909
  365loPI   C1A 5831   3.098   2.145   9.887 -0.0074  0.0669 -0.0841
  365loPI   C2A 5832   3.093   2.306   9.587  0.0879 -0.0782 -0.1191
  365loPI   C3A 5833   3.189   2.223   9.314  0.2481 -0.1382 -0.1420
  365loPI   C4A 5834   3.122   2.144   8.797 -0.1603 -0.5275 -0.0328
  365loPI   C5A 5835   3.427   2.267   8.413  0.0699 -0.0734 -0.0310
  365loPI   C6A 5836   3.862   2.291   8.288  0.0824  0.1154 -0.1006
  365loPI   C1B 5837   2.607   2.184  10.002  0.3479 -0.1145  0.1643
  365loPI   C2B 5838   2.570   2.143   9.523 -0.1966 -0.0214 -0.2083
  365loPI   C3B 5839   2.688   2.196   9.151  0.0415  0.0700  0.3053
  365loPI   C4B 5840   2.616   2.155   8.758 -0.4180 -0.0061  0.0666
  366loPI    C1 5841  13.015   0.907  11.033 -0.3086 -0.0645  0.2087
  366loPI    C2 5842  13.052   0.973  11.426  0.1405 -0.2172  0.1986
  366loPI    C3 5843  13.088   0.602  11.282  0.0431 -0.1525  0.0044
  366loPI   PO4 5844  13.118   1.153  10.922  0.0300  0.1096 -0.1361
  366loPI   GL1 5845  12.960   1.427  10.542  0.0951 -0.0051  0.0323
  366loPI   GL2 5846  12.967   1.654  10.391 -0.0839 -0.2570  0.0800
  366loPI   C1A 5847  12.938   1.099  10.131 -0.0550  0.0647  0.1442
  366loPI   C2A 5848  12.919   1.040   9.681 -0.1443 -0.2248 -0.2327
  366loPI   C3A 5849  12.962   1.001   9.238  0.2452  0.1992 -0.0754
  366loPI   C4A 5850  12.934   1.061   8.769  0.0458 -0.0251  0.2735
  366loPI   C5A 5851  13.238   0.873   8.473  0.0720  0.0351 -0.4240
  366loPI   C6A 5852  13.293   0.664   8.139 -0.2776  0.0983  0.1960
  366loPI   C1B 5853  12.876   1.803   9.998 -0.0700  0.0599 -0.0442
  366loPI   C2B 5854  12.797   1.900   9.663  0.1207 -0.0853  0.3488
  366loPI   C3B 5855  12.952   1.872   9.249 -0.0416 -0.2207  0.1644
  366loPI   C4B 5856  12.980   2.052   8.799  0.2185  0.0699 -0.0684
  367loPI    C1 5857  16.947   6.501  11.103 -0.1067 -0.1762 -0.0842
  367loPI    C2 5858  17.122   6.374  11.439  0.4673  0.2348 -0.2124
  367loPI    C3 5859  16.878   6.691  11.448  0.0586 -0.0734 -0.1068
  367loPI   PO4 5860  17.157   6.445  10.971 -0.0120 -0.1988 -0.1930
  367loPI   GL1 5861  17.176   6.170  10.642  0.0947  0.0940 -0.2926
  367loPI   GL2 5862  17.416   6.292  10.500  0.1009 -0.0082  0.1330
  367loPI   C1A 5863  16.988   6.268  10.246  0.0962  0.2481 -0.3123
  367loPI   C2A 5864  16.996   6.350   9.833  0.1515  0.2255  0.0164
  367loPI   C3A 5865  16.957   6.230   9.447 -0.1405  0.1548 -0.0225
  367loPI   C4A 5866  17.065   6.265   8.979 -0.0291 -0.0111  0.1524
  367loPI   C5A 5867  17.158   6.307   8.506 -0.0953  0.2638 -0.2035
  367loPI   C6A 5868  17.306   6.486   8.098 -0.0792 -0.1006  0.1137
  367loPI   C1B 5869  17.479   6.353  10.092 -0.0057 -0.1557  0.0960
  367loPI   C2B 5870  17.593   6.389   9.643  0.2056 -0.0264 -0.1246
  367loPI   C3B 5871  17.719   6.246   9.288  0.2890 -0.0287  0.2738
  367loPI   C4B 5872  17.717   6.404   8.823  0.3282  0.4975  0.0605
  368loPI    C1 5873  12.210  10.435  11.237  0.1895 -0.0487  0.0809
  368loPI    C2 5874  11.849  10.354  11.390  0.0843  0.0586 -0.1064
  368loPI    C3 5875  12.170  10.364  11.629 -0.1038  0.4029  0.1405
  368loPI   PO4 5876  12.223  10.344  11.075  0.4505 -0.0255  0.1803
  368loPI   GL1 5877  12.403  10.446  10.656  0.2906  0.0539  0.1642
  368loPI   GL2 5878  12.651  10.140  10.505  0.0858 -0.0454  0.1401
  368loPI   C1A 5879  12.315  10.413  10.229  0.1857  0.0530  0.1130
  368loPI   C2A 5880  12.331  10.411   9.685 -0.1041  0.2384  0.3869
  368loPI   C3A 5881  12.390  10.247   9.199 -0.1868 -0.1551 -0.2041
  368loPI   C4A 5882  12.385  10.315   8.744 -0.1526  0.1185  0.2050
  368loPI   C5A 5883  12.525  10.174   8.371 -0.0296  0.0185  0.2870
  368loPI   C6A 5884  12.926  10.055   8.306 -0.0881 -0.0403  0.2561
  368loPI   C1B 5885  12.637  10.044  10.092 -0.3227  0.0509  0.1420
  368loPI   C2B 5886  12.621  10.032   9.650  0.0353  0.2760  0.0925
  368loPI   C3B 5887  12.750   9.911   9.236 -0.1251  0.1993 -0.0007
  368loPI   C4B 5888  12.655   9.853   8.773 -0.2673 -0.0404 -0.3532
  369loPI    C1 5889   6.291  10.656  11.063 -0.0682  0.0549 -0.1602
  369loPI    C2 5890   5.897  10.674  11.000 -0.0809  0.2405 -0.0364
  369loPI    C3 5891   6.038  10.619  11.370  0.0059 -0.1124 -0.1183
  369loPI   PO4 5892   6.328  10.638  10.692  0.2463  0.0497 -0.1908
  369loPI   GL1 5893   5.935  10.503  10.493  0.1579 -0.0221  0.2083
  369loPI   GL2 5894   5.879  10.841  10.427  0.1327 -0.0206 -0.0729
  369loPI   C1A 5895   5.756  10.257  10.148 -0.4547 -0.2084 -0.1470
  369loPI   C2A 5896   5.773  10.212   9.695 -0.1073  0.1865  0.1979
  369loPI   C3A 5897   5.775  10.177   9.262 -0.1268 -0.0146  0.1035
  369loPI   C4A 5898   5.844  10.119   8.869  0.0888  0.1724  0.0399
  369loPI   C5A 5899   5.986   9.903   8.355 -0.0884 -0.0499  0.0819
  369loPI   C6A 5900   5.936  10.008   7.918 -0.1116 -0.1800 -0.0252
  369loPI   C1B 5901   5.931  10.726  10.030  0.1435  0.1820 -0.1595
  369loPI   C2B 5902   6.026  10.642   9.593 -0.0592 -0.0588  0.3187
  369loPI   C3B 5903   6.098  10.627   9.142 -0.0314  0.3761  0.1126
  369loPI   C4B 5904   5.986  10.662   8.693  0.2079  0.1408  0.0228
  370loPI    C1 5905   8.445   8.737  11.425  0.3253  0.0546  0.0964
  370loPI    C2 5906   8.212   8.776  11.748  0.1261  0.0694 -0.0470
  370loPI    C3 5907   8.362   8.417  11.651 -0.0565  0.0072 -0.1025
  370loPI   PO4 5908   8.287   8.824  11.292  0.2244 -0.0518 -0.0393
  370loPI   GL1 5909   8.242   8.772  10.880  0.2046  0.3792  0.0053
  370loPI   GL2 5910   8.594   8.781  10.881  0.1199 -0.2086  0.0576
  370loPI   C1A 5911   8.174   8.714  10.529 -0.2997 -0.2820  0.0325
  370loPI   C2A 5912   7.926   8.679  10.180 -0.1372  0.0204  0.1869
  370loPI   C3A 5913   7.951   8.630   9.770 -0.2241  0.0267  0.0312
  370loPI   C4A 5914   7.975   8.637   9.315 -0.0333  0.2476 -0.0310
  370loPI   C5A 5915   7.984   8.550   8.956 -0.2113 -0.3132  0.2580
  370loPI   C6A 5916   8.140   8.749   8.523 -0.2722  0.1869  0.0239
  370loPI   C1B 5917   8.599   8.815  10.342  0.0287  0.0490  0.1409
  370loPI   C2B 5918   8.422   8.680   9.862  0.2211  0.0056  0.1184
  370loPI   C3B 5919   8.503   8.687   9.415  0.0036 -0.0641  0.2026
  370loPI   C4B 5920   8.466   8.667   8.976 -0.0232 -0.0342 -0.0779
  371loPI    C1 5921   9.900   4.240  10.955 -0.0931 -0.1735  0.4115
  371loPI    C2 5922   9.809   4.621  10.873  0.1166 -0.1660  0.2027
  371loPI    C3 5923   9.702   4.461  11.224 -0.1792  0.0130  0.1983
  371loPI   PO4 5924   9.895   4.155  10.729 -0.0694 -0.2291  0.2003
  371loPI   GL1 5925   9.940   4.244  10.225 -0.0775 -0.0173  0.1284
  371loPI   GL2 5926  10.059   4.456  10.415 -0.0013 -0.0776 -0.0604
  371loPI   C1A 5927   9.889   4.180   9.866  0.2487 -0.0026 -0.0990
  371loPI   C2A 5928   9.932   4.156   9.479 -0.1448 -0.0648  0.0732
  371loPI   C3A 5929   9.995   4.164   9.058 -0.1244  0.2390  0.2970
  371loPI   C4A 5930   9.997   4.311   8.643  0.1052  0.0264  0.1012
  371loPI   C5A 5931   9.747   4.260   8.307  0.0648 -0.1276 -0.0711
  371loPI   C6A 5932   9.682   4.041   7.924 -0.3684  0.2955  0.1078
  371loPI   C1B 5933  10.182   4.720  10.100  0.0348 -0.0589 -0.0702
  371loPI   C2B 5934  10.119   4.622   9.749 -0.1767 -0.1910  0.0269
  371loPI   C3B 5935  10.135   4.701   9.330  0.1612  0.2876 -0.0357
  371loPI   C4B 5936  10.278   4.868   8.933  0.2908 -0.2636  0.4167
  372loPI    C1 5937   4.370  10.070  10.995 -0.0300 -0.0573  0.0983
  372loPI    C2 5938   4.281   9.940  11.363 -0.2464 -0.1058  0.0301
  372loPI    C3 5939   4.113  10.275  11.223  0.0562  0.0715  0.0812
  372loPI   PO4 5940   4.582  10.006  10.886 -0.3863  0.1833  0.2720
  372loPI   GL1 5941   4.788   9.657  10.741  0.1043 -0.1372 -0.2598
  372loPI   GL2 5942   4.581   9.634  10.448  0.0862  0.1370 -0.0099
  372loPI   C1A 5943   4.902   9.260  10.417 -0.0600  0.2451 -0.0810
  372loPI   C2A 5944   4.868   9.222  10.021 -0.0541  0.1347  0.0437
  372loPI   C3A 5945   4.879   9.114   9.624 -0.2319  0.0679 -0.0977
  372loPI   C4A 5946   4.795   9.142   9.228  0.1078 -0.0186 -0.1493
  372loPI   C5A 5947   4.945   9.059   8.817 -0.0418  0.0847 -0.1227
  372loPI   C6A 5948   4.984   9.075   8.339 -0.2864  0.0437 -0.4073
  372loPI   C1B 5949   4.591   9.656  10.044  0.4699 -0.1100  0.2496
  372loPI   C2B 5950   4.606   9.572   9.616  0.1309  0.3351  0.2092
  372loPI   C3B 5951   4.516   9.582   9.192 -0.2544  0.0042 -0.4260
  372loPI   C4B 5952   4.582   9.470   8.704  0.0297  0.2008 -0.0578
  373loPI    C1 5953  17.152   0.366  10.897  0.1814  0.3051  0.2356
  373loPI    C2 5954  17.471   0.183  11.055  0.0964 -0.0597 -0.0008
  373loPI    C3 5955  17.118   0.169  11.243  0.1393  0.0505  0.0894
  373loPI   PO4 5956  17.174   0.314  10.633  0.2078 -0.1708  0.0015
  373loPI   GL1 5957  17.248   0.421  10.312 -0.0218  0.3952 -0.0643
  373loPI   GL2 5958  17.038   0.208  10.184  0.1290 -0.2291  0.4042
  373loPI   C1A 5959  17.256   0.458   9.794  0.1019 -0.1548 -0.1667
  373loPI   C2A 5960  17.180   0.511   9.257 -0.1970 -0.2044 -0.1729
  373loPI   C3A 5961  17.131   0.484   8.816 -0.2151  0.0580  0.1341
  373loPI   C4A 5962  16.893   0.636   8.468  0.0278 -0.2014  0.0834
  373loPI   C5A 5963  16.718   0.886   8.176  0.0016 -0.0793  0.1600
  373loPI   C6A 5964  16.650   0.887   7.764  0.1414 -0.2129 -0.2119
  373loPI   C1B 5965  16.882   0.158   9.908  0.1886 -0.1970 -0.0805
  373loPI   C2B 5966  16.889   0.181   9.460  0.1192 -0.0131 -0.2236
  373loPI   C3B 5967  16.668   0.413   9.170  0.2292  0.1136  0.0068
  373loPI   C4B 5968  16.553   0.450   8.717  0.0571  0.1621 -0.2681
  374loPI    C1 5969  16.295   2.263  11.162 -0.1485  0.1871  0.0019
  374loPI    C2 5970  16.671   2.360  11.261 -0.0237 -0.0937 -0.1818
  374loPI    C3 5971  16.365   2.582  11.393  0.1848 -0.0307  0.2105
  374loPI   PO4 5972  16.260   2.279  10.906 -0.0818 -0.2189  0.1860
  374loPI   GL1 5973  16.177   2.199  10.494  0.6737 -0.0379  0.1989
  374loPI   GL2 5974  16.161   2.553  10.481  0.5343  0.2300  0.0955
  374loPI   C1A 5975  15.997   2.190  10.122  0.2083  0.0447  0.1733
  374loPI   C2A 5976  15.993   2.277   9.733 -0.3245  0.0045 -0.1964
  374loPI   C3A 5977  16.108   2.206   9.294  0.2291 -0.0070  0.2522
  374loPI   C4A 5978  16.048   2.194   8.878 -0.0910  0.0639  0.1156
  374loPI   C5A 5979  15.893   2.038   8.516 -0.1039 -0.1855  0.0402
  374loPI   C6A 5980  15.985   2.186   8.175 -0.0197 -0.2491 -0.1065
  374loPI   C1B 5981  16.298   2.668   9.974  0.0761 -0.0591 -0.0034
  374loPI   C2B 5982  16.291   2.714   9.565 -0.0522 -0.2483  0.0201
  374loPI   C3B 5983  16.315   2.639   9.117 -0.1641  0.2880  0.3220
  374loPI   C4B 5984  16.274   2.651   8.625 -0.1024 -0.0359  0.0286
  375loPI    C1 5985   6.906  12.241  10.688  0.0614 -0.0272  0.0320
  375loPI    C2 5986   6.713  12.591  10.680 -0.0079 -0.0657  0.0172
  375loPI    C3 5987   6.785  12.410  11.029 -0.0226 -0.0645  0.0207
  375loPI   PO4 5988   6.807  12.052  10.525 -0.0054  0.0079 -0.0134
  375loPI   GL1 5989   6.862  11.970  10.111  0.2286 -0.0328  0.2178
  375loPI   GL2 5990   6.992  11.730  10.104 -0.2311  0.1462  0.2006
  375loPI   C1A 5991   6.679  12.213   9.784  0.2217  0.1297  0.1811
  375loPI   C2A 5992   6.727  12.209   9.282  0.0098  0.1311 -0.0626
  375loPI   C3A 5993   6.772  12.215   8.801  0.1335  0.2238  0.3006
  375loPI   C4A 5994   6.974  12.386   8.451 -0.2231  0.0312  0.1595
  375loPI   C5A 5995   7.106  12.515   8.009 -0.1220 -0.1021 -0.0797
  375loPI   C6A 5996   7.054  12.620   7.550 -0.0888 -0.1780 -0.1292
  375loPI   C1B 5997   6.945  11.755   9.655 -0.2783  0.4013 -0.0252
  375loPI   C2B 5998   7.021  11.680   9.268 -0.0325  0.0425  0.1744
  375loPI   C3B 5999   7.054  11.611   8.820 -0.1262  0.0225  0.0082
  375loPI   C4B 6000   6.958  11.782   8.440 -0.1082 -0.1730 -0.0969
  376loPI    C1 6001  10.181  13.723  10.509 -0.0577 -0.1380  0.1955
  376loPI    C2 6002   9.869  13.789  10.750 -0.1146  0.1604  0.0448
  376loPI    C3 6003  10.056  13.436  10.758 -0.3487  0.0379  0.2571
  376loPI   PO4 6004  10.063  13.890  10.265 -0.0857 -0.2159  0.4881
  376loPI   GL1 6005  10.310  13.927   9.971  0.0378 -0.0589 -0.0932
  376loPI   GL2 6006  10.500  13.636   9.939  0.1155  0.1231  0.0514
  376loPI   C1A 6007  10.287  13.907   9.510 -0.1212  0.0499 -0.0588
  376loPI   C2A 6008  10.301  13.683   9.228 -0.0585  0.1453 -0.2307
  376loPI   C3A 6009  10.527  13.825   8.770  0.1448 -0.0185  0.1703
  376loPI   C4A 6010  10.642  13.789   8.374 -0.2338 -0.0636  0.1037
  376loPI   C5A 6011  10.609  13.910   7.905 -0.2147  0.0962 -0.2766
  376loPI   C6A 6012  10.612  13.843   7.461  0.1011 -0.0320  0.0625
  376loPI   C1B 6013  10.312  13.299   9.629 -0.1137  0.2973  0.3195
  376loPI   C2B 6014  10.379  13.218   9.208 -0.2319  0.0506  0.0736
  376loPI   C3B 6015  10.372  13.337   8.823  0.3655 -0.0013  0.3148
  376loPI   C4B 6016  10.387  13.167   8.397 -0.2295  0.0543 -0.1527
  377loPI    C1 6017   3.661   9.361  11.200  0.1021  0.1594  0.0102
  377loPI    C2 6018   3.854   9.090  11.421 -0.1126 -0.0199 -0.0186
  377loPI    C3 6019   3.681   9.405  11.597 -0.0097  0.0082  0.0334
  377loPI   PO4 6020   3.795   9.377  10.978  0.1465  0.0222 -0.0380
  377loPI   GL1 6021   3.896   9.193  10.570  0.0978  0.1894  0.1961
  377loPI   GL2 6022   4.114   9.183  10.596 -0.2043  0.1113 -0.0521
  377loPI   C1A 6023   3.802   9.065  10.169  0.1520  0.0389  0.1776
  377loPI   C2A 6024   3.826   9.051   9.768 -0.1093  0.0946 -0.2253
  377loPI   C3A 6025   3.887   9.025   9.300 -0.0710 -0.0286  0.0131
  377loPI   C4A 6026   3.840   9.126   8.871 -0.1998 -0.1555 -0.2044
  377loPI   C5A 6027   4.070   9.303   8.482 -0.0206 -0.2103  0.0991
  377loPI   C6A 6028   3.945   9.648   8.310  0.0698  0.0011  0.0709
  377loPI   C1B 6029   4.397   9.178  10.282 -0.2787 -0.2894 -0.0585
  377loPI   C2B 6030   4.418   9.193   9.903 -0.0615  0.4650 -0.0877
  377loPI   C3B 6031   4.397   9.107   9.453  0.1589 -0.0315 -0.1114
  377loPI   C4B 6032   4.319   8.995   8.995  0.1813  0.0393  0.0442
  378loPI    C1 6033  11.904  14.978  10.974  0.0244 -0.3244 -0.1465
  378loPI    C2 6034  11.680  14.815  11.262  0.0882 -0.0805  0.0437
  378loPI    C3 6035  12.078  14.804  11.289  0.0950 -0.1112 -0.0663
  378loPI   PO4 6036  11.826  14.881  10.764  0.0325  0.1069 -0.1323
  378loPI   GL1 6037  11.862  15.071  10.428  0.0282 -0.0602 -0.1658
  378loPI   GL2 6038  12.114  14.919  10.361  0.1825  0.2231  0.0941
  378loPI   C1A 6039  11.762  15.144  10.074 -0.2053 -0.2188 -0.1772
  378loPI   C2A 6040  11.650  15.155   9.613 -0.0362 -0.0013 -0.2196
  378loPI   C3A 6041  11.558  15.187   9.278 -0.3700  0.0674 -0.2738
  378loPI   C4A 6042  11.740  15.229   8.842 -0.0855  0.2754 -0.0542
  378loPI   C5A 6043  11.860  15.167   8.355  0.3460 -0.1807  0.2028
  378loPI   C6A 6044  12.155  14.851   8.165  0.0843 -0.4056 -0.0303
  378loPI   C1B 6045  12.060  14.735   9.883 -0.1943  0.1076  0.2730
  378loPI   C2B 6046  11.996  14.710   9.523  0.1823  0.1407  0.0661
  378loPI   C3B 6047  12.085  14.812   9.091  0.0792  0.5732 -0.0888
  378loPI   C4B 6048  12.086  14.809   8.673  0.0468  0.0898 -0.0626
  379loPI    C1 6049  12.003  12.608  11.365  0.3029 -0.1594 -0.3523
  379loPI    C2 6050  12.258  12.859  11.545  0.0799 -0.2161  0.0549
  379loPI    C3 6051  12.242  12.475  11.658 -0.1516 -0.2237  0.0009
  379loPI   PO4 6052  11.968  12.765  11.080 -0.1653 -0.5508  0.0199
  379loPI   GL1 6053  11.910  12.600  10.640  0.1085  0.0180  0.0564
  379loPI   GL2 6054  11.974  13.004  10.638 -0.1900 -0.1619  0.0840
  379loPI   C1A 6055  11.789  12.600  10.205 -0.2267  0.0315 -0.2031
  379loPI   C2A 6056  11.832  12.588   9.786  0.0819 -0.3158 -0.0070
  379loPI   C3A 6057  11.876  12.530   9.367  0.3222 -0.0449  0.1149
  379loPI   C4A 6058  11.975  12.561   8.971  0.1352  0.0047 -0.2768
  379loPI   C5A 6059  11.966  12.506   8.574  0.2307 -0.1552 -0.2221
  379loPI   C6A 6060  12.037  12.400   8.078  0.0938  0.3002 -0.2444
  379loPI   C1B 6061  12.133  13.051  10.253  0.3682 -0.1406 -0.0799
  379loPI   C2B 6062  12.064  13.084   9.760  0.0037  0.1758 -0.2230
  379loPI   C3B 6063  12.176  13.037   9.299  0.1894 -0.1365 -0.1066
  379loPI   C4B 6064  12.204  12.968   8.905  0.0065 -0.0371 -0.0295
  380loPI    C1 6065   7.856   7.419  11.205  0.0310 -0.0525  0.0355
  380loPI    C2 6066   7.750   7.509  11.580  0.1303  0.0119  0.0484
  380loPI    C3 6067   7.847   7.133  11.484 -0.0174 -0.0293  0.0580
  380loPI   PO4 6068   7.666   7.458  11.068 -0.1530  0.0099 -0.0723
  380loPI   GL1 6069   7.481   7.725  10.807 -0.1479 -0.0550  0.2300
  380loPI   GL2 6070   7.739   7.933  10.838  0.0023 -0.1903  0.1243
  380loPI   C1A 6071   7.082   7.754  10.709  0.1785  0.0058 -0.2071
  380loPI   C2A 6072   7.027   7.719  10.285 -0.0739 -0.3490  0.0360
  380loPI   C3A 6073   7.109   7.646   9.773 -0.0072  0.0438  0.1022
  380loPI   C4A 6074   7.119   7.530   9.349 -0.2490 -0.5969 -0.1370
  380loPI   C5A 6075   6.997   7.543   8.930  0.2773 -0.0796  0.0738
  380loPI   C6A 6076   6.983   7.075   8.715  0.0795 -0.1599  0.2061
  380loPI   C1B 6077   7.613   7.819  10.354  0.0027  0.0513 -0.2677
  380loPI   C2B 6078   7.575   7.756   9.929  0.0604 -0.2558 -0.1246
  380loPI   C3B 6079   7.599   7.654   9.455  0.3670  0.0308 -0.0865
  380loPI   C4B 6080   7.586   7.628   9.030 -0.1145 -0.1246 -0.3656
  381loPI    C1 6081  11.012  16.598  11.001  0.2315  0.1329  0.0858
  381loPI    C2 6082  11.093  16.726  11.371  0.3159  0.0864  0.0836
  381loPI    C3 6083  11.137  16.339  11.279  0.0506  0.0521  0.0932
  381loPI   PO4 6084  10.740  16.588  10.917  0.0258 -0.1316 -0.1121
  381loPI   GL1 6085  10.703  16.888  10.559 -0.0565 -0.1479 -0.1959
  381loPI   GL2 6086  10.602  16.692  10.343  0.2680 -0.1951 -0.0786
  381loPI   C1A 6087  11.017  16.810  10.057  0.2415  0.0840  0.1293
  381loPI   C2A 6088  10.982  16.834   9.611  0.0798  0.0145  0.1346
  381loPI   C3A 6089  11.099  16.951   9.212  0.1022  0.0320 -0.0697
  381loPI   C4A 6090  11.179  16.856   8.729  0.0833 -0.0787  0.4185
  381loPI   C5A 6091  11.224  16.938   8.258 -0.0478 -0.2254 -0.2315
  381loPI   C6A 6092  11.133  17.298   8.144  0.1312  0.0474 -0.2179
  381loPI   C1B 6093  10.590  16.659   9.894  0.3413 -0.0157  0.1208
  381loPI   C2B 6094  10.564  16.946   9.458  0.2150  0.0520  0.1575
  381loPI   C3B 6095  10.603  16.801   9.003  0.1436  0.1504 -0.0894
  381loPI   C4B 6096  10.656  16.867   8.556 -0.1241 -0.2679 -0.3254
  382loPI    C1 6097   3.159  15.845  10.789 -0.1899 -0.2233  0.1438
  382loPI    C2 6098   3.554  15.828  10.729 -0.1695  0.1438  0.1477
  382loPI    C3 6099   3.407  15.823  11.101 -0.1678  0.0365  0.1471
  382loPI   PO4 6100   3.093  16.020  10.591  0.4580 -0.1016  0.0251
  382loPI   GL1 6101   2.857  15.956  10.092 -0.1800 -0.1634 -0.0331
  382loPI   GL2 6102   2.516  15.755  10.060  0.2827 -0.2277  0.1691
  382loPI   C1A 6103   2.731  16.028   9.581 -0.1248 -0.3358 -0.0300
  382loPI   C2A 6104   2.625  16.030   9.100 -0.2515  0.0916 -0.0269
  382loPI   C3A 6105   2.618  15.987   8.704 -0.1497  0.0628  0.1611
  382loPI   C4A 6106   2.792  15.933   8.258 -0.1913 -0.0806  0.0111
  382loPI   C5A 6107   2.813  15.491   8.141  0.0378 -0.1016  0.0379
  382loPI   C6A 6108   2.568  15.153   8.239  0.0792 -0.1105 -0.2028
  382loPI   C1B 6109   2.230  15.902   9.766  0.1105  0.2218  0.2226
  382loPI   C2B 6110   2.241  15.893   9.408 -0.1209  0.1435  0.3155
  382loPI   C3B 6111   2.121  15.957   8.971  0.0197  0.0881  0.3168
  382loPI   C4B 6112   2.200  16.124   8.505 -0.0011 -0.0399 -0.2448
  383loPI    C1 6113   5.758  15.702  10.573 -0.0627  0.3719 -0.0814
  383loPI    C2 6114   6.009  15.799  10.869 -0.0158  0.1192 -0.0358
  383loPI    C3 6115   5.617  15.766  10.942  0.0046 -0.0142  0.0156
  383loPI   PO4 6116   5.755  15.938  10.359 -0.0041  0.0150  0.1243
  383loPI   GL1 6117   5.745  16.092   9.930 -0.2622  0.0325 -0.4127
  383loPI   GL2 6118   6.089  16.019  10.005  0.1452 -0.4256  0.1642
  383loPI   C1A 6119   5.761  16.256   9.555 -0.0515  0.3184 -0.0618
  383loPI   C2A 6120   5.789  16.250   9.125 -0.1910 -0.2172 -0.2080
  383loPI   C3A 6121   5.793  16.171   8.660 -0.1214 -0.2065  0.0234
  383loPI   C4A 6122   5.916  16.082   8.217 -0.1649 -0.1833 -0.2577
  383loPI   C5A 6123   5.767  15.937   7.890 -0.1903  0.0019  0.0534
  383loPI   C6A 6124   5.349  15.903   7.875 -0.0621 -0.0634  0.0534
  383loPI   C1B 6125   6.236  16.021   9.666  0.0055  0.0689 -0.0143
  383loPI   C2B 6126   6.225  16.048   9.291  0.0387  0.1123  0.3325
  383loPI   C3B 6127   6.244  16.064   8.896  0.1424  0.2851  0.2020
  383loPI   C4B 6128   6.325  16.172   8.483  0.1559  0.2101  0.2112
  384loPI    C1 6129  12.286  16.793  10.849 -0.0695  0.1638 -0.2197
  384loPI    C2 6130  12.567  16.574  10.666 -0.0411 -0.0827  0.1095
  384loPI    C3 6131  12.631  16.714  11.036 -0.2367  0.1095  0.0731
  384loPI   PO4 6132  12.037  16.705  10.666  0.2157 -0.1550  0.1825
  384loPI   GL1 6133  12.047  16.988  10.309 -0.0305 -0.0806 -0.0613
  384loPI   GL2 6134  12.143  17.148  10.536 -0.1196 -0.0132 -0.0281
  384loPI   C1A 6135  12.105  17.031   9.908  0.2122  0.0888  0.0554
  384loPI   C2A 6136  12.075  17.076   9.484 -0.2363  0.4389  0.0858
  384loPI   C3A 6137  12.083  17.114   9.096  0.1674  0.2735  0.1704
  384loPI   C4A 6138  12.067  17.143   8.675  0.1975  0.3029  0.2905
  384loPI   C5A 6139  11.869  17.013   8.251 -0.2465  0.0844  0.0493
  384loPI   C6A 6140  11.656  17.279   7.973  0.0251 -0.1139  0.0827
  384loPI   C1B 6141  12.248  17.431  10.130 -0.0825  0.0937 -0.0824
  384loPI   C2B 6142  12.297  17.466   9.674  0.0748  0.0375  0.1764
  384loPI   C3B 6143  12.291  17.520   9.235 -0.1871 -0.5147 -0.1683
  384loPI   C4B 6144  12.405  17.467   8.795  0.0566  0.1012  0.0401
  385loPI    C1 6145  12.579  11.997  11.244  0.0691 -0.0687 -0.0321
  385loPI    C2 6146  12.940  11.910  11.394  0.1326  0.0960 -0.0880
  385loPI    C3 6147  12.692  12.150  11.596  0.0441 -0.0360 -0.0384
  385loPI   PO4 6148  12.639  12.090  10.994 -0.2206 -0.0161 -0.1165
  385loPI   GL1 6149  12.551  12.026  10.588  0.0949  0.1523 -0.2338
  385loPI   GL2 6150  12.197  12.131  10.472 -0.2198 -0.1859  0.0192
  385loPI   C1A 6151  12.608  12.165  10.170  0.0965 -0.0628  0.0360
  385loPI   C2A 6152  12.658  12.182   9.708  0.0921  0.0739 -0.2472
  385loPI   C3A 6153  12.749  12.135   9.233 -0.0704 -0.2201  0.2369
  385loPI   C4A 6154  12.870  12.162   8.814  0.0262 -0.3079 -0.0625
  385loPI   C5A 6155  12.722  12.286   8.475 -0.0911  0.4592 -0.1653
  385loPI   C6A 6156  12.578  12.214   8.053  0.0807 -0.0670 -0.2393
  385loPI   C1B 6157  12.099  12.223  10.001  0.0150  0.2699 -0.1447
  385loPI   C2B 6158  12.143  12.154   9.521  0.0962  0.0747  0.1133
  385loPI   C3B 6159  12.198  12.082   9.156 -0.0969 -0.2892 -0.2549
  385loPI   C4B 6160  12.297  12.179   8.743 -0.0215 -0.4190 -0.1612
  386loPI    C1 6161  14.637   0.354  11.200 -0.1931  0.0593  0.2754
  386loPI    C2 6162  14.293   0.338  10.996 -0.2045 -0.1449  0.3076
  386loPI    C3 6163  14.339   0.119  11.327  0.0253 -0.2660  0.1978
  386loPI   PO4 6164  14.814   0.338  11.045 -0.0684  0.1713  0.2521
  386loPI   GL1 6165  14.837   0.306  10.643  0.0776 -0.0290  0.0843
  386loPI   GL2 6166  14.835   0.657  10.562 -0.0715  0.0042  0.2473
  386loPI   C1A 6167  14.665   0.261  10.106 -0.1532  0.2711  0.1525
  386loPI   C2A 6168  14.605   0.283   9.658  0.1772  0.1901 -0.2263
  386loPI   C3A 6169  14.565   0.277   9.236 -0.0872  0.4164  0.1904
  386loPI   C4A 6170  14.613   0.163   8.863 -0.1944 -0.1640  0.0492
  386loPI   C5A 6171  14.655   0.212   8.426 -0.3913  0.1341  0.0057
  386loPI   C6A 6172  14.917   0.319   8.024  0.0637  0.0090 -0.0201
  386loPI   C1B 6173  14.927   0.718  10.157  0.1593  0.1311 -0.1692
  386loPI   C2B 6174  14.908   0.768   9.731  0.2392  0.0253  0.0892
  386loPI   C3B 6175  14.840   0.702   9.217 -0.1206  0.1113 -0.0477
  386loPI   C4B 6176  14.898   0.610   8.779  0.5022 -0.1442  0.0307
  387loPI    C1 6177  11.636   8.257  10.859  0.1431  0.1175  0.1142
  387loPI    C2 6178  11.475   8.623  10.881 -0.0540  0.0255  0.2325
  387loPI    C3 6179  11.593   8.436  11.214  0.4979  0.1753  0.1313
  387loPI   PO4 6180  11.461   8.123  10.653 -0.1339  0.4049  0.0615
  387loPI   GL1 6181  11.208   7.932  10.259 -0.1121 -0.1042  0.1301
  387loPI   GL2 6182  11.209   7.545  10.338 -0.2168  0.0065 -0.0076
  387loPI   C1A 6183  11.310   7.944   9.738  0.0522 -0.0427 -0.1715
  387loPI   C2A 6184  11.322   7.977   9.306  0.1547  0.1156 -0.0189
  387loPI   C3A 6185  11.323   7.965   8.893  0.4205  0.0153  0.1208
  387loPI   C4A 6186  11.234   8.040   8.479 -0.1695  0.0347 -0.3743
  387loPI   C5A 6187  11.260   8.432   8.197  0.1805  0.0769 -0.1850
  387loPI   C6A 6188  11.019   8.560   7.823  0.2029 -0.3925  0.1423
  387loPI   C1B 6189  11.111   7.525   9.948 -0.1567 -0.0975 -0.0428
  387loPI   C2B 6190  11.084   7.543   9.452  0.2333 -0.1288  0.0139
  387loPI   C3B 6191  11.083   7.552   9.042 -0.2368 -0.2497  0.0418
  387loPI   C4B 6192  11.079   7.601   8.568  0.0178 -0.1140  0.2040
  388loPI    C1 6193  10.327  14.299  10.391  0.1899  0.1514  0.1510
  388loPI    C2 6194  10.006  14.268  10.627  0.1770  0.2106  0.1412
  388loPI    C3 6195  10.360  14.131  10.752  0.0603 -0.2570 -0.0215
  388loPI   PO4 6196  10.293  14.542  10.286  0.2250  0.0869 -0.1507
  388loPI   GL1 6197  10.486  14.745   9.941  0.0795  0.2164  0.1577
  388loPI   GL2 6198  10.302  14.990   9.925  0.1123  0.0708  0.0413
  388loPI   C1A 6199  10.751  14.651   9.651  0.1048 -0.4603 -0.1837
  388loPI   C2A 6200  10.692  14.664   9.257 -0.0156  0.4499 -0.1561
  388loPI   C3A 6201  10.734  14.731   8.891 -0.1730 -0.1660 -0.2151
  388loPI   C4A 6202  10.552  14.714   8.510  0.2384  0.0438 -0.2057
  388loPI   C5A 6203  10.280  14.736   8.183 -0.1594 -0.3132 -0.0910
  388loPI   C6A 6204   9.989  14.374   7.985 -0.2383 -0.0760 -0.0515
  388loPI   C1B 6205  10.265  14.938   9.505  0.5672  0.0133 -0.2472
  388loPI   C2B 6206  10.268  14.947   9.114 -0.1698 -0.2737  0.0214
  388loPI   C3B 6207  10.113  14.926   8.675  0.0467 -0.0113 -0.2488
  388loPI   C4B 6208   9.864  14.672   8.461  0.0602  0.1607  0.1973
  389loPI    C1 6209  14.199  16.490  11.014  0.0166  0.1404 -0.1440
  389loPI    C2 6210  14.442  16.592  11.315  0.0951  0.0709 -0.1834
  389loPI    C3 6211  14.061  16.496  11.390  0.0947  0.1247 -0.1148
  389loPI   PO4 6212  14.420  16.478  10.801 -0.0064  0.0073 -0.0632
  389loPI   GL1 6213  14.398  16.168  10.408 -0.1846 -0.0734 -0.0680
  389loPI   GL2 6214  14.608  15.916  10.262 -0.0278  0.0557  0.0882
  389loPI   C1A 6215  14.260  16.234   9.945  0.2134 -0.1995  0.1744
  389loPI   C2A 6216  14.304  16.285   9.449  0.4286 -0.5302 -0.2111
  389loPI   C3A 6217  14.236  16.280   8.997  0.0670 -0.0439  0.0953
  389loPI   C4A 6218  14.282  16.367   8.559  0.3859  0.1629  0.0828
  389loPI   C5A 6219  14.266  16.219   8.199 -0.1638  0.0690  0.1199
  389loPI   C6A 6220  14.007  15.997   7.837 -0.0066 -0.2127  0.3811
  389loPI   C1B 6221  14.575  15.905   9.947  0.0958 -0.0668  0.0901
  389loPI   C2B 6222  14.546  15.823   9.522 -0.1099 -0.1870  0.4094
  389loPI   C3B 6223  14.562  15.896   9.058 -0.1376  0.0902 -0.0036
  389loPI   C4B 6224  14.478  15.920   8.668 -0.2754  0.1503 -0.0538
  390loPI    C1 6225  17.083  16.681  10.833 -0.1988  0.3187 -0.4614
  390loPI    C2 6226  16.708  16.780  10.733 -0.3317  0.1452 -0.1525
  390loPI    C3 6227  16.807  16.738  11.118 -0.0133  0.1082 -0.2355
  390loPI   PO4 6228  17.197  16.639  10.561  0.0111 -0.1170  0.1956
  390loPI   GL1 6229  17.005  16.749  10.308  0.1707 -0.1039 -0.2375
  390loPI   GL2 6230  17.091  16.952  10.123 -0.1881 -0.0355  0.0444
  390loPI   C1A 6231  16.857  16.573   9.942 -0.2422 -0.2455  0.2346
  390loPI   C2A 6232  16.730  16.504   9.511 -0.0656 -0.0453 -0.0189
  390loPI   C3A 6233  16.772  16.499   9.089 -0.2147 -0.1658  0.1397
  390loPI   C4A 6234  16.786  16.495   8.645  0.2245 -0.1616 -0.0145
  390loPI   C5A 6235  16.844  16.508   8.250  0.1469 -0.0351 -0.1433
  390loPI   C6A 6236  16.590  16.441   7.988  0.0523 -0.0580 -0.1328
  390loPI   C1B 6237  17.026  16.977   9.670  0.0342  0.1802  0.0530
  390loPI   C2B 6238  17.012  17.009   9.207  0.1773  0.1112  0.0930
  390loPI   C3B 6239  16.985  16.978   8.821  0.1231  0.3134  0.1597
  390loPI   C4B 6240  17.059  16.990   8.441 -0.1615 -0.1476 -0.0473
  391loPI    C1 6241   4.523   2.877  11.283 -0.1636  0.1203  0.0485
  391loPI    C2 6242   4.381   3.173  11.513 -0.2458  0.1781 -0.0749
  391loPI    C3 6243   4.433   2.807  11.666 -0.0528  0.2784  0.1045
  391loPI   PO4 6244   4.408   2.920  11.069  0.0946 -0.3888 -0.0366
  391loPI   GL1 6245   4.424   3.073  10.711 -0.3464  0.4754  0.1062
  391loPI   GL2 6246   4.357   2.712  10.522  0.1414 -0.1035  0.0375
  391loPI   C1A 6247   4.534   3.189  10.220  0.0263 -0.1063  0.1920
  391loPI   C2A 6248   4.539   3.247   9.795 -0.1170 -0.0929 -0.0449
  391loPI   C3A 6249   4.645   3.257   9.392  0.0548 -0.0500 -0.1245
  391loPI   C4A 6250   4.647   3.216   8.921 -0.1054  0.1044 -0.1207
  391loPI   C5A 6251   4.657   3.126   8.561  0.3324  0.3850  0.1985
  391loPI   C6A 6252   5.047   3.041   8.358  0.3493 -0.0358  0.1494
  391loPI   C1B 6253   4.304   2.682  10.060  0.1102 -0.4447  0.1454
  391loPI   C2B 6254   4.368   2.731   9.634 -0.2253  0.1787  0.2693
  391loPI   C3B 6255   4.479   2.795   9.256  0.1058 -0.1465 -0.0082
  391loPI   C4B 6256   4.451   2.723   8.821 -0.1416 -0.1164 -0.1471
  392loPI    C1 6257  16.479   7.114  11.239 -0.0475  0.0157 -0.0275
  392loPI    C2 6258  16.185   6.941  11.031 -0.2576  0.2932  0.0335
  392loPI    C3 6259  16.108   7.108  11.386  0.0487  0.0457  0.2214
  392loPI   PO4 6260  16.683   7.052  11.117 -0.1423 -0.3121  0.3071
  392loPI   GL1 6261  16.820   6.815  10.690 -0.0716  0.2183  0.1384
  392loPI   GL2 6262  16.956   7.102  10.636  0.0843 -0.0589 -0.3294
  392loPI   C1A 6263  16.703   6.752  10.319 -0.0239  0.1436 -0.0063
  392loPI   C2A 6264  16.640   6.667   9.975 -0.1493 -0.0240 -0.1128
  392loPI   C3A 6265  16.750   6.681   9.575  0.0820 -0.1465  0.1650
  392loPI   C4A 6266  16.700   6.736   9.203 -0.0183 -0.1036 -0.2847
  392loPI   C5A 6267  16.776   6.685   8.775 -0.0840 -0.2033  0.0063
  392loPI   C6A 6268  17.012   6.834   8.437 -0.3883  0.2602  0.3827
  392loPI   C1B 6269  16.962   7.248  10.219  0.0127 -0.0810 -0.0103
  392loPI   C2B 6270  16.906   7.089   9.824  0.1142  0.1730  0.0242
  392loPI   C3B 6271  16.927   7.137   9.377  0.4141 -0.2336 -0.1875
  392loPI   C4B 6272  17.019   7.118   8.979  0.0927  0.1913 -0.0098
  393loPI    C1 6273   1.306  14.375  10.936  0.1270  0.1059  0.1573
  393loPI    C2 6274   1.651  14.554  11.028  0.2391  0.0544 -0.1516
  393loPI    C3 6275   1.446  14.359  11.311  0.4771  0.0593  0.0284
  393loPI   PO4 6276   1.478  14.296  10.659  0.1352 -0.0882  0.1882
  393loPI   GL1 6277   1.363  14.055  10.225  0.1066 -0.0784 -0.0322
  393loPI   GL2 6278   1.556  14.337  10.175 -0.1061  0.2362 -0.2001
  393loPI   C1A 6279   1.213  14.007   9.873 -0.1978  0.0736 -0.1990
  393loPI   C2A 6280   1.184  14.051   9.525  0.0766  0.1761 -0.0226
  393loPI   C3A 6281   1.161  14.069   9.064 -0.2056  0.2204  0.0205
  393loPI   C4A 6282   1.141  14.048   8.703  0.1668  0.2836 -0.1793
  393loPI   C5A 6283   1.155  13.915   8.305 -0.1425  0.0214  0.0234
  393loPI   C6A 6284   0.963  13.540   8.270 -0.0609  0.3320  0.2441
  393loPI   C1B 6285   1.583  14.260   9.652  0.1653 -0.0860 -0.0283
  393loPI   C2B 6286   1.697  14.250   9.218 -0.0662 -0.0848  0.2618
  393loPI   C3B 6287   1.684  14.140   8.813  0.2544 -0.0960 -0.0325
  393loPI   C4B 6288   1.762  14.033   8.358 -0.2859 -0.1093 -0.0865
  394loPI    C1 6289  14.093   0.978  11.055 -0.0694 -0.2960  0.1379
  394loPI    C2 6290  14.150   0.709  11.345 -0.1759 -0.2573  0.1953
  394loPI    C3 6291  13.985   1.063  11.430 -0.0625 -0.1842  0.1150
  394loPI   PO4 6292  14.015   0.838  10.898 -0.0721  0.0333  0.2011
  394loPI   GL1 6293  14.203   0.691  10.461 -0.2501 -0.1268 -0.0582
  394loPI   GL2 6294  13.921   0.734  10.407 -0.1827 -0.0561 -0.2439
  394loPI   C1A 6295  14.338   0.633  10.021  0.0091  0.0688  0.2605
  394loPI   C2A 6296  14.352   0.708   9.620 -0.3442  0.5658  0.2727
  394loPI   C3A 6297  14.305   0.779   9.291 -0.0952  0.1954  0.0094
  394loPI   C4A 6298  14.354   0.686   8.876  0.0410  0.2639 -0.2245
  394loPI   C5A 6299  14.328   0.725   8.470 -0.0935  0.1184 -0.1036
  394loPI   C6A 6300  14.262   0.690   7.964 -0.2117  0.1353  0.0397
  394loPI   C1B 6301  13.802   0.674  10.021 -0.0496 -0.0083  0.0447
  394loPI   C2B 6302  13.679   0.686   9.493 -0.1779 -0.0656  0.1033
  394loPI   C3B 6303  13.897   0.712   9.047  0.0247 -0.0915 -0.1030
  394loPI   C4B 6304  13.798   0.742   8.628  0.0598  0.0601 -0.2694
  395loPI    C1 6305   2.036   4.259  11.250  0.1314 -0.0467  0.0047
  395loPI    C2 6306   2.115   4.524  11.539  0.2403 -0.0399 -0.0305
  395loPI    C3 6307   1.852   4.230  11.603  0.2308 -0.0120  0.0601
  395loPI   PO4 6308   1.961   4.435  11.030  0.4742 -0.2987  0.2036
  395loPI   GL1 6309   1.901   4.690  10.661 -0.1967  0.2098  0.0026
  395loPI   GL2 6310   2.072   4.439  10.550  0.0727  0.2743  0.0548
  395loPI   C1A 6311   1.893   4.799  10.189  0.0460  0.0462  0.1576
  395loPI   C2A 6312   1.830   4.727   9.783 -0.1434 -0.0867 -0.1755
  395loPI   C3A 6313   1.948   4.763   9.378  0.0087  0.0625  0.2961
  395loPI   C4A 6314   1.968   4.855   8.951  0.4561  0.0650  0.3181
  395loPI   C5A 6315   2.248   5.231   8.814 -0.1495  0.0002  0.0253
  395loPI   C6A 6316   2.136   5.572   8.577 -0.0750  0.1749 -0.0190
  395loPI   C1B 6317   2.167   4.318  10.171  0.0645 -0.3371 -0.0509
  395loPI   C2B 6318   2.224   4.377   9.635  0.0908 -0.0071 -0.1389
  395loPI   C3B 6319   2.384   4.359   9.175 -0.2204 -0.1407  0.3370
  395loPI   C4B 6320   2.350   4.260   8.748 -0.0811 -0.2216  0.2652
  396loPI    C1 6321   4.148  16.264  10.756 -0.1115 -0.1376  0.0474
  396loPI    C2 6322   3.938  16.077  11.040 -0.0093 -0.1878  0.0904
  396loPI    C3 6323   4.309  16.204  11.117  0.0222 -0.2095 -0.0234
  396loPI   PO4 6324   4.040  16.146  10.578  0.0301 -0.3045 -0.0696
  396loPI   GL1 6325   3.945  16.095  10.129 -0.0556  0.0936  0.1556
  396loPI   GL2 6326   4.174  16.262   9.988 -0.1527 -0.1993 -0.1371
  396loPI   C1A 6327   3.777  15.999   9.783  0.0524 -0.3534  0.1639
  396loPI   C2A 6328   3.723  16.133   9.398 -0.1014  0.2425  0.1616
  396loPI   C3A 6329   3.706  16.033   8.937  0.1987 -0.1280  0.0107
  396loPI   C4A 6330   3.539  16.209   8.604  0.0538 -0.2865  0.2226
  396loPI   C5A 6331   3.299  16.150   8.263  0.3993  0.2006  0.0105
  396loPI   C6A 6332   3.095  15.910   7.910 -0.1269 -0.0348  0.1567
  396loPI   C1B 6333   3.979  16.482   9.718 -0.0056  0.0658 -0.0440
  396loPI   C2B 6334   3.973  16.612   9.304 -0.3927 -0.0397 -0.3781
  396loPI   C3B 6335   4.054  16.516   8.889  0.0297 -0.1338  0.2091
  396loPI   C4B 6336   3.998  16.338   8.649 -0.0513 -0.1388  0.2624
  397loPI    C1 6337  15.196   5.440  11.172  0.0738  0.1134  0.3436
  397loPI    C2 6338  15.155   5.807  11.327 -0.2189  0.0524  0.4164
  397loPI    C3 6339  14.899   5.517  11.428 -0.1949 -0.0842  0.0973
  397loPI   PO4 6340  15.293   5.485  10.899 -0.2994 -0.0237 -0.0888
  397loPI   GL1 6341  15.477   5.220  10.562  0.2211 -0.1605  0.1109
  397loPI   GL2 6342  15.637   5.169  10.361 -0.1459  0.0029 -0.1008
  397loPI   C1A 6343  15.372   4.812  10.221 -0.1731 -0.2442  0.0124
  397loPI   C2A 6344  15.230   4.733   9.819  0.0074 -0.2716  0.0298
  397loPI   C3A 6345  15.289   4.697   9.303 -0.0071 -0.0869  0.1099
  397loPI   C4A 6346  15.277   4.826   8.797 -0.1178  0.3232 -0.0704
  397loPI   C5A 6347  14.954   5.159   8.547  0.1002  0.1602  0.0071
  397loPI   C6A 6348  14.665   5.444   8.228 -0.2702  0.1297 -0.0556
  397loPI   C1B 6349  15.486   5.238   9.923  0.2332 -0.0499 -0.0305
  397loPI   C2B 6350  15.448   5.303   9.467 -0.0995  0.1310  0.2247
  397loPI   C3B 6351  15.518   5.189   9.073  0.1735 -0.0692 -0.1004
  397loPI   C4B 6352  15.460   5.253   8.653  0.0019 -0.5521  0.0362
  398loPI    C1 6353  12.690   5.731  11.236 -0.1118  0.0860 -0.0755
  398loPI    C2 6354  12.342   5.900  11.135 -0.1121  0.1060 -0.0413
  398loPI    C3 6355  12.353   5.623  11.423 -0.1123  0.0448 -0.0999
  398loPI   PO4 6356  12.833   6.025  11.047 -0.0819  0.0057  0.0956
  398loPI   GL1 6357  12.890   6.119  10.572 -0.2273 -0.1115 -0.1179
  398loPI   GL2 6358  12.987   6.418  10.643 -0.0072 -0.0200 -0.0250
  398loPI   C1A 6359  12.742   5.880  10.292 -0.1566 -0.2400  0.3349
  398loPI   C2A 6360  12.789   5.874   9.814 -0.0906 -0.0165  0.2460
  398loPI   C3A 6361  12.768   5.870   9.298  0.0666  0.1468 -0.0400
  398loPI   C4A 6362  12.792   5.896   8.925 -0.0786  0.1017 -0.3639
  398loPI   C5A 6363  12.816   5.982   8.481  0.1178  0.2580  0.2182
  398loPI   C6A 6364  12.982   5.916   8.031 -0.1313 -0.2876  0.0047
  398loPI   C1B 6365  12.934   6.478  10.127 -0.2303 -0.3617 -0.0690
  398loPI   C2B 6366  13.001   6.358   9.845 -0.0097 -0.3805  0.0355
  398loPI   C3B 6367  12.961   6.336   9.410 -0.0604 -0.0140  0.1772
  398loPI   C4B 6368  12.950   6.398   8.851  0.0983 -0.0094  0.1612
  399loPI    C1 6369  14.437  10.574  10.870  0.0512 -0.0013 -0.1312
  399loPI    C2 6370  14.550  10.330  11.165  0.1823  0.2085 -0.0053
  399loPI    C3 6371  14.251  10.589  11.223 -0.0011  0.0344 -0.1601
  399loPI   PO4 6372  14.637  10.611  10.779  0.0848 -0.1552 -0.3049
  399loPI   GL1 6373  15.052  10.672  10.593 -0.0788  0.0879 -0.1796
  399loPI   GL2 6374  15.181  10.366  10.489  0.0096  0.1770 -0.0812
  399loPI   C1A 6375  14.836  10.644  10.079  0.3033  0.0199 -0.0553
  399loPI   C2A 6376  14.928  10.527   9.710  0.1375 -0.0925 -0.0781
  399loPI   C3A 6377  15.002  10.549   9.218 -0.1235  0.4836  0.0379
  399loPI   C4A 6378  14.974  10.519   8.826  0.0873  0.1072 -0.4829
  399loPI   C5A 6379  15.157  10.259   8.515 -0.1668  0.0271 -0.3298
  399loPI   C6A 6380  15.460  10.281   8.302 -0.2424  0.0697  0.0528
  399loPI   C1B 6381  15.181  10.216  10.013  0.2383  0.2238  0.3227
  399loPI   C2B 6382  15.254  10.117   9.497 -0.1047  0.0106 -0.2597
  399loPI   C3B 6383  15.365  10.133   9.078 -0.1491 -0.1666 -0.1782
  399loPI   C4B 6384  15.559  10.000   8.680  0.2663  0.0037  0.3714
  400loPI    C1 6385   4.439   2.350  11.361  0.0942  0.1933  0.0185
  400loPI    C2 6386   4.672   2.360  11.685  0.1047 -0.1163  0.0235
  400loPI    C3 6387   4.363   2.107  11.669 -0.1340  0.1740 -0.0506
  400loPI   PO4 6388   4.598   2.421  11.190 -0.1336  0.2039  0.2827
  400loPI   GL1 6389   4.693   2.476  10.781 -0.1493 -0.0321  0.2379
  400loPI   GL2 6390   4.635   2.171  10.728 -0.0156 -0.0229 -0.0384
  400loPI   C1A 6391   4.791   2.719  10.331 -0.0517  0.0241  0.3810
  400loPI   C2A 6392   4.791   2.797   9.949  0.1106 -0.0882 -0.0418
  400loPI   C3A 6393   4.888   2.836   9.617  0.0240  0.0610  0.0192
  400loPI   C4A 6394   5.042   2.898   9.239  0.1538  0.1362  0.0474
  400loPI   C5A 6395   5.053   2.823   8.805  0.0248 -0.3357  0.2295
  400loPI   C6A 6396   4.857   2.481   8.604 -0.0667  0.1490  0.0426
  400loPI   C1B 6397   4.492   2.278  10.334  0.1928  0.0891 -0.1294
  400loPI   C2B 6398   4.606   2.302   9.899  0.3881  0.1302  0.0406
  400loPI   C3B 6399   4.757   2.300   9.505  0.2397  0.1231 -0.1391
  400loPI   C4B 6400   4.795   2.362   9.075 -0.0608  0.0334  0.2101
  401loPI    C1 6401   8.533   1.692  10.985 -0.1980  0.2617 -0.1134
  401loPI    C2 6402   8.469   1.818  11.359  0.1196  0.0423  0.0192
  401loPI    C3 6403   8.693   1.493  11.293 -0.1973 -0.1091 -0.3470
  401loPI   PO4 6404   8.687   1.888  10.871  0.1131  0.1058  0.0771
  401loPI   GL1 6405   8.561   2.186  10.547 -0.2478  0.0635  0.0152
  401loPI   GL2 6406   8.674   2.412  10.808  0.2450  0.3802 -0.1751
  401loPI   C1A 6407   8.639   2.210  10.058  0.5250  0.2244 -0.2046
  401loPI   C2A 6408   8.580   2.317   9.691  0.2819  0.0610  0.0816
  401loPI   C3A 6409   8.701   2.345   9.297  0.1885  0.1510 -0.0150
  401loPI   C4A 6410   8.717   2.357   8.845  0.1263 -0.1139  0.1294
  401loPI   C5A 6411   8.573   2.198   8.548  0.3294 -0.0037 -0.0532
  401loPI   C6A 6412   8.563   1.773   8.355 -0.1492 -0.0268 -0.0376
  401loPI   C1B 6413   8.726   2.718  10.438  0.3568 -0.1979  0.0373
  401loPI   C2B 6414   8.720   2.774   9.995 -0.0412 -0.1944 -0.0855
  401loPI   C3B 6415   8.843   2.840   9.481 -0.0512 -0.0049  0.0140
  401loPI   C4B 6416   8.915   2.822   9.007 -0.2150  0.1891  0.0074
  402loPI    C1 6417  15.960   8.913  11.043 -0.0393 -0.1938  0.0621
  402loPI    C2 6418  15.794   8.577  11.183 -0.0165 -0.1637  0.1622
  402loPI    C3 6419  15.837   8.894  11.423 -0.1139 -0.0612  0.0453
  402loPI   PO4 6420  15.854   8.955  10.799  0.0135  0.2080  0.0484
  402loPI   GL1 6421  15.648   9.057  10.523 -0.3182 -0.1602 -0.0711
  402loPI   GL2 6422  15.665   8.744  10.336  0.0991  0.0117 -0.0572
  402loPI   C1A 6423  15.709   9.224  10.101  0.0834  0.1135  0.0350
  402loPI   C2A 6424  15.960   9.367   9.846  0.0997 -0.2803  0.1903
  402loPI   C3A 6425  16.038   9.297   9.391  0.1745  0.0122 -0.1344
  402loPI   C4A 6426  15.956   9.362   9.006 -0.2152 -0.0041  0.2430
  402loPI   C5A 6427  15.822   9.189   8.656 -0.0305  0.1803  0.1852
  402loPI   C6A 6428  16.053   9.165   8.267  0.0254 -0.0398  0.2568
  402loPI   C1B 6429  15.576   8.568   9.927 -0.1293  0.0263 -0.2372
  402loPI   C2B 6430  15.594   8.618   9.540  0.1166 -0.0610  0.1006
  402loPI   C3B 6431  15.546   8.383   9.071  0.0033 -0.3251  0.2161
  402loPI   C4B 6432  15.613   8.272   8.600  0.0312 -0.1099 -0.0095
  403loPI    C1 6433   7.955  17.054  10.974 -0.1214 -0.1923  0.2023
  403loPI    C2 6434   8.294  17.066  11.187 -0.1130 -0.0601  0.1827
  403loPI    C3 6435   7.951  16.958  11.362 -0.0795 -0.0947  0.2271
  403loPI   PO4 6436   8.196  17.177  10.682 -0.1607 -0.1402 -0.1813
  403loPI   GL1 6437   8.195  17.431  10.341  0.1069 -0.1667 -0.1579
  403loPI   GL2 6438   8.194  17.820  10.527  0.0113 -0.1125  0.4272
  403loPI   C1A 6439   8.488  17.764  10.075 -0.2324  0.2145  0.0843
  403loPI   C2A 6440   8.552  17.817   9.662  0.2642  0.0741 -0.1329
  403loPI   C3A 6441   8.594  17.983   9.217  0.1985 -0.1015  0.2153
  403loPI   C4A 6442   8.740  17.852   8.818 -0.3960  0.1805  0.1506
  403loPI   C5A 6443   8.572  17.957   8.352 -0.3808  0.0218 -0.2327
  403loPI   C6A 6444   8.555  18.258   8.120  0.1031  0.1582 -0.1104
  403loPI   C1B 6445   7.958  17.804  10.179  0.2650 -0.0684 -0.2806
  403loPI   C2B 6446   8.038  17.828   9.671 -0.0467  0.0942  0.2195
  403loPI   C3B 6447   8.091  17.975   9.239 -0.1936 -0.0525  0.3360
  403loPI   C4B 6448   8.234  17.908   8.804  0.0185  0.0918 -0.0956
  404loPI    C1 6449   0.922   4.760  11.651  0.1340 -0.2823  0.2833
  404loPI    C2 6450   0.545   4.698  11.769  0.0526 -0.1207  0.1140
  404loPI    C3 6451   0.813   4.848  12.025 -0.0894  0.1060  0.1329
  404loPI   PO4 6452   1.002   4.652  11.498 -0.0429  0.3737  0.0364
  404loPI   GL1 6453   1.003   4.645  11.118 -0.0388  0.0825 -0.2157
  404loPI   GL2 6454   0.758   4.532  10.968 -0.2176  0.1570  0.0412
  404loPI   C1A 6455   1.272   4.688  10.691 -0.1973  0.0129  0.0897
  404loPI   C2A 6456   1.276   4.711  10.222 -0.1218  0.2750  0.1594
  404loPI   C3A 6457   1.369   4.714   9.804  0.1829  0.1410  0.1518
  404loPI   C4A 6458   1.419   4.688   9.371  0.2167 -0.0547  0.2650
  404loPI   C5A 6459   1.379   4.641   8.927 -0.0446 -0.0283  0.2700
  404loPI   C6A 6460   1.544   4.768   8.581  0.0881 -0.0973  0.2411
  404loPI   C1B 6461   0.782   4.593  10.433  0.0782  0.1082 -0.0755
  404loPI   C2B 6462   0.772   4.681  10.025  0.2339  0.2295 -0.1427
  404loPI   C3B 6463   0.879   4.660   9.630 -0.3092 -0.1080  0.1306
  404loPI   C4B 6464   0.905   4.641   9.164 -0.1710  0.0879  0.0567
  405loPI    C1 6465   4.906   6.002  11.493 -0.0390 -0.0781  0.0938
  405loPI    C2 6466   4.702   6.173  11.791 -0.0982 -0.2855  0.1743
  405loPI    C3 6467   5.084   6.069  11.844  0.0984  0.2866 -0.0410
  405loPI   PO4 6468   4.866   6.190  11.249 -0.1302 -0.1058 -0.1273
  405loPI   GL1 6469   4.821   6.143  10.829 -0.2527  0.1895 -0.0286
  405loPI   GL2 6470   4.926   5.913  10.562 -0.0957  0.1747 -0.0169
  405loPI   C1A 6471   4.632   6.373  10.495  0.2169 -0.2042  0.3675
  405loPI   C2A 6472   4.677   6.360  10.037 -0.2669 -0.0479  0.2782
  405loPI   C3A 6473   4.611   6.431   9.563 -0.0801 -0.1872 -0.3221
  405loPI   C4A 6474   4.662   6.507   9.064  0.3064 -0.0327 -0.1193
  405loPI   C5A 6475   4.768   6.677   8.680  0.0091 -0.1246 -0.0178
  405loPI   C6A 6476   5.139   6.490   8.393 -0.0707 -0.1624  0.0769
  405loPI   C1B 6477   5.013   5.914  10.137 -0.0961 -0.1937  0.1759
  405loPI   C2B 6478   4.907   5.973   9.691  0.1804  0.0246 -0.1946
  405loPI   C3B 6479   4.963   5.996   9.177  0.2125 -0.2564 -0.0314
  405loPI   C4B 6480   5.003   6.212   8.783 -0.2439 -0.0534  0.0993
  406loPI    C1 6481   8.473   1.058  11.313  0.2395 -0.0571 -0.0142
  406loPI    C2 6482   8.307   1.343  11.539 -0.0286 -0.1522 -0.0874
  406loPI    C3 6483   8.312   0.964  11.668  0.3405 -0.1154  0.0167
  406loPI   PO4 6484   8.339   1.141  11.066  0.3786 -0.0700  0.3768
  406loPI   GL1 6485   8.206   1.229  10.641  0.1487  0.0465  0.0317
  406loPI   GL2 6486   8.460   0.944  10.476 -0.0385  0.0470  0.5726
  406loPI   C1A 6487   8.240   1.263  10.208  0.1128  0.3013  0.0163
  406loPI   C2A 6488   8.222   1.315   9.825 -0.1621 -0.0347  0.0964
  406loPI   C3A 6489   8.200   1.325   9.369  0.2088  0.0945 -0.2968
  406loPI   C4A 6490   8.318   1.381   8.879 -0.2658 -0.3530 -0.0150
  406loPI   C5A 6491   8.186   1.501   8.508 -0.0302  0.1520  0.0842
  406loPI   C6A 6492   8.080   1.126   8.161 -0.1903  0.2585  0.1726
  406loPI   C1B 6493   8.499   0.876  10.016 -0.2366 -0.1147 -0.0337
  406loPI   C2B 6494   8.529   0.952   9.547  0.1317 -0.0736  0.1512
  406loPI   C3B 6495   8.505   0.982   9.061  0.3040  0.0428 -0.0843
  406loPI   C4B 6496   8.701   0.978   8.603 -0.0431 -0.0520  0.3974
  407loPI    C1 6497  17.875  17.561  11.068 -0.3044 -0.0572 -0.0963
  407loPI    C2 6498  17.820  17.733  11.425  0.1239 -0.2168  0.0521
  407loPI    C3 6499  17.718  17.351  11.370 -0.1694 -0.1231 -0.0712
  407loPI   PO4 6500  17.754  17.698  10.890  0.0423  0.3756 -0.0573
  407loPI   GL1 6501  17.948  17.886  10.543 -0.1390  0.1204  0.0595
  407loPI   GL2 6502  17.720  17.759  10.375 -0.0167 -0.0275  0.4075
  407loPI   C1A 6503  18.033  17.972  10.042 -0.4697 -0.0896  0.2207
  407loPI   C2A 6504  18.209  17.875   9.734 -0.1989 -0.2622 -0.0412
  407loPI   C3A 6505  18.282  17.847   9.329  0.2686 -0.1742  0.3468
  407loPI   C4A 6506  18.097  17.885   8.916 -0.1071  0.3333 -0.0277
  407loPI   C5A 6507  17.981  18.042   8.563 -0.0473 -0.2363 -0.0862
  407loPI   C6A 6508  17.667  17.943   8.230 -0.1975 -0.0791  0.0094
  407loPI   C1B 6509  17.501  17.933   9.993 -0.3137 -0.0616 -0.0656
  407loPI   C2B 6510  17.341  17.879   9.634  0.0621  0.1604 -0.0884
  407loPI   C3B 6511  17.245  17.861   9.191  0.0900  0.1797  0.0945
  407loPI   C4B 6512  16.967  17.868   8.940  0.1197  0.0871  0.0910
  408loPI    C1 6513   5.485  16.597  10.569  0.0855  0.2705 -0.1431
  408loPI    C2 6514   5.808  16.431  10.402  0.2166  0.3162  0.0612
  408loPI    C3 6515   5.641  16.264  10.724 -0.0508  0.2131 -0.1274
  408loPI   PO4 6516   5.395  16.703  10.405 -0.0645  0.0525  0.0072
  408loPI   GL1 6517   5.684  16.864  10.159 -0.0619  0.2153  0.1718
  408loPI   GL2 6518   5.717  17.137   9.970 -0.0067 -0.0827 -0.1928
  408loPI   C1A 6519   5.685  16.723   9.716 -0.0112 -0.0427  0.0020
  408loPI   C2A 6520   5.604  16.728   9.274 -0.0300  0.0808 -0.1916
  408loPI   C3A 6521   5.566  16.625   8.827  0.0282  0.3230  0.0065
  408loPI   C4A 6522   5.433  16.484   8.435  0.0786  0.0492 -0.1265
  408loPI   C5A 6523   5.587  16.436   8.016  0.2565  0.1707  0.1525
  408loPI   C6A 6524   5.971  16.502   7.959  0.0593  0.0193 -0.2901
  408loPI   C1B 6525   5.796  17.201   9.546 -0.3213  0.1917  0.3463
  408loPI   C2B 6526   5.867  17.127   9.186 -0.1385  0.0421  0.0082
  408loPI   C3B 6527   5.910  17.154   8.785  0.0021  0.2403  0.0238
  408loPI   C4B 6528   5.770  17.025   8.403  0.2625 -0.0060  0.3720
  409loPI    C1 6529   2.613   8.795  11.388 -0.1786 -0.0498  0.0194
  409loPI    C2 6530   2.318   8.710  11.644 -0.1217 -0.2254  0.0280
  409loPI    C3 6531   2.692   8.750  11.778 -0.1179 -0.1501 -0.0042
  409loPI   PO4 6532   2.481   8.640  11.121  0.1326  0.1705 -0.0346
  409loPI   GL1 6533   2.507   8.477  10.627 -0.0130  0.0560  0.3668
  409loPI   GL2 6534   2.418   8.161  10.599  0.2902  0.2261 -0.1694
  409loPI   C1A 6535   2.568   8.535  10.226 -0.3534  0.0410  0.0479
  409loPI   C2A 6536   2.544   8.498   9.775  0.2834  0.0984 -0.1718
  409loPI   C3A 6537   2.564   8.451   9.319  0.0897 -0.0406 -0.1973
  409loPI   C4A 6538   2.564   8.498   8.864 -0.0014 -0.1255  0.1350
  409loPI   C5A 6539   2.455   8.282   8.493 -0.0904 -0.0895  0.4276
  409loPI   C6A 6540   2.366   8.124   8.133 -0.0776  0.1643  0.1266
  409loPI   C1B 6541   2.407   7.952  10.182 -0.2496 -0.1494  0.1622
  409loPI   C2B 6542   2.284   8.012   9.726  0.0632  0.1809 -0.0990
  409loPI   C3B 6543   2.324   7.967   9.317 -0.0778  0.3882 -0.4682
  409loPI   C4B 6544   2.444   7.993   8.927 -0.1982  0.1031 -0.0711
  410loPI    C1 6545  12.465  16.000  10.840  0.1016  0.1356 -0.0332
  410loPI    C2 6546  12.319  16.297  11.063 -0.1297 -0.0284  0.0371
  410loPI    C3 6547  12.413  15.947  11.233  0.2447  0.0377 -0.0265
  410loPI   PO4 6548  12.267  15.966  10.681 -0.0996  0.2333 -0.0399
  410loPI   GL1 6549  12.245  16.208  10.424 -0.1419 -0.1815  0.1350
  410loPI   GL2 6550  12.136  16.200  10.187  0.2372  0.0162 -0.1078
  410loPI   C1A 6551  12.352  16.630  10.158  0.1073 -0.0867  0.2714
  410loPI   C2A 6552  12.418  16.718   9.670 -0.1281 -0.2981 -0.1210
  410loPI   C3A 6553  12.391  16.717   9.190 -0.1781 -0.1457 -0.0444
  410loPI   C4A 6554  12.341  16.768   8.723 -0.4473  0.2010 -0.4002
  410loPI   C5A 6555  12.574  16.548   8.419  0.0489  0.0630  0.1162
  410loPI   C6A 6556  12.831  16.287   8.264  0.0095  0.3363  0.2792
  410loPI   C1B 6557  11.987  16.480   9.855  0.1267  0.0810  0.2100
  410loPI   C2B 6558  11.977  16.548   9.385 -0.1350  0.0971  0.4371
  410loPI   C3B 6559  11.975  16.466   8.919 -0.2350 -0.3278  0.0231
  410loPI   C4B 6560  11.918  16.629   8.560 -0.1426 -0.3504 -0.1320
  411loPI    C1 6561   8.277  14.361  10.602 -0.0016 -0.0794  0.1226
  411loPI    C2 6562   8.362  14.722  10.752  0.1665 -0.0697  0.0069
  411loPI    C3 6563   8.312  14.410  10.997 -0.0205  0.0393  0.1101
  411loPI   PO4 6564   8.449  14.344  10.399 -0.1871  0.1571  0.0437
  411loPI   GL1 6565   8.488  14.442  10.061 -0.0912  0.1241 -0.0620
  411loPI   GL2 6566   8.693  14.516   9.831 -0.1721 -0.1828 -0.2202
  411loPI   C1A 6567   8.377  14.287   9.555  0.1234  0.0633 -0.1730
  411loPI   C2A 6568   8.188  14.061   9.179  0.0626 -0.0550 -0.1495
  411loPI   C3A 6569   8.130  14.129   8.615 -0.1790 -0.0086 -0.1687
  411loPI   C4A 6570   7.956  14.180   8.205  0.0427  0.0119  0.0493
  411loPI   C5A 6571   7.720  14.585   7.977 -0.2418 -0.1061 -0.1116
  411loPI   C6A 6572   7.924  14.999   7.854  0.2104  0.1393 -0.1719
  411loPI   C1B 6573   8.842  14.615   9.385  0.0752  0.1072  0.0631
  411loPI   C2B 6574   8.977  14.716   9.038 -0.1126 -0.1354  0.2253
  411loPI   C3B 6575   8.936  14.954   8.717  0.0021 -0.3134 -0.0926
  411loPI   C4B 6576   8.941  15.044   8.218  0.1987 -0.1277  0.2799
  412loPI    C1 6577  17.482   4.134  11.434 -0.0697 -0.1122  0.0866
  412loPI    C2 6578  17.509   4.484  11.625  0.0890  0.0332 -0.1977
  412loPI    C3 6579  17.733   4.174  11.743 -0.1514 -0.0160  0.1407
  412loPI   PO4 6580  17.304   4.153  11.243 -0.1369  0.1534 -0.0830
  412loPI   GL1 6581  17.417   4.313  10.830 -0.0565  0.1501  0.0345
  412loPI   GL2 6582  17.605   4.374  10.709 -0.0628  0.0913 -0.0694
  412loPI   C1A 6583  17.447   3.983  10.458  0.2350 -0.0982  0.0588
  412loPI   C2A 6584  17.383   4.028  10.002  0.1174 -0.0030  0.2521
  412loPI   C3A 6585  17.476   4.016   9.523  0.1986  0.1172  0.1049
  412loPI   C4A 6586  17.436   4.080   9.017 -0.1521  0.1184  0.0285
  412loPI   C5A 6587  17.201   3.947   8.610 -0.2257 -0.4778  0.2572
  412loPI   C6A 6588  16.978   3.602   8.378 -0.2998 -0.0820  0.0362
  412loPI   C1B 6589  17.689   4.471  10.290  0.2440  0.0624  0.1075
  412loPI   C2B 6590  17.649   4.489   9.814 -0.2397 -0.2789  0.3455
  412loPI   C3B 6591  17.704   4.468   9.488  0.1503 -0.4082  0.1114
  412loPI   C4B 6592  17.608   4.526   9.072  0.0476  0.1177  0.1474
  413loPI    C1 6593   6.233  12.698  10.654 -0.0117  0.1788 -0.0275
  413loPI    C2 6594   6.018  12.875  10.941 -0.1991  0.0067 -0.0590
  413loPI    C3 6595   6.365  12.698  11.031 -0.0372  0.3366 -0.0178
  413loPI   PO4 6596   6.081  12.541  10.540  0.1117 -0.1045 -0.1545
  413loPI   GL1 6597   5.945  12.470  10.143 -0.4782 -0.1886 -0.1260
  413loPI   GL2 6598   5.815  12.768  10.068 -0.0386  0.2123  0.0257
  413loPI   C1A 6599   5.857  12.491   9.675 -0.0593  0.0610  0.2232
  413loPI   C2A 6600   5.914  12.439   9.204  0.1081 -0.1820 -0.0622
  413loPI   C3A 6601   5.818  12.559   8.771 -0.0465 -0.1424 -0.2727
  413loPI   C4A 6602   5.826  12.639   8.369 -0.2822 -0.0055  0.1699
  413loPI   C5A 6603   6.148  12.471   8.181  0.0572  0.3242  0.0024
  413loPI   C6A 6604   6.287  12.231   7.795 -0.2256  0.2082 -0.1547
  413loPI   C1B 6605   5.605  12.937   9.720  0.0013 -0.1638  0.0514
  413loPI   C2B 6606   5.571  12.767   9.245 -0.0040 -0.1201  0.1817
  413loPI   C3B 6607   5.494  12.960   8.900 -0.1811  0.1427 -0.1336
  413loPI   C4B 6608   5.607  13.026   8.416  0.0704  0.0814  0.0581
  414loPI    C1 6609   8.921   4.368  11.203  0.1369  0.1338 -0.1103
  414loPI    C2 6610   8.943   4.064  11.462 -0.0045 -0.0620 -0.3238
  414loPI    C3 6611   9.227   4.345  11.459  0.0798 -0.1414 -0.0634
  414loPI   PO4 6612   8.835   4.250  10.955  0.2270  0.1799 -0.3880
  414loPI   GL1 6613   9.022   4.258  10.558  0.1476  0.1492 -0.0059
  414loPI   GL2 6614   9.116   3.897  10.608 -0.1792  0.1731  0.3656
  414loPI   C1A 6615   8.876   4.077  10.221  0.1044 -0.0389  0.3759
  414loPI   C2A 6616   8.983   4.104   9.757  0.0680 -0.2194  0.0182
  414loPI   C3A 6617   9.012   4.110   9.285  0.0855  0.0643  0.3597
  414loPI   C4A 6618   8.979   4.180   8.863 -0.0108 -0.0069 -0.0217
  414loPI   C5A 6619   9.106   3.998   8.452 -0.2276 -0.0936 -0.0362
  414loPI   C6A 6620   9.405   3.911   8.278 -0.1535 -0.1300 -0.2874
  414loPI   C1B 6621   9.309   3.630  10.267  0.0082 -0.4894  0.2317
  414loPI   C2B 6622   9.218   3.676   9.861  0.0306 -0.1673 -0.0116
  414loPI   C3B 6623   9.219   3.657   9.345  0.0399  0.3627 -0.0220
  414loPI   C4B 6624   9.267   3.800   8.967 -0.2118  0.1228  0.0051
  415loPI    C1 6625   7.888   3.391  11.371 -0.0947 -0.1021  0.0153
  415loPI    C2 6626   7.552   3.274  11.553 -0.1618 -0.2156 -0.1779
  415loPI    C3 6627   7.905   3.132  11.676 -0.1932 -0.1822 -0.0466
  415loPI   PO4 6628   7.812   3.399  11.121 -0.1600 -0.1357 -0.0206
  415loPI   GL1 6629   8.069   3.116  10.807 -0.0314 -0.0983  0.0273
  415loPI   GL2 6630   8.357   3.219  10.648 -0.1945  0.2094  0.0523
  415loPI   C1A 6631   7.979   3.168  10.281 -0.0450  0.2270 -0.0580
  415loPI   C2A 6632   8.028   3.205   9.853 -0.3140 -0.1081  0.2044
  415loPI   C3A 6633   8.049   3.163   9.455 -0.0388  0.2835  0.4002
  415loPI   C4A 6634   8.053   3.130   8.998 -0.1566 -0.0065  0.0789
  415loPI   C5A 6635   7.732   3.186   8.621  0.2966 -0.0220  0.5445
  415loPI   C6A 6636   7.563   2.961   8.207  0.1372 -0.0130  0.0330
  415loPI   C1B 6637   8.439   3.166  10.143  0.2623  0.4124 -0.1082
  415loPI   C2B 6638   8.479   3.307   9.744 -0.3466  0.2288  0.2425
  415loPI   C3B 6639   8.521   3.194   9.333  0.1824 -0.2084 -0.0742
  415loPI   C4B 6640   8.519   3.207   8.905 -0.2146  0.2952  0.1227
  416loPI    C1 6641  11.337  10.799  11.164 -0.1332 -0.2335  0.1572
  416loPI    C2 6642  11.413  11.179  11.068  0.1050 -0.2750  0.1743
  416loPI    C3 6643  11.114  11.092  11.319  0.0651 -0.0980  0.1896
  416loPI   PO4 6644  11.307  10.674  10.953 -0.1378 -0.2653  0.0550
  416loPI   GL1 6645  11.327  10.462  10.551 -0.2094  0.1822  0.0437
  416loPI   GL2 6646  11.101  10.661  10.492 -0.0479 -0.0952  0.5189
  416loPI   C1A 6647  11.285  10.269  10.139 -0.1200 -0.2451 -0.0226
  416loPI   C2A 6648  11.264  10.254   9.817 -0.4249  0.3722  0.2783
  416loPI   C3A 6649  11.385  10.291   9.371  0.1302  0.0962  0.0919
  416loPI   C4A 6650  11.370  10.260   8.905 -0.0668  0.0651  0.0207
  416loPI   C5A 6651  11.493  10.399   8.516 -0.2019 -0.0457  0.1760
  416loPI   C6A 6652  11.707  10.683   8.363 -0.2655  0.0666 -0.1029
  416loPI   C1B 6653  10.979  10.668  10.084  0.1559 -0.0069  0.1609
  416loPI   C2B 6654  11.026  10.692   9.695 -0.0519  0.3957  0.1194
  416loPI   C3B 6655  11.035  10.676   9.257  0.2030 -0.1696 -0.0670
  416loPI   C4B 6656  11.128  10.696   8.764 -0.2130 -0.1839  0.0336
  417loPI    C1 6657  12.778   4.418  10.800  0.0390  0.0193  0.1899
  417loPI    C2 6658  12.741   4.601  11.153  0.0495  0.0697  0.1650
  417loPI    C3 6659  12.441   4.614  10.889  0.1012  0.1640  0.1105
  417loPI   PO4 6660  13.011   4.471  10.688  0.2438  0.0804  0.3947
  417loPI   GL1 6661  13.373   4.379  10.374 -0.1794  0.2651  0.2089
  417loPI   GL2 6662  13.191   4.670  10.263  0.3194  0.2218  0.2311
  417loPI   C1A 6663  13.507   4.236  10.045  0.1948 -0.3112  0.1607
  417loPI   C2A 6664  13.408   4.225   9.627  0.1757 -0.0810  0.0589
  417loPI   C3A 6665  13.465   4.231   9.196 -0.0395 -0.0699  0.1062
  417loPI   C4A 6666  13.534   4.189   8.774  0.1360  0.1694  0.1984
  417loPI   C5A 6667  13.522   4.245   8.381  0.1349  0.0591 -0.1778
  417loPI   C6A 6668  13.406   3.989   8.083 -0.0592 -0.2016  0.2287
  417loPI   C1B 6669  13.106   4.584   9.818  0.0597 -0.3055 -0.1117
  417loPI   C2B 6670  13.083   4.562   9.370  0.0123  0.2147 -0.0506
  417loPI   C3B 6671  13.214   4.644   8.961  0.1995 -0.0969 -0.0526
  417loPI   C4B 6672  13.266   4.626   8.602  0.2858  0.2200 -0.2584
  418loPI    C1 6673   3.321   7.264  11.454  0.0509  0.0632 -0.2556
  418loPI    C2 6674   3.105   7.192  11.783  0.1536 -0.1639 -0.2361
  418loPI    C3 6675   3.492   7.288  11.815  0.1255 -0.0332 -0.2841
  418loPI   PO4 6676   3.272   7.093  11.288  0.1353 -0.0824  0.2200
  418loPI   GL1 6677   3.330   6.998  10.864  0.2276  0.1012  0.1239
  418loPI   GL2 6678   3.455   7.159  10.624 -0.0553 -0.2246  0.1098
  418loPI   C1A 6679   3.189   6.740  10.384  0.1580 -0.0652  0.1054
  418loPI   C2A 6680   3.279   6.704   9.971 -0.2571 -0.0504 -0.0253
  418loPI   C3A 6681   3.274   6.751   9.468  0.2774 -0.0282  0.1084
  418loPI   C4A 6682   3.471   6.660   8.998  0.0686 -0.0674 -0.1843
  418loPI   C5A 6683   3.594   6.575   8.602  0.0793 -0.4726 -0.1445
  418loPI   C6A 6684   3.400   6.365   8.301 -0.0702  0.1861 -0.0526
  418loPI   C1B 6685   3.519   7.095  10.239 -0.1250  0.1830  0.0292
  418loPI   C2B 6686   3.522   7.223   9.851  0.1271 -0.3009 -0.1091
  418loPI   C3B 6687   3.508   7.163   9.416  0.0107  0.1140  0.1391
  418loPI   C4B 6688   3.551   7.192   9.001 -0.1080 -0.0776 -0.0075
  419loPI    C1 6689  17.392   5.749  11.291 -0.1837  0.3276 -0.0261
  419loPI    C2 6690  17.228   5.545  10.989 -0.0257  0.0796  0.0530
  419loPI    C3 6691  17.109   5.476  11.365  0.3589 -0.2152  0.1269
  419loPI   PO4 6692  17.468   6.006  11.210  0.2517  0.2913  0.3142
  419loPI   GL1 6693  17.704   6.165  10.835  0.1465  0.1637 -0.0643
  419loPI   GL2 6694  17.650   5.816  10.798  0.2044 -0.2667  0.4986
  419loPI   C1A 6695  17.909   6.412  10.393  0.0866 -0.1538  0.0062
  419loPI   C2A 6696  17.951   6.420  10.004  0.3430  0.2046 -0.0238
  419loPI   C3A 6697  18.095   6.399   9.583 -0.0319 -0.0689 -0.0664
  419loPI   C4A 6698  18.131   6.281   9.156 -0.3131 -0.1920  0.0511
  419loPI   C5A 6699  18.214   6.321   8.757 -0.2374 -0.1029  0.1139
  419loPI   C6A 6700  18.359   6.021   8.403  0.1189 -0.1965 -0.2950
  419loPI   C1B 6701  17.775   5.956  10.321 -0.1407 -0.0714  0.0125
  419loPI   C2B 6702  17.831   5.957   9.914 -0.2827 -0.3189  0.0503
  419loPI   C3B 6703  17.923   5.843   9.545 -0.2661  0.1667  0.0885
  419loPI   C4B 6704  18.032   5.842   9.029 -0.0089  0.0145 -0.2621
  420loPI    C1 6705  11.767   2.959  11.278 -0.2201  0.0147  0.0167
  420loPI    C2 6706  11.527   2.663  11.399 -0.3215  0.2103  0.3053
  420loPI    C3 6707  11.793   2.821  11.652  0.1196 -0.0029 -0.0094
  420loPI   PO4 6708  11.825   2.854  11.040  0.2969  0.0689  0.0877
  420loPI   GL1 6709  11.942   2.693  10.710 -0.0962  0.0318  0.0304
  420loPI   GL2 6710  11.645   2.673  10.555  0.1257 -0.2097 -0.0220
  420loPI   C1A 6711  12.131   2.773  10.319  0.5042 -0.3410  0.1146
  420loPI   C2A 6712  12.193   2.689   9.917 -0.1673 -0.2140  0.0392
  420loPI   C3A 6713  12.187   2.759   9.541  0.1084 -0.0960 -0.2323
  420loPI   C4A 6714  12.180   2.795   9.105 -0.1465  0.0711  0.2045
  420loPI   C5A 6715  12.298   2.624   8.718  0.2599  0.2738  0.3199
  420loPI   C6A 6716  12.445   2.567   8.243 -0.4052  0.1198 -0.0197
  420loPI   C1B 6717  11.719   2.720  10.053 -0.0109 -0.1820 -0.1771
  420loPI   C2B 6718  11.626   2.713   9.654 -0.1531  0.0257 -0.1378
  420loPI   C3B 6719  11.684   2.705   9.161  0.0300 -0.2126  0.1609
  420loPI   C4B 6720  11.758   2.812   8.796 -0.2210  0.1398  0.1554
  421loPI    C1 6721   9.307  14.971  10.510 -0.3653 -0.1205 -0.0426
  421loPI    C2 6722   9.553  15.197  10.729 -0.2635  0.0965 -0.3722
  421loPI    C3 6723   9.341  14.906  10.903 -0.0290  0.1255 -0.0262
  421loPI   PO4 6724   9.183  15.152  10.335  0.0204 -0.0270 -0.1088
  421loPI   GL1 6725   9.289  15.055   9.924  0.0334  0.4193  0.0586
  421loPI   GL2 6726   9.195  14.678  10.057  0.3036 -0.0148  0.1069
  421loPI   C1A 6727   9.220  14.922   9.554  0.0344 -0.0532 -0.1205
  421loPI   C2A 6728   9.348  15.072   9.071 -0.1341 -0.3656  0.1107
  421loPI   C3A 6729   9.232  15.340   8.775 -0.0534 -0.0076 -0.1658
  421loPI   C4A 6730   9.325  15.322   8.368  0.0674  0.0732  0.0871
  421loPI   C5A 6731   9.425  15.052   7.942 -0.0390 -0.0504  0.1114
  421loPI   C6A 6732   9.551  14.700   7.969  0.2693  0.1061  0.0308
  421loPI   C1B 6733   9.244  14.450   9.674 -0.0803  0.2914  0.4509
  421loPI   C2B 6734   9.324  14.464   9.347  0.0426  0.1845 -0.0101
  421loPI   C3B 6735   9.626  14.268   8.950 -0.0263  0.2422  0.2932
  421loPI   C4B 6736   9.755  14.160   8.479 -0.0489  0.1084 -0.0692
  422loPI    C1 6737  15.272  16.129  10.944 -0.1001 -0.1523  0.0668
  422loPI    C2 6738  15.479  15.818  11.086  0.1333  0.0857  0.2567
  422loPI    C3 6739  15.311  16.079  11.339  0.0433  0.1822  0.0987
  422loPI   PO4 6740  15.296  16.105  10.746 -0.1007 -0.2451  0.0948
  422loPI   GL1 6741  15.066  16.061  10.274 -0.1149  0.1372  0.0883
  422loPI   GL2 6742  15.282  16.321  10.189  0.0899  0.1265 -0.2434
  422loPI   C1A 6743  15.077  15.943   9.862 -0.1860  0.0371  0.3593
  422loPI   C2A 6744  15.054  15.978   9.369 -0.1351  0.0572 -0.1759
  422loPI   C3A 6745  15.084  15.917   8.955 -0.0987 -0.0705 -0.0638
  422loPI   C4A 6746  14.985  15.930   8.548  0.1562 -0.1547 -0.1416
  422loPI   C5A 6747  14.720  15.951   8.243 -0.0823  0.3891 -0.1374
  422loPI   C6A 6748  14.382  15.742   8.179 -0.2489  0.3256  0.1328
  422loPI   C1B 6749  15.281  16.390   9.724 -0.0760  0.3187  0.2290
  422loPI   C2B 6750  15.266  16.432   9.344  0.1242  0.3222  0.4434
  422loPI   C3B 6751  15.248  16.414   8.943  0.3634  0.1626  0.0215
  422loPI   C4B 6752  15.174  16.377   8.441  0.2558 -0.3127  0.0562
  423loPI    C1 6753  15.340   6.623  11.135  0.1341 -0.0685 -0.0968
  423loPI    C2 6754  15.127   6.312  11.270 -0.2571  0.0891 -0.3317
  423loPI    C3 6755  15.338   6.536  11.525  0.0121 -0.3483 -0.1569
  423loPI   PO4 6756  15.459   6.536  10.973 -0.0649 -0.0640 -0.0166
  423loPI   GL1 6757  15.399   6.522  10.473  0.0209 -0.2315  0.2429
  423loPI   GL2 6758  15.548   6.189  10.427 -0.2931 -0.0432  0.1234
  423loPI   C1A 6759  15.746   6.610  10.077  0.0764 -0.2987  0.4029
  423loPI   C2A 6760  15.667   6.547   9.675  0.0359  0.4081 -0.0612
  423loPI   C3A 6761  15.596   6.565   9.215  0.1640 -0.0034  0.0625
  423loPI   C4A 6762  15.561   6.593   8.707 -0.1606 -0.2324 -0.2000
  423loPI   C5A 6763  15.782   6.414   8.471  0.1138  0.1395 -0.1066
  423loPI   C6A 6764  16.067   6.023   8.507 -0.2235 -0.0088  0.2856
  423loPI   C1B 6765  15.519   6.084   9.981  0.1149  0.1134  0.1662
  423loPI   C2B 6766  15.545   6.123   9.423  0.1248 -0.1809 -0.0602
  423loPI   C3B 6767  15.444   6.121   8.956 -0.1865 -0.4757  0.1121
  423loPI   C4B 6768  15.321   6.165   8.559 -0.3030  0.2154 -0.1818
  424loPI    C1 6769  17.761   3.331  11.195 -0.0391  0.1196  0.0007
  424loPI    C2 6770  17.556   3.160  11.493  0.1436  0.1655  0.1548
  424loPI    C3 6771  17.947   3.235  11.536  0.1690  0.1847 -0.0926
  424loPI   PO4 6772  17.428   3.418  11.035 -0.0347  0.1098  0.0301
  424loPI   GL1 6773  17.260   3.309  10.702 -0.1026  0.1059 -0.1952
  424loPI   GL2 6774  17.412   3.030  10.440  0.3901 -0.1159  0.0818
  424loPI   C1A 6775  17.096   3.539  10.392  0.0627 -0.0914  0.0693
  424loPI   C2A 6776  17.111   3.546  10.009 -0.1813  0.1581  0.1606
  424loPI   C3A 6777  17.219   3.617   9.632 -0.2031 -0.1840 -0.1620
  424loPI   C4A 6778  17.232   3.650   9.190  0.0824  0.2016 -0.0920
  424loPI   C5A 6779  17.469   3.593   8.800  0.4978 -0.1402 -0.0617
  424loPI   C6A 6780  17.527   3.474   8.417  0.0097 -0.1132 -0.2984
  424loPI   C1B 6781  17.411   3.159  10.056 -0.0946 -0.1620 -0.5090
  424loPI   C2B 6782  17.535   3.161   9.655  0.1592 -0.2160 -0.0238
  424loPI   C3B 6783  17.608   3.214   9.236  0.0077  0.2288 -0.0994
  424loPI   C4B 6784  17.638   3.115   8.778 -0.0632 -0.0793 -0.2768
  425loPI    C1 6785   2.512  13.913  10.713 -0.1399 -0.0338 -0.1598
  425loPI    C2 6786   2.450  14.285  10.581  0.4803 -0.0036 -0.3980
  425loPI    C3 6787   2.695  14.221  10.890 -0.0362 -0.1794 -0.0103
  425loPI   PO4 6788   2.338  13.775  10.615  0.0746  0.2055 -0.0964
  425loPI   GL1 6789   2.174  13.814  10.118 -0.1762 -0.0279  0.0479
  425loPI   GL2 6790   2.053  14.061  10.069 -0.1171  0.0220  0.2345
  425loPI   C1A 6791   2.370  13.549   9.764  0.0209 -0.0166 -0.1327
  425loPI   C2A 6792   2.362  13.530   9.280 -0.0685  0.0274 -0.1343
  425loPI   C3A 6793   2.305  13.337   8.861  0.0941 -0.2824 -0.3660
  425loPI   C4A 6794   2.356  13.179   8.518 -0.2167  0.0459 -0.1100
  425loPI   C5A 6795   2.189  13.116   8.091 -0.1258 -0.1441 -0.3094
  425loPI   C6A 6796   2.231  12.913   7.808 -0.2019 -0.0450  0.3957
  425loPI   C1B 6797   1.989  13.910   9.635  0.1132  0.0027 -0.1464
  425loPI   C2B 6798   1.996  13.862   9.147 -0.2559 -0.1446  0.2190
  425loPI   C3B 6799   1.980  13.687   8.690  0.1190 -0.0024  0.0097
  425loPI   C4B 6800   1.901  13.425   8.351 -0.2642  0.0470 -0.1415
  426loPI    C1 6801   7.164  16.300  10.681  0.0006  0.0909 -0.0642
  426loPI    C2 6802   7.294  16.198  11.046  0.0504 -0.1576 -0.1492
  426loPI    C3 6803   6.909  16.291  10.989  0.1019  0.1786  0.0234
  426loPI   PO4 6804   7.337  16.260  10.541  0.1309  0.0409 -0.3120
  426loPI   GL1 6805   7.596  16.253  10.293  0.2445 -0.0999  0.0358
  426loPI   GL2 6806   7.438  16.112   9.982 -0.0309 -0.0743 -0.0297
  426loPI   C1A 6807   7.631  16.656  10.023  0.0116 -0.0631  0.1438
  426loPI   C2A 6808   7.626  16.890   9.596  0.1795 -0.0574 -0.2895
  426loPI   C3A 6809   7.787  16.956   9.165  0.1896 -0.0984 -0.0808
  426loPI   C4A 6810   7.730  16.952   8.740  0.1112 -0.0936 -0.0718
  426loPI   C5A 6811   7.789  16.998   8.253  0.2274 -0.1989 -0.0811
  426loPI   C6A 6812   7.877  17.452   8.023  0.0722  0.2180  0.2567
  426loPI   C1B 6813   7.525  16.110   9.498  0.2994 -0.4313 -0.0136
  426loPI   C2B 6814   7.548  16.118   9.053 -0.0911 -0.0854  0.1355
  426loPI   C3B 6815   7.647  16.148   8.635  0.2186 -0.2703  0.1047
  426loPI   C4B 6816   7.726  16.110   8.189  0.1915  0.0522  0.0195
  427loPI    C1 6817  14.587   1.090  11.370  0.0040  0.0608 -0.0952
  427loPI    C2 6818  14.965   1.212  11.322 -0.0200  0.0928 -0.2082
  427loPI    C3 6819  14.844   1.069  11.676  0.1397 -0.0656 -0.2163
  427loPI   PO4 6820  14.506   1.258  11.141  0.0415  0.0928  0.0838
  427loPI   GL1 6821  14.357   1.236  10.670  0.0273  0.0437 -0.0929
  427loPI   GL2 6822  14.082   1.219  10.480  0.1040 -0.3324  0.1086
  427loPI   C1A 6823  14.599   1.125  10.331  0.1415  0.0265  0.3694
  427loPI   C2A 6824  14.576   1.145   9.830  0.2254  0.0165  0.1390
  427loPI   C3A 6825  14.596   1.234   9.383  0.0826 -0.2855  0.1971
  427loPI   C4A 6826  14.571   1.143   8.999  0.2485  0.1513 -0.1142
  427loPI   C5A 6827  14.546   1.207   8.579 -0.0068 -0.2613  0.1962
  427loPI   C6A 6828  14.680   1.585   8.399 -0.5284  0.0278 -0.1509
  427loPI   C1B 6829  14.121   1.057  10.045  0.1129  0.0231 -0.2204
  427loPI   C2B 6830  14.079   1.127   9.678  0.1971  0.0746  0.3954
  427loPI   C3B 6831  13.897   1.156   9.270 -0.1927 -0.0980  0.1938
  427loPI   C4B 6832  14.116   1.162   8.818  0.2509  0.0679 -0.3966
  428loPI    C1 6833  15.235  10.001  10.917 -0.1163 -0.0569 -0.0103
  428loPI    C2 6834  15.258   9.710  11.189  0.0144 -0.1223 -0.0900
  428loPI    C3 6835  14.943   9.956  11.186 -0.1815 -0.3689 -0.1293
  428loPI   PO4 6836  15.279   9.901  10.720  0.1048 -0.0189  0.2131
  428loPI   GL1 6837  15.180   9.638  10.421  0.0078 -0.2433 -0.0978
  428loPI   GL2 6838  14.924   9.872  10.310  0.0242  0.1220 -0.3341
  428loPI   C1A 6839  15.204   9.434  10.100 -0.1518 -0.0893 -0.2477
  428loPI   C2A 6840  15.415   9.281   9.704  0.1918 -0.1231  0.0905
  428loPI   C3A 6841  15.543   9.196   9.314  0.2346 -0.1691 -0.2118
  428loPI   C4A 6842  15.756   8.861   9.115 -0.2049 -0.1620  0.1590
  428loPI   C5A 6843  15.894   8.649   8.799  0.0798 -0.3188 -0.3613
  428loPI   C6A 6844  15.769   8.683   8.308  0.2047 -0.2850  0.0403
  428loPI   C1B 6845  14.925   9.811   9.935  0.0564 -0.2531 -0.1669
  428loPI   C2B 6846  15.067   9.644   9.594  0.1294  0.1995 -0.0659
  428loPI   C3B 6847  15.092   9.721   9.177  0.2788  0.0971  0.0048
  428loPI   C4B 6848  15.095   9.738   8.708  0.2233 -0.2897 -0.1839
  429loPI    C1 6849   1.379   7.331  10.888 -0.1507 -0.0686  0.0502
  429loPI    C2 6850   1.311   7.339  11.282 -0.2706 -0.0858  0.0301
  429loPI    C3 6851   1.199   7.021  11.065  0.0157 -0.1834  0.0207
  429loPI   PO4 6852   1.319   7.631  10.824  0.0273 -0.0494 -0.0738
  429loPI   GL1 6853   1.244   7.993  10.541 -0.3872 -0.0536  0.1923
  429loPI   GL2 6854   0.994   8.140  10.395 -0.1651 -0.2193  0.2466
  429loPI   C1A 6855   1.339   7.832  10.219  0.0584  0.0630 -0.2107
  429loPI   C2A 6856   1.259   7.818   9.788  0.0764  0.0780  0.0969
  429loPI   C3A 6857   1.339   7.782   9.346  0.1049  0.1036  0.1671
  429loPI   C4A 6858   1.398   7.749   8.874  0.0235  0.4565  0.2789
  429loPI   C5A 6859   1.376   7.819   8.425 -0.3502 -0.1225  0.3056
  429loPI   C6A 6860   1.169   7.969   8.033  0.3220  0.0857  0.1671
  429loPI   C1B 6861   1.021   8.229  10.029  0.1618 -0.3567 -0.2693
  429loPI   C2B 6862   1.031   8.240   9.544  0.1276  0.0761  0.2442
  429loPI   C3B 6863   0.995   8.260   9.124  0.0525  0.0246 -0.4040
  429loPI   C4B 6864   1.103   8.147   8.776 -0.5012 -0.1753  0.2157
  430loPI    C1 6865  13.735  10.337  11.028 -0.2160 -0.0608  0.0742
  430loPI    C2 6866  13.742  10.676  11.241  0.3443 -0.0061 -0.0169
  430loPI    C3 6867  13.605  10.339  11.407 -0.1407  0.2400  0.1013
  430loPI   PO4 6868  13.972  10.337  10.898  0.1352  0.0902  0.0047
  430loPI   GL1 6869  14.006  10.545  10.458  0.0855 -0.0213  0.1112
  430loPI   GL2 6870  14.290  10.732  10.388  0.1572  0.1026  0.1343
  430loPI   C1A 6871  13.849  10.557  10.038 -0.1526 -0.0599 -0.1456
  430loPI   C2A 6872  13.933  10.521   9.690 -0.0862  0.2943  0.0029
  430loPI   C3A 6873  13.994  10.540   9.286  0.2666  0.1319  0.0011
  430loPI   C4A 6874  13.920  10.459   8.876 -0.0712  0.2020 -0.0368
  430loPI   C5A 6875  13.790  10.635   8.501  0.0621  0.2511 -0.1754
  430loPI   C6A 6876  13.580  10.844   8.151 -0.1589 -0.1247  0.0126
  430loPI   C1B 6877  14.328  10.579  10.033 -0.0111 -0.1161  0.0185
  430loPI   C2B 6878  14.394  10.572   9.647 -0.0684 -0.0212 -0.3129
  430loPI   C3B 6879  14.542  10.593   9.230 -0.0301  0.1054 -0.0848
  430loPI   C4B 6880  14.394  10.493   8.890 -0.0531 -0.0286  0.2306
  431loPI    C1 6881   3.517  13.247  10.648 -0.0082  0.1416  0.0660
  431loPI    C2 6882   3.804  13.524  10.667  0.2063 -0.0767  0.0559
  431loPI    C3 6883   3.639  13.384  11.003  0.0536  0.1062  0.0586
  431loPI   PO4 6884   3.531  13.114  10.412 -0.0884  0.0319  0.0725
  431loPI   GL1 6885   3.307  13.244  10.013 -0.0347 -0.0174 -0.2887
  431loPI   GL2 6886   3.348  13.446   9.789  0.2509 -0.3124 -0.0503
  431loPI   C1A 6887   3.129  13.014   9.697 -0.0857  0.1148  0.0688
  431loPI   C2A 6888   3.085  13.007   9.293  0.0773 -0.0892  0.0935
  431loPI   C3A 6889   3.100  12.888   8.888  0.4292  0.0603 -0.2522
  431loPI   C4A 6890   3.229  13.000   8.528 -0.2472  0.0763  0.0738
  431loPI   C5A 6891   3.428  12.945   8.171 -0.1279 -0.2940 -0.0116
  431loPI   C6A 6892   3.747  13.053   7.991 -0.2236 -0.1590 -0.3025
  431loPI   C1B 6893   3.298  13.449   9.351 -0.1520  0.1669 -0.1056
  431loPI   C2B 6894   3.274  13.337   8.889 -0.1951  0.0959  0.0915
  431loPI   C3B 6895   3.253  13.530   8.562 -0.2293  0.2251 -0.1315
  431loPI   C4B 6896   3.170  13.342   8.162  0.2493  0.1439 -0.3044
  432loPI    C1 6897   0.537   1.232  10.905  0.2235 -0.1486 -0.2351
  432loPI    C2 6898   0.926   1.154  10.856  0.2567 -0.1938  0.0784
  432loPI    C3 6899   0.719   0.965  11.140  0.0907  0.0950  0.1540
  432loPI   PO4 6900   0.429   1.155  10.634  0.1167 -0.0352 -0.0465
  432loPI   GL1 6901   0.616   0.954  10.193  0.1580 -0.1083 -0.0882
  432loPI   GL2 6902   0.808   1.122  10.374  0.0882  0.0383  0.1450
  432loPI   C1A 6903   0.631   1.034   9.724 -0.2100  0.0773 -0.1926
  432loPI   C2A 6904   0.637   0.887   9.227 -0.0590  0.0784 -0.1947
  432loPI   C3A 6905   0.602   1.094   8.848  0.0818  0.1416 -0.3161
  432loPI   C4A 6906   0.709   1.055   8.346 -0.1211 -0.2023  0.1950
  432loPI   C5A 6907   1.017   1.185   8.104  0.1975 -0.2352  0.0422
  432loPI   C6A 6908   1.480   1.325   8.220  0.1423 -0.0853 -0.1252
  432loPI   C1B 6909   1.047   1.088   9.963 -0.0903 -0.0073  0.1067
  432loPI   C2B 6910   1.165   1.116   9.584  0.0184  0.0054 -0.1084
  432loPI   C3B 6911   1.199   1.136   9.165  0.0795 -0.0620  0.0721
  432loPI   C4B 6912   1.155   1.005   8.732  0.0964 -0.2562  0.2128
  433loPI    C1 6913   4.037   2.714  11.394 -0.1418 -0.1968 -0.1170
  433loPI    C2 6914   3.710   2.667  11.619 -0.0726 -0.1643 -0.0088
  433loPI    C3 6915   3.929   2.349  11.514 -0.1737 -0.1933 -0.1348
  433loPI   PO4 6916   3.849   2.867  11.135  0.1983  0.0440  0.0992
  433loPI   GL1 6917   3.958   2.937  10.724 -0.0441 -0.0980 -0.0089
  433loPI   GL2 6918   3.839   2.739  10.506 -0.0255  0.1315 -0.1101
  433loPI   C1A 6919   4.063   3.151  10.433  0.0033 -0.3141 -0.2733
  433loPI   C2A 6920   4.119   3.140   9.958  0.0842  0.3898 -0.0152
  433loPI   C3A 6921   4.094   3.209   9.569  0.0164  0.3345 -0.0659
  433loPI   C4A 6922   4.193   3.151   9.145  0.1226 -0.0810  0.0641
  433loPI   C5A 6923   4.157   3.212   8.718  0.3420  0.0024 -0.1242
  433loPI   C6A 6924   4.182   3.188   8.293  0.2303  0.0445 -0.0091
  433loPI   C1B 6925   3.842   2.750  10.029 -0.1894  0.1283 -0.1879
  433loPI   C2B 6926   3.861   2.756   9.577  0.0528  0.0295  0.1762
  433loPI   C3B 6927   3.923   2.737   9.156  0.2533  0.4120 -0.0981
  433loPI   C4B 6928   3.983   2.625   8.704  0.2825 -0.2889 -0.1490
  434loPI    C1 6929  15.038  15.709  10.900 -0.0235 -0.3213 -0.0409
  434loPI    C2 6930  14.705  15.560  11.065 -0.0872  0.0382  0.1663
  434loPI    C3 6931  15.034  15.607  11.287  0.0119 -0.0356  0.0366
  434loPI   PO4 6932  14.942  15.628  10.622  0.0744  0.0212  0.3612
  434loPI   GL1 6933  14.977  15.562  10.213 -0.1105 -0.1050  0.1929
  434loPI   GL2 6934  15.286  15.531  10.064  0.2442 -0.1103  0.2173
  434loPI   C1A 6935  14.824  15.372   9.787  0.1012  0.0216  0.2011
  434loPI   C2A 6936  14.874  15.437   9.352 -0.1579  0.1061 -0.2854
  434loPI   C3A 6937  14.755  15.456   8.944 -0.0988  0.0306  0.0329
  434loPI   C4A 6938  14.672  15.492   8.527 -0.3654  0.3992  0.2162
  434loPI   C5A 6939  14.834  15.366   8.115  0.1666  0.4242 -0.4435
  434loPI   C6A 6940  14.849  15.094   7.805  0.0779  0.1991 -0.2111
  434loPI   C1B 6941  15.373  15.495   9.641  0.3087  0.2929  0.0924
  434loPI   C2B 6942  15.365  15.469   9.226  0.1319  0.0579  0.1808
  434loPI   C3B 6943  15.313  15.502   8.778  0.5350  0.0682  0.0065
  434loPI   C4B 6944  15.373  15.447   8.290  0.2435 -0.1027 -0.0235
  435loPI    C1 6945  13.648   3.648  11.021  0.0568 -0.1215 -0.1040
  435loPI    C2 6946  13.251   3.598  11.015 -0.0019  0.2163  0.3925
  435loPI    C3 6947  13.460   3.504  11.343  0.3153  0.1534  0.1770
  435loPI   PO4 6948  13.665   3.701  10.719  0.0634 -0.0724  0.0754
  435loPI   GL1 6949  13.682   3.888  10.356 -0.5763  0.2824 -0.0197
  435loPI   GL2 6950  13.883   4.170  10.456  0.0650  0.2118  0.1764
  435loPI   C1A 6951  13.653   3.811   9.865 -0.0486 -0.2385  0.0855
  435loPI   C2A 6952  13.717   3.774   9.423  0.1482  0.0401 -0.1104
  435loPI   C3A 6953  13.764   3.837   9.002  0.0865 -0.2858 -0.2377
  435loPI   C4A 6954  13.804   3.836   8.492 -0.0506  0.1339 -0.0634
  435loPI   C5A 6955  13.993   3.916   8.089  0.0803 -0.0203  0.0992
  435loPI   C6A 6956  13.807   4.129   7.821 -0.2209  0.1343  0.0694
  435loPI   C1B 6957  14.011   4.240  10.100  0.0197 -0.1489  0.2974
  435loPI   C2B 6958  13.969   4.208   9.654 -0.1519 -0.2341 -0.2938
  435loPI   C3B 6959  13.997   4.254   9.229 -0.1813  0.2128  0.1316
  435loPI   C4B 6960  14.036   4.224   8.760  0.3657 -0.3353  0.1551
  436loPI    C1 6961  15.408   1.649  11.211 -0.0798 -0.1251 -0.1776
  436loPI    C2 6962  15.477   2.027  11.319  0.1580 -0.2724  0.2085
  436loPI    C3 6963  15.272   1.785  11.562  0.0621 -0.4107 -0.0076
  436loPI   PO4 6964  15.450   1.671  10.880 -0.1485  0.1429  0.0394
  436loPI   GL1 6965  15.552   1.432  10.514  0.1465  0.0298 -0.1774
  436loPI   GL2 6966  15.737   1.168  10.517 -0.1573  0.3763  0.1247
  436loPI   C1A 6967  15.337   1.637  10.165 -0.0726  0.4298 -0.0343
  436loPI   C2A 6968  15.281   1.812   9.697 -0.0869 -0.0484  0.0128
  436loPI   C3A 6969  15.220   1.655   9.277  0.1599 -0.0785 -0.0722
  436loPI   C4A 6970  15.331   1.625   8.912  0.2935 -0.0572  0.0908
  436loPI   C5A 6971  15.167   1.581   8.543  0.4457  0.0625 -0.0508
  436loPI   C6A 6972  15.104   1.454   8.127  0.0632  0.1167 -0.0585
  436loPI   C1B 6973  15.700   1.282  10.043  0.0200  0.1870  0.3708
  436loPI   C2B 6974  15.540   1.362   9.559 -0.1597  0.0567 -0.1719
  436loPI   C3B 6975  15.592   1.298   9.137 -0.1073  0.0609 -0.1444
  436loPI   C4B 6976  15.540   1.167   8.691 -0.0928 -0.1080  0.1155
  437loPI    C1 6977   1.963   3.065  11.164  0.2406  0.1510  0.0365
  437loPI    C2 6978   2.044   3.271  11.497 -0.4179  0.1523  0.2088
  437loPI    C3 6979   2.052   2.871  11.503 -0.2207  0.1547  0.1663
  437loPI   PO4 6980   2.122   3.076  10.854 -0.4750  0.3519 -0.0559
  437loPI   GL1 6981   2.217   3.156  10.443  0.0304 -0.3533  0.0162
  437loPI   GL2 6982   2.224   3.438  10.282 -0.1544  0.0053 -0.1083
  437loPI   C1A 6983   1.988   3.005  10.027 -0.0233 -0.0788  0.0898
  437loPI   C2A 6984   1.918   2.932   9.601 -0.2642 -0.3600  0.2191
  437loPI   C3A 6985   2.122   2.959   9.188 -0.0058  0.2517  0.1424
  437loPI   C4A 6986   2.188   2.944   8.629 -0.0106  0.0257 -0.0219
  437loPI   C5A 6987   2.078   2.631   8.335 -0.1904 -0.0704  0.1329
  437loPI   C6A 6988   1.823   2.501   8.031 -0.2763  0.0335 -0.0200
  437loPI   C1B 6989   2.211   3.446   9.840 -0.2282  0.1545 -0.0303
  437loPI   C2B 6990   2.330   3.453   9.375 -0.1049 -0.1843 -0.0765
  437loPI   C3B 6991   2.341   3.448   8.882 -0.2285 -0.2280  0.0166
  437loPI   C4B 6992   2.601   3.382   8.480 -0.0461  0.1305 -0.0797
  438loPI    C1 6993   6.887   3.526  11.104 -0.1615 -0.1162 -0.0942
  438loPI    C2 6994   6.848   3.731  11.445 -0.1000 -0.2031 -0.0347
  438loPI    C3 6995   7.007   3.364  11.449 -0.1799 -0.2394 -0.1454
  438loPI   PO4 6996   7.044   3.691  10.939 -0.0823 -0.2494  0.0521
  438loPI   GL1 6997   6.905   3.773  10.571  0.0110 -0.0340 -0.0537
  438loPI   GL2 6998   6.531   3.717  10.620  0.0320  0.2105  0.2002
  438loPI   C1A 6999   6.912   3.940  10.137 -0.0988  0.0204 -0.0686
  438loPI   C2A 7000   6.842   3.898   9.651  0.2871  0.0398  0.0585
  438loPI   C3A 7001   6.974   3.992   9.326 -0.0330  0.4573  0.3823
  438loPI   C4A 7002   6.935   4.011   8.884  0.0235  0.3055  0.0058
  438loPI   C5A 7003   6.701   4.283   8.578  0.2988  0.1211 -0.2870
  438loPI   C6A 7004   6.802   4.592   8.381  0.0734  0.0730 -0.0647
  438loPI   C1B 7005   6.377   3.756  10.180  0.2305  0.0671  0.0968
  438loPI   C2B 7006   6.330   3.814   9.735  0.0683 -0.1414 -0.1030
  438loPI   C3B 7007   6.465   3.938   9.326  0.0036  0.0930  0.3223
  438loPI   C4B 7008   6.447   3.964   8.863 -0.1787 -0.1205 -0.0931
  439loPI    C1 7009   3.418   3.988  11.240 -0.0970 -0.1223  0.2149
  439loPI    C2 7010   3.597   4.274  11.455 -0.2421 -0.0334  0.2182
  439loPI    C3 7011   3.364   4.004  11.637  0.0396 -0.2653  0.2403
  439loPI   PO4 7012   3.473   4.092  10.990 -0.0875  0.1187  0.0655
  439loPI   GL1 7013   3.540   4.202  10.683 -0.1146  0.0453 -0.1109
  439loPI   GL2 7014   3.508   4.048  10.441 -0.1466  0.0992 -0.0622
  439loPI   C1A 7015   3.789   4.539  10.400  0.0562  0.1543  0.1142
  439loPI   C2A 7016   3.665   4.447  10.022  0.1453  0.1211 -0.0516
  439loPI   C3A 7017   3.811   4.480   9.699  0.1917 -0.0339  0.0845
  439loPI   C4A 7018   3.821   4.556   9.342  0.0974  0.1434  0.1379
  439loPI   C5A 7019   3.831   4.555   8.917  0.1591 -0.1854  0.0133
  439loPI   C6A 7020   3.873   4.462   8.568 -0.0692 -0.0745  0.2049
  439loPI   C1B 7021   3.469   4.019  10.010  0.3145 -0.0036  0.0582
  439loPI   C2B 7022   3.517   4.009   9.655  0.2152  0.2157  0.1685
  439loPI   C3B 7023   3.531   4.128   9.208  0.1119 -0.1865 -0.2088
  439loPI   C4B 7024   3.637   4.042   8.783 -0.1211  0.0064 -0.0999
  440loPI    C1 7025  10.171  10.987  10.829  0.0058  0.1817 -0.0915
  440loPI    C2 7026  10.332  10.937  11.192 -0.0332  0.0672 -0.0897
  440loPI    C3 7027  10.138  11.276  11.104  0.1789  0.1925 -0.0813
  440loPI   PO4 7028  10.354  10.869  10.677  0.0325  0.0571 -0.1052
  440loPI   GL1 7029  10.662  10.962  10.393 -0.2468  0.0689  0.2000
  440loPI   GL2 7030  10.725  11.220  10.279  0.0596 -0.2964  0.1858
  440loPI   C1A 7031  10.700  11.041   9.817 -0.1934  0.1805 -0.2849
  440loPI   C2A 7032  10.709  11.089   9.505 -0.0547  0.0417 -0.1070
  440loPI   C3A 7033  10.780  11.087   9.102  0.3784 -0.2614 -0.1683
  440loPI   C4A 7034  10.821  11.088   8.692 -0.0435 -0.0784  0.1298
  440loPI   C5A 7035  10.649  11.324   8.313 -0.0773 -0.0509  0.1687
  440loPI   C6A 7036  10.559  11.400   7.922 -0.0704 -0.3083  0.0881
  440loPI   C1B 7037  10.832  11.496   9.961  0.1064 -0.1997  0.3051
  440loPI   C2B 7038  10.940  11.532   9.555 -0.0243 -0.1697 -0.0912
  440loPI   C3B 7039  10.970  11.513   9.057 -0.0928  0.0368 -0.2300
  440loPI   C4B 7040  11.111  11.537   8.662  0.1129  0.0152 -0.0810
  441loPI    C1 7041  10.431  16.147  10.839 -0.0092 -0.1875 -0.0985
  441loPI    C2 7042  10.728  16.086  11.100 -0.0925 -0.1358  0.0089
  441loPI    C3 7043  10.397  16.278  11.215 -0.0442  0.0693 -0.1893
  441loPI   PO4 7044  10.498  16.262  10.585  0.2463  0.2152  0.0659
  441loPI   GL1 7045  10.811  16.130  10.197  0.1857  0.2818  0.3556
  441loPI   GL2 7046  11.038  16.329  10.208  0.0160  0.1770 -0.1018
  441loPI   C1A 7047  10.778  16.170   9.826 -0.2180 -0.0656  0.4409
  441loPI   C2A 7048  10.742  16.446   9.439 -0.1653  0.1676  0.0387
  441loPI   C3A 7049  10.965  16.448   9.065 -0.0232 -0.3067  0.3119
  441loPI   C4A 7050  10.886  16.363   8.617 -0.0734 -0.0046  0.1339
  441loPI   C5A 7051  10.888  16.574   8.257 -0.2551  0.5027  0.0441
  441loPI   C6A 7052  11.187  16.462   7.915 -0.0146  0.0240 -0.0041
  441loPI   C1B 7053  11.213  16.426   9.823 -0.0480 -0.1863 -0.0002
  441loPI   C2B 7054  11.328  16.529   9.358  0.0081  0.0912 -0.0716
  441loPI   C3B 7055  11.500  16.474   8.859 -0.0486  0.2536 -0.2203
  441loPI   C4B 7056  11.490  16.533   8.408 -0.1117  0.3017  0.0211
  442loPI    C1 7057  12.427   3.431  11.167 -0.1711 -0.2721  0.0054
  442loPI    C2 7058  12.162   3.201  11.358  0.0599 -0.4496  0.1173
  442loPI    C3 7059  12.388   3.459  11.564 -0.0820 -0.2378  0.0120
  442loPI   PO4 7060  12.227   3.626  10.957 -0.0624  0.0145 -0.2473
  442loPI   GL1 7061  12.367   3.758  10.597  0.2053 -0.0752 -0.1219
  442loPI   GL2 7062  12.044   3.665  10.463  0.1481 -0.2347  0.0307
  442loPI   C1A 7063  12.629   3.680  10.136  0.2664  0.1031 -0.0936
  442loPI   C2A 7064  12.641   3.691   9.671  0.2247 -0.0667  0.1311
  442loPI   C3A 7065  12.667   3.669   9.276  0.0883 -0.3512  0.2183
  442loPI   C4A 7066  12.781   3.632   8.880 -0.0419  0.1629 -0.0960
  442loPI   C5A 7067  12.633   3.456   8.436 -0.1518 -0.2944 -0.1789
  442loPI   C6A 7068  12.236   3.524   8.232 -0.0458 -0.0678 -0.0167
  442loPI   C1B 7069  12.142   3.620   9.991  0.0841  0.1060 -0.0323
  442loPI   C2B 7070  12.058   3.549   9.644 -0.1854 -0.1273 -0.1791
  442loPI   C3B 7071  12.131   3.645   9.294  0.4489  0.2081  0.1566
  442loPI   C4B 7072  12.208   3.629   8.857 -0.1543 -0.1227 -0.0304
  443loPI    C1 7073   8.133   9.934  11.019  0.1140 -0.0950 -0.0059
  443loPI    C2 7074   7.897  10.215  11.179  0.1880  0.0200 -0.0972
  443loPI    C3 7075   8.182  10.044  11.401 -0.0954 -0.2491  0.0672
  443loPI   PO4 7076   8.027   9.885  10.807  0.1306  0.1345 -0.2750
  443loPI   GL1 7077   8.005  10.014  10.396  0.1574 -0.0434 -0.0730
  443loPI   GL2 7078   7.633   9.850  10.516 -0.0380 -0.0390 -0.0659
  443loPI   C1A 7079   8.183  10.058   9.944 -0.3279 -0.2632  0.1735
  443loPI   C2A 7080   8.227  10.076   9.470 -0.0464  0.1142  0.1704
  443loPI   C3A 7081   8.179  10.060   9.045  0.0515 -0.0515  0.1765
  443loPI   C4A 7082   8.209   9.911   8.670  0.0156  0.2232 -0.3448
  443loPI   C5A 7083   8.371   9.652   8.435 -0.1680 -0.2934  0.1209
  443loPI   C6A 7084   8.490   9.266   8.445 -0.1106 -0.0314  0.4375
  443loPI   C1B 7085   7.579  10.004  10.063  0.0309  0.1502  0.2203
  443loPI   C2B 7086   7.678   9.983   9.648  0.1552 -0.1752 -0.0798
  443loPI   C3B 7087   7.706   9.953   9.243 -0.0680 -0.3732 -0.0532
  443loPI   C4B 7088   7.698  10.003   8.754 -0.1742  0.0060 -0.0812
  444loPI    C1 7089  15.658  12.347  11.198 -0.1412  0.0080  0.0999
  444loPI    C2 7090  15.458  12.266  11.535  0.0039 -0.1171  0.1575
  444loPI    C3 7091  15.824  12.117  11.479 -0.1132 -0.2963 -0.1597
  444loPI   PO4 7092  15.524  12.256  10.970 -0.1579 -0.0509 -0.1923
  444loPI   GL1 7093  15.456  12.233  10.517  0.0965  0.0836  0.0531
  444loPI   GL2 7094  15.290  12.464  10.335 -0.0281  0.0605 -0.1112
  444loPI   C1A 7095  15.630  12.000  10.206  0.3636 -0.1790  0.2162
  444loPI   C2A 7096  15.586  11.946   9.753 -0.1139  0.1310 -0.0073
  444loPI   C3A 7097  15.673  11.920   9.237  0.0734 -0.3520 -0.0114
  444loPI   C4A 7098  15.663  12.044   8.902 -0.0865 -0.2048  0.2100
  444loPI   C5A 7099  15.831  12.424   8.685  0.1339 -0.1208  0.0519
  444loPI   C6A 7100  15.950  12.727   8.357  0.2109 -0.0073  0.2815
  444loPI   C1B 7101  15.289  12.334   9.981  0.1370  0.0596  0.0419
  444loPI   C2B 7102  15.317  12.406   9.589 -0.2228 -0.1817  0.2992
  444loPI   C3B 7103  15.401  12.366   9.255 -0.0460  0.0322  0.1947
  444loPI   C4B 7104  15.325  12.360   8.728 -0.2629  0.1014  0.0100
  445loPI    C1 7105   3.354   5.020  11.088 -0.3285 -0.1658  0.0998
  445loPI    C2 7106   3.555   4.828  11.375  0.0055 -0.0253 -0.0342
  445loPI    C3 7107   3.217   5.022  11.464  0.0567 -0.0592  0.2450
  445loPI   PO4 7108   3.317   4.876  10.924 -0.0412  0.1470 -0.0372
  445loPI   GL1 7109   3.346   4.847  10.510  0.0409 -0.2750 -0.2333
  445loPI   GL2 7110   2.945   4.810  10.547 -0.0750 -0.0279  0.0093
  445loPI   C1A 7111   3.367   4.891  10.141 -0.2761 -0.1937  0.0864
  445loPI   C2A 7112   3.436   4.998   9.697 -0.2779  0.0282 -0.0211
  445loPI   C3A 7113   3.490   4.985   9.267  0.0029 -0.1261  0.2555
  445loPI   C4A 7114   3.563   4.933   8.851  0.2670 -0.0484  0.0276
  445loPI   C5A 7115   3.880   5.164   8.626  0.3211 -0.1382 -0.2519
  445loPI   C6A 7116   3.996   5.631   8.532  0.0643 -0.0211  0.0044
  445loPI   C1B 7117   2.847   4.867  10.142  0.2577 -0.4306 -0.1133
  445loPI   C2B 7118   2.970   4.813   9.725  0.1551  0.3400 -0.0698
  445loPI   C3B 7119   2.924   4.871   9.308  0.2326  0.2194 -0.0975
  445loPI   C4B 7120   2.973   4.946   8.900  0.0736 -0.1261 -0.1983
  446loPI    C1 7121  15.698  13.939  11.001  0.1571  0.1616 -0.1165
  446loPI    C2 7122  15.837  14.129  11.325  0.1082 -0.0170  0.0107
  446loPI    C3 7123  15.444  14.116  11.254  0.1234  0.0839 -0.0959
  446loPI   PO4 7124  15.772  14.052  10.812  0.1760  0.0678  0.1560
  446loPI   GL1 7125  15.608  13.940  10.435 -0.2984 -0.1137  0.2446
  446loPI   GL2 7126  15.726  14.248  10.355  0.5268 -0.1295  0.3920
  446loPI   C1A 7127  15.493  13.697  10.201 -0.0357  0.1386 -0.0362
  446loPI   C2A 7128  15.424  13.746   9.784  0.0251  0.0216  0.1704
  446loPI   C3A 7129  15.398  13.757   9.370  0.3744  0.0169 -0.3101
  446loPI   C4A 7130  15.415  13.701   8.940 -0.2871  0.1392  0.0802
  446loPI   C5A 7131  15.545  13.663   8.626  0.0146  0.0556 -0.2076
  446loPI   C6A 7132  15.955  13.675   8.405 -0.1735  0.1150  0.1234
  446loPI   C1B 7133  15.698  14.182   9.967  0.1827 -0.0740  0.0351
  446loPI   C2B 7134  15.705  14.147   9.532 -0.0378  0.0478 -0.0417
  446loPI   C3B 7135  15.637  14.106   9.070  0.1517 -0.2293 -0.1766
  446loPI   C4B 7136  15.661  14.124   8.640  0.2064 -0.0071  0.0450
  447loPI    C1 7137   9.944   1.008  11.133  0.2159 -0.1374  0.1559
  447loPI    C2 7138   9.788   1.317  11.333  0.0103 -0.1922  0.0821
  447loPI    C3 7139  10.147   1.174  11.436  0.1366  0.1114  0.0749
  447loPI   PO4 7140   9.897   1.147  10.879 -0.1178 -0.2920 -0.0439
  447loPI   GL1 7141   9.788   1.119  10.492 -0.1205  0.2027 -0.3588
  447loPI   GL2 7142   9.871   1.397  10.432 -0.0890 -0.0382  0.1172
  447loPI   C1A 7143   9.564   0.995  10.132 -0.1436 -0.4166  0.4093
  447loPI   C2A 7144   9.461   1.073   9.709 -0.0260 -0.1974  0.0441
  447loPI   C3A 7145   9.575   1.170   9.335  0.0764 -0.1436 -0.0982
  447loPI   C4A 7146   9.572   1.099   8.943  0.4343  0.1996  0.2474
  447loPI   C5A 7147   9.605   1.191   8.589  0.0341  0.0826 -0.0827
  447loPI   C6A 7148   9.388   1.209   8.142  0.0465 -0.1109 -0.0009
  447loPI   C1B 7149   9.835   1.478  10.066  0.4829 -0.2148 -0.1317
  447loPI   C2B 7150   9.799   1.573   9.613 -0.3932  0.0128 -0.2296
  447loPI   C3B 7151   9.823   1.662   9.107  0.0878  0.1555 -0.2168
  447loPI   C4B 7152   9.858   1.625   8.661  0.2026  0.4529 -0.3153
  448loPI    C1 7153  13.560  17.259  11.145 -0.3092 -0.1277 -0.0522
  448loPI    C2 7154  13.334  17.235  11.474  0.2338  0.0208  0.3461
  448loPI    C3 7155  13.464  17.591  11.346  0.1173 -0.0475  0.0301
  448loPI   PO4 7156  13.417  17.096  10.911 -0.0582  0.0225  0.0816
  448loPI   GL1 7157  13.436  17.031  10.528 -0.0851  0.1363  0.2280
  448loPI   GL2 7158  13.763  17.002  10.331 -0.1368  0.1328  0.0935
  448loPI   C1A 7159  13.199  17.162  10.156 -0.3717 -0.1524 -0.2273
  448loPI   C2A 7160  13.093  17.120   9.718  0.0177 -0.1783 -0.1057
  448loPI   C3A 7161  13.103  17.132   9.317  0.2984 -0.0903  0.0773
  448loPI   C4A 7162  13.212  17.131   8.872 -0.2371 -0.2932 -0.0183
  448loPI   C5A 7163  13.267  17.205   8.495  0.0980  0.1778 -0.2056
  448loPI   C6A 7164  13.168  17.320   8.071 -0.0855 -0.0696  0.0939
  448loPI   C1B 7165  13.665  17.164   9.985 -0.1343  0.0066  0.1598
  448loPI   C2B 7166  13.681  17.215   9.642 -0.0290 -0.0387 -0.0272
  448loPI   C3B 7167  13.628  17.191   9.221 -0.2906  0.1445  0.0246
  448loPI   C4B 7168  13.712  17.237   8.807  0.1431  0.2944 -0.2454
  449loPI    C1 7169  15.106   8.782  11.082  0.0946 -0.2663 -0.0531
  449loPI    C2 7170  15.411   9.037  11.038 -0.0550 -0.0795 -0.0195
  449loPI    C3 7171  15.367   8.835  11.381 -0.0345 -0.0205  0.0182
  449loPI   PO4 7172  15.050   8.761  10.842 -0.1231 -0.0305  0.1196
  449loPI   GL1 7173  15.118   9.072  10.501  0.2657  0.0655 -0.0427
  449loPI   GL2 7174  14.859   9.196  10.375  0.1673 -0.0482  0.2197
  449loPI   C1A 7175  15.201   8.966  10.108  0.1869  0.0820  0.2464
  449loPI   C2A 7176  15.171   8.876   9.679 -0.0188  0.5875 -0.2183
  449loPI   C3A 7177  15.208   8.737   9.254 -0.0835  0.1683 -0.1964
  449loPI   C4A 7178  15.303   8.811   8.828 -0.1714 -0.0220  0.1781
  449loPI   C5A 7179  15.373   9.003   8.523 -0.1766  0.5724  0.0823
  449loPI   C6A 7180  15.432   9.312   8.290 -0.1500  0.1897  0.0336
  449loPI   C1B 7181  14.782   9.350   9.867  0.2646  0.1164  0.1653
  449loPI   C2B 7182  14.808   9.254   9.540 -0.2453  0.1932  0.1726
  449loPI   C3B 7183  15.014   9.240   9.122 -0.0574  0.0370  0.0587
  449loPI   C4B 7184  14.919   9.203   8.630  0.1470 -0.0613 -0.1617
  450loPI    C1 7185  14.687  12.824  10.972  0.1523  0.0221 -0.1632
  450loPI    C2 7186  14.864  13.007  11.281 -0.0032 -0.1350  0.0221
  450loPI    C3 7187  14.513  13.140  11.145 -0.0114 -0.1627  0.0159
  450loPI   PO4 7188  14.758  12.868  10.824  0.0176  0.2418  0.0861
  450loPI   GL1 7189  14.581  12.953  10.370 -0.0919  0.0474  0.0267
  450loPI   GL2 7190  14.757  13.181  10.362 -0.0216 -0.1808 -0.0324
  450loPI   C1A 7191  14.431  12.753  10.112 -0.1300 -0.2295 -0.2652
  450loPI   C2A 7192  14.411  12.780   9.678 -0.4471  0.0338 -0.0936
  450loPI   C3A 7193  14.560  12.752   9.323  0.0334  0.0482 -0.1671
  450loPI   C4A 7194  14.467  12.718   8.977  0.0828 -0.0207 -0.0941
  450loPI   C5A 7195  14.616  12.829   8.625  0.1990 -0.0899 -0.0908
  450loPI   C6A 7196  14.881  12.983   8.446  0.1212 -0.1271  0.1170
  450loPI   C1B 7197  14.680  13.182   9.914  0.1465 -0.1667 -0.1144
  450loPI   C2B 7198  14.643  13.247   9.425 -0.4600  0.1239 -0.0761
  450loPI   C3B 7199  14.742  13.188   8.961 -0.0037  0.0070  0.0848
  450loPI   C4B 7200  14.632  13.382   8.554  0.2838  0.3217 -0.1263
  451loPI    C1 7201   8.352  16.689  10.667  0.1188  0.1524  0.1754
  451loPI    C2 7202   8.457  16.606  11.044  0.1056  0.3887  0.2321
  451loPI    C3 7203   8.075  16.568  10.930  0.1857 -0.1437  0.1142
  451loPI   PO4 7204   8.541  16.620  10.524 -0.1256 -0.2273 -0.2626
  451loPI   GL1 7205   8.640  16.686  10.109 -0.2611 -0.1196  0.0195
  451loPI   GL2 7206   8.378  16.504   9.969 -0.0758 -0.2220 -0.0438
  451loPI   C1A 7207   8.664  16.837   9.685  0.1633 -0.1026 -0.1862
  451loPI   C2A 7208   8.621  17.081   9.439  0.1885 -0.1026  0.3086
  451loPI   C3A 7209   8.643  17.317   9.092  0.0772 -0.2396  0.2942
  451loPI   C4A 7210   8.472  17.349   8.678  0.1485  0.1509 -0.1342
  451loPI   C5A 7211   8.370  17.403   8.160  0.1388  0.2175 -0.1982
  451loPI   C6A 7212   8.203  17.220   7.810 -0.1330 -0.1019 -0.4251
  451loPI   C1B 7213   8.101  16.752   9.733  0.0888 -0.1925 -0.0615
  451loPI   C2B 7214   8.185  16.849   9.431  0.0328 -0.1113 -0.2861
  451loPI   C3B 7215   8.278  16.996   9.012 -0.2331  0.2041  0.2660
  451loPI   C4B 7216   8.208  16.934   8.527 -0.1711  0.1981 -0.0679
  452loPI    C1 7217   9.150   6.511  11.107 -0.1137  0.4169  0.1893
  452loPI    C2 7218   9.104   6.436  11.497  0.0084  0.0426  0.1349
  452loPI    C3 7219   9.461   6.548  11.356  0.0982 -0.3280  0.0572
  452loPI   PO4 7220   8.833   6.554  11.032 -0.0047 -0.4694 -0.4192
  452loPI   GL1 7221   8.704   6.811  10.647  0.1169 -0.0067 -0.2925
  452loPI   GL2 7222   8.308   6.748  10.696  0.0988 -0.1082  0.1426
  452loPI   C1A 7223   8.695   6.886  10.195  0.2851 -0.0700 -0.0698
  452loPI   C2A 7224   8.692   6.834   9.721 -0.0070  0.3421 -0.0316
  452loPI   C3A 7225   8.869   6.838   9.317 -0.2517 -0.0380  0.2848
  452loPI   C4A 7226   9.209   6.949   9.063  0.1423  0.0561 -0.1371
  452loPI   C5A 7227   9.285   6.983   8.678 -0.0693  0.3050 -0.1055
  452loPI   C6A 7228   9.182   7.102   8.304  0.4305  0.0991  0.0527
  452loPI   C1B 7229   8.182   6.846  10.242 -0.1096 -0.3775 -0.0388
  452loPI   C2B 7230   8.175   6.782   9.928 -0.0653 -0.0062  0.3781
  452loPI   C3B 7231   8.253   6.732   9.527  0.0047  0.1518 -0.1614
  452loPI   C4B 7232   8.242   6.846   9.122 -0.1310  0.1926 -0.0306
  453loPI    C1 7233  15.718   0.278  10.995 -0.0648 -0.2533 -0.0130
  453loPI    C2 7234  16.032   0.093  11.160 -0.0187 -0.2287 -0.0731
  453loPI    C3 7235  15.747   0.250  11.393  0.0761 -0.1419 -0.0149
  453loPI   PO4 7236  15.659   0.091  10.790 -0.0677 -0.1658 -0.0361
  453loPI   GL1 7237  15.858  -0.135  10.339  0.3718 -0.0647 -0.2543
  453loPI   GL2 7238  15.815  -0.416  10.331  0.0632 -0.0762  0.1213
  453loPI   C1A 7239  15.967  -0.043   9.963  0.2287  0.1441  0.2349
  453loPI   C2A 7240  15.883  -0.033   9.456  0.3712 -0.2543 -0.2430
  453loPI   C3A 7241  15.827  -0.192   9.084  0.0722  0.1248  0.0810
  453loPI   C4A 7242  15.924  -0.168   8.728  0.0364 -0.0819 -0.1593
  453loPI   C5A 7243  16.181  -0.229   8.239 -0.2983 -0.0487 -0.2581
  453loPI   C6A 7244  16.368  -0.307   7.893 -0.1290 -0.1306  0.2032
  453loPI   C1B 7245  15.732  -0.512   9.817 -0.2628  0.1908  0.0537
  453loPI   C2B 7246  15.620  -0.597   9.367  0.1322 -0.0037 -0.2510
  453loPI   C3B 7247  15.667  -0.625   9.036  0.4013 -0.0916  0.3501
  453loPI   C4B 7248  15.781  -0.670   8.656  0.2090  0.1643 -0.0548
  454loPI    C1 7249  11.570   1.992  11.358  0.0371  0.2158 -0.2268
  454loPI    C2 7250  11.940   1.896  11.242  0.0703  0.1427 -0.0626
  454loPI    C3 7251  11.841   1.879  11.629 -0.1939 -0.1441 -0.1385
  454loPI   PO4 7252  11.447   1.933  11.111  0.1274 -0.2199  0.1107
  454loPI   GL1 7253  11.290   1.889  10.775 -0.3008  0.0943  0.0590
  454loPI   GL2 7254  11.344   1.739  10.563 -0.0302 -0.0003 -0.1826
  454loPI   C1A 7255  11.017   2.022  10.298  0.1212  0.5066 -0.0074
  454loPI   C2A 7256  10.981   2.117   9.890  0.4332  0.0310 -0.0583
  454loPI   C3A 7257  10.996   2.063   9.379 -0.0560 -0.2138  0.1157
  454loPI   C4A 7258  11.003   2.168   8.978  0.1899 -0.0483  0.4189
  454loPI   C5A 7259  10.972   2.198   8.547 -0.0944  0.0488  0.0890
  454loPI   C6A 7260  10.744   2.212   8.182  0.0411 -0.0341 -0.2757
  454loPI   C1B 7261  11.316   1.711  10.061  0.1626  0.2188  0.2027
  454loPI   C2B 7262  11.381   1.708   9.638  0.0283 -0.0192  0.0618
  454loPI   C3B 7263  11.415   1.663   9.137 -0.1952 -0.3637  0.2805
  454loPI   C4B 7264  11.325   1.864   8.798 -0.0729 -0.0559  0.2105
  455loPI    C1 7265   2.156   3.734  11.281  0.0697 -0.0607 -0.1683
  455loPI    C2 7266   2.538   3.851  11.299  0.0668 -0.0612 -0.0970
  455loPI    C3 7267   2.280   3.970  11.580  0.0330 -0.1277 -0.0999
  455loPI   PO4 7268   2.051   3.796  11.145  0.0383 -0.1150 -0.1313
  455loPI   GL1 7269   1.863   4.030  10.810  0.0505 -0.3603 -0.1546
  455loPI   GL2 7270   1.536   4.281  10.822  0.5042  0.1601 -0.2248
  455loPI   C1A 7271   1.862   3.943  10.293 -0.2913 -0.1133 -0.2019
  455loPI   C2A 7272   1.961   3.897   9.787  0.2375  0.0883 -0.0504
  455loPI   C3A 7273   2.051   3.974   9.325 -0.0424  0.1222  0.3725
  455loPI   C4A 7274   2.032   3.945   8.929 -0.0775  0.2911 -0.0670
  455loPI   C5A 7275   2.092   3.907   8.473 -0.0620  0.1047 -0.2382
  455loPI   C6A 7276   2.295   4.180   8.212 -0.3040  0.0460  0.0790
  455loPI   C1B 7277   1.587   4.323  10.387 -0.0704 -0.1551 -0.3947
  455loPI   C2B 7278   1.612   4.295   9.900 -0.4315  0.2536  0.2139
  455loPI   C3B 7279   1.677   4.290   9.523  0.3384 -0.0430 -0.0060
  455loPI   C4B 7280   1.736   4.345   9.114  0.1486  0.2957  0.0132
  456loPI    C1 7281   6.512  11.758  10.856 -0.1428 -0.0872  0.2533
  456loPI    C2 7282   6.770  11.471  10.963 -0.1738 -0.1783  0.0885
  456loPI    C3 7283   6.624  11.722  11.238  0.0653 -0.1455  0.1888
  456loPI   PO4 7284   6.394  11.657  10.697  0.0292  0.0959  0.2161
  456loPI   GL1 7285   6.401  11.548  10.279 -0.2162 -0.1309 -0.1215
  456loPI   GL2 7286   6.108  11.341  10.383 -0.1071  0.1572  0.2809
  456loPI   C1A 7287   6.482  11.678   9.782 -0.0329  0.1532 -0.0763
  456loPI   C2A 7288   6.568  11.762   9.369 -0.0658 -0.0971 -0.1483
  456loPI   C3A 7289   6.505  11.607   8.973 -0.3431 -0.3510 -0.0432
  456loPI   C4A 7290   6.412  11.728   8.496  0.3226 -0.0711  0.0972
  456loPI   C5A 7291   6.493  12.101   8.285 -0.2007 -0.1675  0.1830
  456loPI   C6A 7292   6.597  12.556   8.039  0.1979  0.2600 -0.1173
  456loPI   C1B 7293   6.192  11.135   9.949  0.0661  0.0293  0.1087
  456loPI   C2B 7294   6.219  11.090   9.496 -0.2744  0.1143  0.2417
  456loPI   C3B 7295   6.267  11.165   9.147  0.1469 -0.2883 -0.1485
  456loPI   C4B 7296   6.362  11.217   8.697  0.2839 -0.0804  0.2741
  457loPI    C1 7297   6.341  16.787  10.506  0.0503 -0.2032  0.0149
  457loPI    C2 7298   6.324  17.035  10.820  0.1405 -0.1095 -0.0539
  457loPI    C3 7299   6.654  17.020  10.593  0.0331 -0.0924 -0.2128
  457loPI   PO4 7300   6.175  16.853  10.388  0.0382  0.1707  0.0344
  457loPI   GL1 7301   6.275  17.109   9.976  0.2248 -0.1138 -0.0356
  457loPI   GL2 7302   6.531  17.196  10.156  0.0497  0.0974 -0.1500
  457loPI   C1A 7303   6.271  17.103   9.597 -0.0904  0.3912  0.0279
  457loPI   C2A 7304   6.352  17.184   9.166  0.1771 -0.1082 -0.0243
  457loPI   C3A 7305   6.380  17.131   8.831  0.0015 -0.0698 -0.0040
  457loPI   C4A 7306   6.380  16.828   8.453  0.3440 -0.1813  0.0218
  457loPI   C5A 7307   6.419  16.653   8.191  0.1222  0.1429  0.2014
  457loPI   C6A 7308   6.452  16.327   7.973  0.4082 -0.1497  0.1125
  457loPI   C1B 7309   6.724  17.303   9.764  0.0745  0.0245  0.4013
  457loPI   C2B 7310   6.792  17.324   9.393 -0.0815 -0.0683 -0.1372
  457loPI   C3B 7311   6.890  17.356   8.978  0.2017  0.2638 -0.1026
  457loPI   C4B 7312   6.747  17.381   8.530 -0.0481  0.0952 -0.5028
  458loPI    C1 7313   7.182   2.212  11.289 -0.3066 -0.0977 -0.2243
  458loPI    C2 7314   6.971   2.465  11.063 -0.0489  0.2312 -0.1037
  458loPI    C3 7315   6.907   2.449  11.457  0.0591  0.2386 -0.0857
  458loPI   PO4 7316   7.140   1.987  11.113 -0.2700 -0.0805 -0.1402
  458loPI   GL1 7317   7.306   1.979  10.686 -0.0122 -0.1760 -0.0178
  458loPI   GL2 7318   7.021   1.854  10.607 -0.3392 -0.0486 -0.2634
  458loPI   C1A 7319   7.566   2.094  10.347  0.1239 -0.3177  0.0351
  458loPI   C2A 7320   7.549   2.194   9.888 -0.0684 -0.2028  0.1345
  458loPI   C3A 7321   7.599   2.131   9.379 -0.2755 -0.0505 -0.1685
  458loPI   C4A 7322   7.613   2.180   9.022  0.1744  0.0336  0.3148
  458loPI   C5A 7323   7.668   2.344   8.690  0.2582  0.0147  0.2189
  458loPI   C6A 7324   7.601   2.378   8.171  0.2408 -0.2246  0.2139
  458loPI   C1B 7325   7.031   2.059  10.151 -0.1769  0.1781 -0.1670
  458loPI   C2B 7326   7.044   2.098   9.669 -0.2717  0.0053 -0.2775
  458loPI   C3B 7327   7.151   2.232   9.206  0.1141  0.0310  0.1155
  458loPI   C4B 7328   7.095   2.235   8.702 -0.0488 -0.0292 -0.2020
  459loPI    C1 7329   1.468   2.268  11.262  0.0155 -0.0017  0.0124
  459loPI    C2 7330   1.750   2.521  11.392 -0.0742  0.0427  0.1224
  459loPI    C3 7331   1.376   2.549  11.532 -0.0896 -0.1379  0.1200
  459loPI   PO4 7332   1.398   2.292  11.019 -0.0214  0.1645 -0.0560
  459loPI   GL1 7333   1.227   2.639  10.799 -0.0636  0.2718  0.2849
  459loPI   GL2 7334   1.253   2.895  10.673 -0.3085 -0.1953 -0.0375
  459loPI   C1A 7335   1.288   2.521  10.416 -0.1900  0.0615 -0.2136
  459loPI   C2A 7336   1.229   2.467   9.963 -0.2306 -0.0290 -0.0959
  459loPI   C3A 7337   1.257   2.459   9.508 -0.1547  0.1090  0.0135
  459loPI   C4A 7338   1.194   2.464   9.088 -0.1312 -0.1240 -0.2793
  459loPI   C5A 7339   1.016   2.379   8.651  0.0704 -0.3606 -0.1753
  459loPI   C6A 7340   0.569   2.416   8.638  0.0365 -0.0859  0.5248
  459loPI   C1B 7341   1.027   2.858  10.210 -0.0203 -0.0045 -0.0445
  459loPI   C2B 7342   0.937   2.847   9.755 -0.0124  0.0527  0.0831
  459loPI   C3B 7343   0.981   2.892   9.355 -0.0138 -0.2879  0.2256
  459loPI   C4B 7344   0.902   2.772   8.888  0.0936 -0.0423  0.3031
  460loPI    C1 7345  13.482  13.870  11.184 -0.1706  0.3489  0.1179
  460loPI    C2 7346  13.241  13.663  11.427  0.0854  0.0183  0.0975
  460loPI    C3 7347  13.406  14.005  11.553 -0.0994  0.0562  0.2421
  460loPI   PO4 7348  13.618  13.659  11.007  0.1750  0.2849 -0.1384
  460loPI   GL1 7349  13.507  13.588  10.557 -0.1618 -0.1296  0.1801
  460loPI   GL2 7350  13.876  13.545  10.627 -0.0837  0.4183 -0.1735
  460loPI   C1A 7351  13.357  13.685  10.185  0.0057 -0.0199 -0.3586
  460loPI   C2A 7352  13.443  13.666   9.717  0.1588  0.1679 -0.1120
  460loPI   C3A 7353  13.372  13.602   9.422 -0.0206  0.2421 -0.3273
  460loPI   C4A 7354  13.406  13.559   8.949 -0.1694  0.1162 -0.0158
  460loPI   C5A 7355  13.676  13.658   8.594  0.1807  0.0109 -0.1451
  460loPI   C6A 7356  13.966  13.988   8.533  0.0119 -0.2467  0.0989
  460loPI   C1B 7357  13.887  13.598  10.248 -0.0393  0.0566  0.0019
  460loPI   C2B 7358  13.899  13.681   9.840  0.3078  0.0028 -0.5017
  460loPI   C3B 7359  13.865  13.600   9.440  0.2560 -0.0997 -0.2701
  460loPI   C4B 7360  13.928  13.539   9.003 -0.1216  0.1332 -0.2280
  461loPI    C1 7361   0.528   3.392  11.421  0.0613  0.0208 -0.0088
  461loPI    C2 7362   0.469   3.022  11.561 -0.2266  0.0199 -0.1257
  461loPI    C3 7363   0.588   3.313  11.808 -0.1969 -0.1044  0.0080
  461loPI   PO4 7364   0.668   3.364  11.270  0.5233 -0.2198 -0.0985
  461loPI   GL1 7365   0.693   3.422  10.894  0.0312 -0.2378  0.0765
  461loPI   GL2 7366   1.035   3.262  10.877 -0.1200 -0.0771  0.1393
  461loPI   C1A 7367   0.835   3.692  10.530  0.2451 -0.3006 -0.2619
  461loPI   C2A 7368   0.920   3.709  10.139  0.1064  0.0862 -0.2622
  461loPI   C3A 7369   0.901   3.749   9.679  0.0147 -0.0942 -0.2217
  461loPI   C4A 7370   0.926   3.804   9.192  0.1237  0.1826 -0.1570
  461loPI   C5A 7371   1.157   3.771   8.842  0.2072  0.0335 -0.0376
  461loPI   C6A 7372   1.372   3.515   8.624  0.0055 -0.0497  0.0878
  461loPI   C1B 7373   1.175   3.380  10.428  0.0109 -0.0217  0.0188
  461loPI   C2B 7374   1.166   3.288   9.987  0.4152  0.1543  0.1136
  461loPI   C3B 7375   1.185   3.399   9.680  0.0789  0.0409 -0.0457
  461loPI   C4B 7376   1.387   3.365   9.305 -0.0915  0.1004  0.1994
  462loPI    C1 7377   5.780   8.687  11.358 -0.0802 -0.0233  0.0915
  462loPI    C2 7378   6.013   8.833  11.649 -0.0580 -0.0030  0.0635
  462loPI    C3 7379   5.621   8.785  11.712 -0.0551  0.0116  0.0930
  462loPI   PO4 7380   5.900   8.843  11.133  0.0239 -0.1429  0.0191
  462loPI   GL1 7381   5.909   8.700  10.775  0.0785 -0.2167 -0.0248
  462loPI   GL2 7382   5.952   8.384  10.683  0.4239 -0.0486  0.1480
  462loPI   C1A 7383   5.727   8.890  10.480 -0.0714 -0.2514  0.1464
  462loPI   C2A 7384   5.618   8.839  10.022 -0.0843 -0.0374  0.1946
  462loPI   C3A 7385   5.649   8.816   9.628 -0.1015  0.0432 -0.3992
  462loPI   C4A 7386   5.729   8.853   9.229 -0.1079  0.2035 -0.0117
  462loPI   C5A 7387   5.778   8.735   8.807 -0.3314 -0.3852  0.0641
  462loPI   C6A 7388   5.754   8.876   8.366  0.0414  0.4021  0.1617
  462loPI   C1B 7389   5.888   8.437  10.231 -0.2177 -0.0247  0.3688
  462loPI   C2B 7390   5.972   8.451   9.722  0.3254 -0.2412  0.1940
  462loPI   C3B 7391   5.961   8.379   9.182 -0.1233 -0.0913 -0.1756
  462loPI   C4B 7392   6.109   8.299   8.808 -0.1733 -0.0103 -0.1400
  463loPI    C1 7393  12.851   8.827  11.334 -0.1324  0.0759 -0.2102
  463loPI    C2 7394  13.236   8.718  11.354 -0.0546  0.3882  0.0977
  463loPI    C3 7395  12.948   8.452  11.436  0.0919  0.1497 -0.1449
  463loPI   PO4 7396  12.989   9.125  11.155  0.1051 -0.1068 -0.3028
  463loPI   GL1 7397  12.949   9.243  10.698  0.2399  0.0856 -0.2223
  463loPI   GL2 7398  13.196   9.073  10.597 -0.0568  0.0406 -0.0385
  463loPI   C1A 7399  13.031   9.465  10.347 -0.4590 -0.0469  0.0197
  463loPI   C2A 7400  13.038   9.450   9.869  0.0775  0.3134  0.4419
  463loPI   C3A 7401  13.035   9.536   9.472 -0.0870  0.2120 -0.0359
  463loPI   C4A 7402  12.998   9.549   9.016  0.1774  0.1774  0.0069
  463loPI   C5A 7403  12.974   9.541   8.558  0.1498 -0.3385  0.0195
  463loPI   C6A 7404  13.247   9.442   8.199 -0.1528  0.0585  0.0739
  463loPI   C1B 7405  13.334   9.125  10.130  0.0263 -0.1559 -0.1057
  463loPI   C2B 7406  13.314   9.062   9.697  0.1793 -0.1786 -0.0474
  463loPI   C3B 7407  13.209   9.085   9.278  0.0963 -0.0445 -0.4497
  463loPI   C4B 7408  13.399   9.091   8.859 -0.0705 -0.0563 -0.1934
  464loPI    C1 7409   2.712  12.305  10.700  0.3281  0.0175 -0.1186
  464loPI    C2 7410   2.652  12.081  11.025  0.1608  0.1043 -0.0883
  464loPI    C3 7411   3.017  12.221  10.943  0.2252 -0.0089  0.0026
  464loPI   PO4 7412   2.713  12.130  10.463 -0.1686 -0.1073  0.3697
  464loPI   GL1 7413   2.749  12.099  10.036  0.1289 -0.0337  0.1778
  464loPI   GL2 7414   3.083  12.102   9.977 -0.2476 -0.2497  0.0373
  464loPI   C1A 7415   2.744  12.051   9.620 -0.0979  0.2814 -0.1150
  464loPI   C2A 7416   2.707  12.027   9.130 -0.0021 -0.1864  0.2272
  464loPI   C3A 7417   2.789  11.938   8.708  0.2084  0.0782 -0.1510
  464loPI   C4A 7418   2.855  11.887   8.325 -0.1685 -0.0015 -0.0465
  464loPI   C5A 7419   2.817  12.177   8.067  0.0923 -0.1272  0.0981
  464loPI   C6A 7420   2.602  12.659   8.116  0.1561 -0.0458 -0.1247
  464loPI   C1B 7421   3.234  12.138   9.551 -0.0087  0.0350 -0.0584
  464loPI   C2B 7422   3.215  11.991   9.130 -0.0948  0.0910  0.0406
  464loPI   C3B 7423   3.313  12.069   8.698  0.0054  0.0234 -0.1141
  464loPI   C4B 7424   3.303  12.024   8.231  0.3171 -0.1760  0.1618
  465loPI    C1 7425  17.373  13.815  11.142  0.0697 -0.3043  0.0294
  465loPI    C2 7426  17.041  13.954  11.316  0.1707 -0.0243  0.0032
  465loPI    C3 7427  17.147  13.571  11.364 -0.0019 -0.0439  0.2477
  465loPI   PO4 7428  17.383  13.927  10.863 -0.2667  0.1632  0.3650
  465loPI   GL1 7429  17.376  14.117  10.576 -0.2318 -0.0397 -0.0241
  465loPI   GL2 7430  17.093  13.859  10.448 -0.2008  0.0846  0.0859
  465loPI   C1A 7431  17.547  13.977  10.158 -0.0072 -0.3060 -0.1232
  465loPI   C2A 7432  17.575  13.910   9.749 -0.3419 -0.0751 -0.0497
  465loPI   C3A 7433  17.477  13.941   9.339 -0.1692  0.0475  0.0045
  465loPI   C4A 7434  17.498  13.875   8.930  0.1352  0.1874  0.0327
  465loPI   C5A 7435  17.537  13.886   8.530  0.0823 -0.0717  0.0217
  465loPI   C6A 7436  17.426  13.755   8.135 -0.0698 -0.0943 -0.0301
  465loPI   C1B 7437  17.015  13.916   9.988 -0.4546  0.2197 -0.0612
  465loPI   C2B 7438  17.031  13.875   9.581  0.1320 -0.0382 -0.1870
  465loPI   C3B 7439  16.981  13.869   9.165  0.1297  0.2611  0.0167
  465loPI   C4B 7440  17.069  13.812   8.689 -0.1827 -0.1684 -0.0166
  466loPI    C1 7441   9.721   3.928  11.275 -0.1728  0.1212  0.0166
  466loPI    C2 7442   9.521   3.638  11.464  0.0772  0.0363  0.1558
  466loPI    C3 7443   9.873   3.764  11.607  0.1030  0.2156 -0.0597
  466loPI   PO4 7444   9.696   3.801  10.994  0.0737  0.0837 -0.2373
  466loPI   GL1 7445   9.743   3.748  10.476  0.1709  0.0522 -0.0189
  466loPI   GL2 7446   9.554   4.081  10.428  0.1440 -0.2197  0.1039
  466loPI   C1A 7447   9.708   3.681  10.014 -0.1015  0.1670 -0.0564
  466loPI   C2A 7448   9.746   3.702   9.608 -0.2164  0.0465  0.1272
  466loPI   C3A 7449   9.709   3.746   9.182 -0.2022 -0.0819  0.0893
  466loPI   C4A 7450   9.720   3.764   8.684 -0.0269 -0.0749 -0.4310
  466loPI   C5A 7451   9.960   3.851   8.271 -0.0062 -0.4544  0.0998
  466loPI   C6A 7452  10.151   4.313   7.963  0.1076  0.3216  0.0253
  466loPI   C1B 7453   9.411   4.115  10.021 -0.1690 -0.0355 -0.2719
  466loPI   C2B 7454   9.435   4.119   9.586 -0.4823 -0.1251  0.2349
  466loPI   C3B 7455   9.504   4.180   9.126 -0.0617  0.1253 -0.1244
  466loPI   C4B 7456   9.508   4.242   8.758  0.1821  0.1145 -0.3026
  467loPI    C1 7457  11.356  13.863  11.100  0.1425 -0.2631  0.0495
  467loPI    C2 7458  11.310  13.494  10.955  0.0426 -0.4003  0.4185
  467loPI    C3 7459  10.995  13.691  11.104  0.0035  0.0142 -0.1761
  467loPI   PO4 7460  11.509  13.990  10.787 -0.5563  0.1208 -0.0414
  467loPI   GL1 7461  11.453  13.953  10.422  0.0450  0.1299 -0.1924
  467loPI   GL2 7462  11.592  13.705  10.358  0.2352 -0.1522  0.1196
  467loPI   C1A 7463  11.537  13.834   9.877 -0.0192 -0.2028  0.0306
  467loPI   C2A 7464  11.475  13.861   9.415 -0.0542  0.0225 -0.0391
  467loPI   C3A 7465  11.540  13.946   9.044 -0.1282  0.1176  0.0714
  467loPI   C4A 7466  11.578  13.917   8.687 -0.0477 -0.0209  0.2262
  467loPI   C5A 7467  11.945  13.988   8.402 -0.1691 -0.0381 -0.1139
  467loPI   C6A 7468  12.276  13.900   8.454  0.2799  0.2858 -0.1904
  467loPI   C1B 7469  11.804  13.389  10.033  0.1264 -0.1681 -0.2685
  467loPI   C2B 7470  11.806  13.542   9.578  0.1915  0.3552 -0.0684
  467loPI   C3B 7471  11.922  13.488   9.137 -0.0486  0.2930 -0.0363
  467loPI   C4B 7472  11.842  13.525   8.772 -0.1445  0.0751 -0.2743
  468loPI    C1 7473  10.273   7.038  11.170 -0.0694  0.0419 -0.0159
  468loPI    C2 7474   9.955   7.276  11.215  0.0477  0.1851  0.0646
  468loPI    C3 7475  10.313   7.395  11.346  0.1742  0.1123 -0.2098
  468loPI   PO4 7476  10.297   6.958  11.021  0.1466  0.1137 -0.0139
  468loPI   GL1 7477  10.515   7.039  10.725  0.1824  0.0301  0.1147
  468loPI   GL2 7478  10.708   6.898  10.537  0.1158  0.1057  0.0178
  468loPI   C1A 7479  10.337   7.065  10.295 -0.0960  0.1889  0.1367
  468loPI   C2A 7480  10.425   7.045   9.899  0.2738  0.0491  0.1796
  468loPI   C3A 7481  10.396   6.977   9.442  0.0304  0.0684 -0.2276
  468loPI   C4A 7482  10.255   7.045   9.059 -0.0720  0.0269 -0.0179
  468loPI   C5A 7483  10.369   7.150   8.622  0.0945  0.0219 -0.0778
  468loPI   C6A 7484  10.631   7.186   8.228 -0.1236  0.0299 -0.3827
  468loPI   C1B 7485  10.912   7.119  10.202 -0.0909 -0.1222  0.0039
  468loPI   C2B 7486  10.842   7.098   9.690 -0.0146  0.1150  0.1693
  468loPI   C3B 7487  10.876   7.044   9.182  0.0155 -0.1603 -0.1643
  468loPI   C4B 7488  10.861   7.106   8.709  0.0066 -0.2938 -0.2591
  469loPI    C1 7489   1.799   1.444  10.723  0.0468 -0.1317 -0.0648
  469loPI    C2 7490   1.876   1.084  10.567  0.2650 -0.1084 -0.0140
  469loPI    C3 7491   2.166   1.288  10.752  0.1472  0.1013 -0.0569
  469loPI   PO4 7492   1.718   1.558  10.569  0.0408  0.0088  0.1880
  469loPI   GL1 7493   1.824   1.427  10.158 -0.0478  0.1406  0.3936
  469loPI   GL2 7494   1.554   1.127  10.198 -0.1870  0.0960 -0.0026
  469loPI   C1A 7495   1.865   1.694   9.846  0.1314  0.0574 -0.2649
  469loPI   C2A 7496   1.872   1.628   9.383 -0.1303  0.1552  0.0604
  469loPI   C3A 7497   1.876   1.714   8.908 -0.0626  0.4033 -0.0517
  469loPI   C4A 7498   1.778   1.631   8.486 -0.4259  0.0553  0.0644
  469loPI   C5A 7499   2.053   1.373   8.225 -0.3231  0.2511 -0.0768
  469loPI   C6A 7500   1.775   1.165   7.812  0.1512 -0.3940 -0.0046
  469loPI   C1B 7501   1.607   1.135   9.772  0.0806  0.1144  0.0490
  469loPI   C2B 7502   1.624   1.149   9.366 -0.0318 -0.1285  0.1240
  469loPI   C3B 7503   1.697   1.264   9.032  0.0964 -0.1223  0.0871
  469loPI   C4B 7504   1.640   1.095   8.687 -0.1149 -0.0499  0.0928
  470loPI    C1 7505   1.733  12.685  10.895 -0.0824 -0.2136 -0.0498
  470loPI    C2 7506   1.497  12.497  11.158 -0.0018 -0.0405  0.1500
  470loPI    C3 7507   1.793  12.732  11.288  0.0150  0.0784 -0.0968
  470loPI   PO4 7508   1.823  12.453  10.678 -0.1088 -0.0853  0.2308
  470loPI   GL1 7509   1.905  12.198  10.385  0.2670 -0.3404 -0.0678
  470loPI   GL2 7510   1.825  11.871  10.229  0.1182 -0.0122 -0.1035
  470loPI   C1A 7511   1.897  12.419   9.983 -0.2968  0.1560  0.0104
  470loPI   C2A 7512   1.937  12.320   9.596  0.0781  0.1404  0.4511
  470loPI   C3A 7513   1.951  12.285   9.153  0.4453 -0.4359 -0.2883
  470loPI   C4A 7514   2.010  12.243   8.693  0.0859  0.3955  0.1387
  470loPI   C5A 7515   1.798  12.256   8.275  0.2094  0.0287  0.0642
  470loPI   C6A 7516   1.676  12.156   7.852  0.0442  0.2124 -0.1141
  470loPI   C1B 7517   1.687  11.946   9.872 -0.2512 -0.1400  0.0047
  470loPI   C2B 7518   1.726  11.876   9.421 -0.0809 -0.0330 -0.0753
  470loPI   C3B 7519   1.740  11.821   8.983 -0.0873  0.0876  0.0027
  470loPI   C4B 7520   1.821  11.808   8.519 -0.0220  0.0761  0.0972
  471loPI    C1 7521  12.750  10.273  11.309 -0.1908 -0.0759 -0.1754
  471loPI    C2 7522  12.841   9.886  11.356  0.0494 -0.0029 -0.0203
  471loPI    C3 7523  12.508  10.034  11.520 -0.0810 -0.1580 -0.1412
  471loPI   PO4 7524  12.728  10.323  10.976 -0.2207 -0.1783  0.0585
  471loPI   GL1 7525  12.932  10.590  10.678 -0.0811  0.1238 -0.1801
  471loPI   GL2 7526  13.122  10.288  10.675  0.1236 -0.0255  0.0507
  471loPI   C1A 7527  12.821  10.470  10.272  0.0277 -0.0543  0.1346
  471loPI   C2A 7528  12.803  10.471   9.809  0.1593 -0.0693  0.0247
  471loPI   C3A 7529  12.884  10.433   9.375  0.0160  0.0651  0.1618
  471loPI   C4A 7530  12.903  10.324   9.059 -0.1413  0.1057 -0.0332
  471loPI   C5A 7531  12.893  10.388   8.687  0.1306  0.2789 -0.1583
  471loPI   C6A 7532  12.688  10.724   8.516  0.1327 -0.0138  0.2148
  471loPI   C1B 7533  13.138  10.020  10.230 -0.1658  0.2149  0.0833
  471loPI   C2B 7534  13.185  10.028   9.696  0.4965  0.2352 -0.1353
  471loPI   C3B 7535  13.242   9.957   9.287  0.1106 -0.0154 -0.0625
  471loPI   C4B 7536  13.183   9.953   8.765 -0.0701  0.0333 -0.0598
  472loPI    C1 7537   0.108   7.368  11.279  0.2260  0.2127 -0.0127
  472loPI    C2 7538   0.194   7.017  11.452  0.0167  0.2302  0.1305
  472loPI    C3 7539   0.374   7.352  11.577  0.2089  0.1770  0.0008
  472loPI   PO4 7540   0.066   7.260  11.011 -0.2064 -0.2521  0.0532
  472loPI   GL1 7541   0.001   7.429  10.618  0.0738  0.1739  0.3122
  472loPI   GL2 7542   0.053   7.705  10.451 -0.0743 -0.1338  0.1084
  472loPI   C1A 7543  -0.045   7.351  10.156 -0.2574 -0.2543  0.2464
  472loPI   C2A 7544   0.067   7.319   9.724  0.0704 -0.2290 -0.2836
  472loPI   C3A 7545   0.076   7.285   9.265  0.4243  0.0102  0.4202
  472loPI   C4A 7546   0.184   7.338   8.733  0.2771  0.1497  0.2227
  472loPI   C5A 7547   0.297   7.208   8.415  0.1304  0.1238  0.3655
  472loPI   C6A 7548   0.629   7.322   8.179 -0.0346  0.1092 -0.3443
  472loPI   C1B 7549   0.219   7.752  10.001  0.1284 -0.0746 -0.1389
  472loPI   C2B 7550   0.330   7.704   9.577  0.3874  0.0667  0.0737
  472loPI   C3B 7551   0.369   7.695   9.105  0.1491 -0.1369 -0.1513
  472loPI   C4B 7552   0.400   7.752   8.662  0.0066 -0.0766 -0.1268
  473loPI    C1 7553  17.120   8.985  10.983  0.2157 -0.2627  0.1036
  473loPI    C2 7554  17.254   8.828  11.326  0.1758 -0.0282  0.2285
  473loPI    C3 7555  16.882   8.974  11.304  0.1133 -0.2113  0.0302
  473loPI   PO4 7556  17.313   9.166  10.812 -0.1253 -0.2095 -0.0603
  473loPI   GL1 7557  17.384   9.281  10.393  0.1659 -0.2655  0.2519
  473loPI   GL2 7558  17.520   9.604  10.337  0.0434 -0.1098 -0.0720
  473loPI   C1A 7559  17.194   9.075  10.077 -0.1500 -0.0532 -0.0388
  473loPI   C2A 7560  17.276   9.002   9.609  0.3642 -0.0100  0.1018
  473loPI   C3A 7561  17.306   9.041   9.174  0.1999  0.0782 -0.0114
  473loPI   C4A 7562  17.292   8.867   8.717 -0.1521  0.2911  0.1339
  473loPI   C5A 7563  17.513   8.649   8.546 -0.3093 -0.2865 -0.1491
  473loPI   C6A 7564  17.723   8.301   8.505 -0.3047  0.2140  0.2461
  473loPI   C1B 7565  17.546   9.388   9.929  0.3776 -0.0138 -0.0376
  473loPI   C2B 7566  17.471   9.402   9.471 -0.2680  0.1323  0.3261
  473loPI   C3B 7567  17.562   9.448   9.038 -0.0337  0.1320  0.3582
  473loPI   C4B 7568  17.832   9.352   8.611  0.2476 -0.0545  0.1425
  474loPI    C1 7569   7.487   8.375  11.468 -0.1584 -0.0248  0.0085
  474loPI    C2 7570   7.878   8.340  11.548 -0.1800 -0.2714  0.0127
  474loPI    C3 7571   7.681   8.671  11.655  0.0289 -0.1429  0.0040
  474loPI   PO4 7572   7.481   8.228  11.216  0.1702  0.0272  0.0842
  474loPI   GL1 7573   7.379   8.306  10.812  0.1757 -0.0794  0.2319
  474loPI   GL2 7574   7.495   8.545  10.713 -0.0862 -0.0021 -0.2169
  474loPI   C1A 7575   7.232   8.139  10.486  0.1183 -0.0268  0.1530
  474loPI   C2A 7576   7.235   8.130  10.036  0.1237  0.1235  0.0675
  474loPI   C3A 7577   7.331   8.123   9.663 -0.3777  0.1044 -0.1086
  474loPI   C4A 7578   7.275   8.031   9.256  0.0054 -0.1962 -0.1780
  474loPI   C5A 7579   7.364   8.016   8.866  0.2809  0.1267 -0.1455
  474loPI   C6A 7580   7.284   7.642   8.507  0.1514 -0.1957 -0.1923
  474loPI   C1B 7581   7.417   8.582  10.278 -0.0502  0.1327  0.1608
  474loPI   C2B 7582   7.450   8.542   9.897 -0.1013  0.0075  0.0055
  474loPI   C3B 7583   7.480   8.599   9.524 -0.1422 -0.1665  0.0514
  474loPI   C4B 7584   7.431   8.539   9.115 -0.1284  0.2928  0.1600
  475loPI    C1 7585  12.281   8.988  11.123 -0.1067  0.2533 -0.0834
  475loPI    C2 7586  12.483   9.093  11.452 -0.0217 -0.0758 -0.0275
  475loPI    C3 7587  12.101   9.203  11.409 -0.0628 -0.1120  0.2266
  475loPI   PO4 7588  12.549   8.994  10.885 -0.1465  0.1260 -0.0498
  475loPI   GL1 7589  12.736   8.774  10.454  0.1744 -0.5470 -0.1343
  475loPI   GL2 7590  12.782   8.440  10.468  0.0656 -0.3169 -0.1735
  475loPI   C1A 7591  12.801   8.995  10.118  0.1567 -0.3378 -0.0653
  475loPI   C2A 7592  12.712   8.985   9.588  0.1143 -0.1741 -0.0268
  475loPI   C3A 7593  12.721   9.033   9.177 -0.0541 -0.1695 -0.1626
  475loPI   C4A 7594  12.906   9.088   8.748  0.0909 -0.3232 -0.0945
  475loPI   C5A 7595  12.595   9.099   8.305  0.0174  0.1517  0.0494
  475loPI   C6A 7596  12.295   9.323   8.095  0.1823  0.1486  0.3378
  475loPI   C1B 7597  12.567   8.598  10.022  0.1564 -0.0875  0.2931
  475loPI   C2B 7598  12.475   8.565   9.535 -0.5502 -0.2457 -0.0160
  475loPI   C3B 7599  12.570   8.601   9.062  0.1849  0.1771 -0.3109
  475loPI   C4B 7600  12.609   8.686   8.676 -0.0015 -0.0301  0.2115
  476loPI    C1 7601   4.156  17.797  10.532  0.0389 -0.1466  0.1210
  476loPI    C2 7602   4.410  17.909  10.820 -0.1312  0.1034  0.1771
  476loPI    C3 7603   4.036  17.805  10.914 -0.1453  0.0469  0.0606
  476loPI   PO4 7604   4.233  17.937  10.345 -0.1110  0.0392 -0.2070
  476loPI   GL1 7605   4.144  18.331  10.123  0.1168  0.0336 -0.0795
  476loPI   GL2 7606   4.468  18.253   9.981  0.0049 -0.1147 -0.1826
  476loPI   C1A 7607   3.998  18.300   9.672 -0.1060  0.1631 -0.2606
  476loPI   C2A 7608   3.820  18.341   9.216 -0.2610  0.3303 -0.0023
  476loPI   C3A 7609   3.810  18.370   8.737 -0.1488 -0.0837  0.0135
  476loPI   C4A 7610   3.788  18.308   8.265  0.1091 -0.1374 -0.2347
  476loPI   C5A 7611   3.621  18.004   8.039 -0.0302 -0.2700  0.1836
  476loPI   C6A 7612   3.617  17.570   7.834  0.0883 -0.0238 -0.2385
  476loPI   C1B 7613   4.459  18.382   9.578 -0.0586  0.0573  0.1243
  476loPI   C2B 7614   4.294  18.482   9.176  0.1964 -0.1763 -0.0055
  476loPI   C3B 7615   4.383  18.382   8.808  0.0630 -0.1085 -0.0982
  476loPI   C4B 7616   4.287  18.434   8.396 -0.2068 -0.0128 -0.3169
  477loPI    C1 7617  13.385  11.594  11.014 -0.1810 -0.1391 -0.2383
  477loPI    C2 7618  13.332  11.592  11.411 -0.1550 -0.2346 -0.2350
  477loPI    C3 7619  13.520  11.899  11.235 -0.0894 -0.2333 -0.1630
  477loPI   PO4 7620  13.137  11.538  10.970  0.1451 -0.0340 -0.0086
  477loPI   GL1 7621  13.058  11.801  10.641 -0.0460  0.2468  0.1939
  477loPI   GL2 7622  13.476  11.950  10.591  0.1539 -0.1361 -0.1583
  477loPI   C1A 7623  12.952  11.749  10.258  0.2091 -0.2551  0.0182
  477loPI   C2A 7624  12.927  11.827   9.898 -0.2529  0.4585  0.0591
  477loPI   C3A 7625  12.972  11.741   9.397 -0.0146  0.1795  0.3110
  477loPI   C4A 7626  13.117  11.699   8.938 -0.0497  0.0717 -0.1243
  477loPI   C5A 7627  13.207  11.766   8.526  0.0739 -0.1922 -0.0473
  477loPI   C6A 7628  13.116  12.046   8.231  0.2747 -0.2492 -0.1000
  477loPI   C1B 7629  13.463  11.846  10.127 -0.1100  0.0363  0.1161
  477loPI   C2B 7630  13.403  11.800   9.681 -0.3467 -0.0116 -0.1976
  477loPI   C3B 7631  13.460  11.796   9.279 -0.3073  0.5607  0.0866
  477loPI   C4B 7632  13.669  11.742   8.937  0.0629  0.1121  0.0650
  478loPI    C1 7633   7.228   2.860  11.384  0.1167  0.0916  0.1250
  478loPI    C2 7634   7.388   2.545  11.571  0.0170  0.0306  0.1078
  478loPI    C3 7635   7.352   2.894  11.763  0.2609  0.0725  0.0804
  478loPI   PO4 7636   7.338   2.808  11.160  0.2447  0.0037 -0.1553
  478loPI   GL1 7637   7.255   2.867  10.691  0.2159 -0.1601 -0.0338
  478loPI   GL2 7638   7.584   2.927  10.735  0.1586  0.0349  0.1771
  478loPI   C1A 7639   7.178   2.479  10.468 -0.0319 -0.0766 -0.1300
  478loPI   C2A 7640   7.177   2.607   9.980 -0.3097 -0.5285 -0.1460
  478loPI   C3A 7641   7.260   2.560   9.627  0.1269  0.1531 -0.1552
  478loPI   C4A 7642   7.337   2.666   9.310 -0.0870  0.1239  0.1037
  478loPI   C5A 7643   7.274   2.768   8.790  0.0961 -0.0323 -0.2732
  478loPI   C6A 7644   6.837   2.812   8.513 -0.2975  0.0071 -0.1794
  478loPI   C1B 7645   7.464   3.085  10.287  0.0424  0.2011 -0.3242
  478loPI   C2B 7646   7.503   3.114   9.869 -0.0700 -0.2092  0.0352
  478loPI   C3B 7647   7.481   3.144   9.411 -0.2576 -0.0246  0.0939
  478loPI   C4B 7648   7.506   3.132   9.042  0.2846 -0.0377  0.0480
  479loPI    C1 7649  14.410  16.118  11.163  0.1887  0.1209  0.0932
  479loPI    C2 7650  14.786  16.004  11.238  0.1474  0.0295  0.1642
  479loPI    C3 7651  14.556  16.142  11.535  0.1136  0.0525  0.1275
  479loPI   PO4 7652  14.293  15.929  11.057 -0.2971 -0.0337 -0.2044
  479loPI   GL1 7653  14.217  15.763  10.591  0.1295  0.1060 -0.2414
  479loPI   GL2 7654  14.454  15.588  10.608  0.0367  0.0649 -0.0376
  479loPI   C1A 7655  14.164  15.767  10.137 -0.1752  0.1096  0.0364
  479loPI   C2A 7656  13.981  15.886   9.697 -0.2410  0.1039 -0.2598
  479loPI   C3A 7657  14.068  15.787   9.315 -0.0552  0.1265  0.0855
  479loPI   C4A 7658  13.943  15.879   8.978  0.1655 -0.0333  0.0539
  479loPI   C5A 7659  14.033  15.770   8.601  0.1748  0.0622  0.1187
  479loPI   C6A 7660  13.892  15.582   8.262 -0.3135  0.4871 -0.3567
  479loPI   C1B 7661  14.446  15.354  10.242 -0.1394  0.1829  0.0120
  479loPI   C2B 7662  14.339  15.366   9.806 -0.0296  0.0618 -0.2970
  479loPI   C3B 7663  14.387  15.390   9.378  0.0370 -0.1863 -0.0639
  479loPI   C4B 7664  14.252  15.465   8.912 -0.0773  0.1594  0.0159
  480loPI    C1 7665   0.678   7.545  11.250 -0.0209 -0.1056  0.1763
  480loPI    C2 7666   0.941   7.557  11.552  0.0442 -0.1331  0.1207
  480loPI    C3 7667   0.634   7.813  11.544  0.1660  0.0141  0.0976
  480loPI   PO4 7668   0.855   7.421  11.060 -0.4250 -0.4542  0.1041
  480loPI   GL1 7669   0.859   7.307  10.623 -0.1901 -0.0321  0.0825
  480loPI   GL2 7670   1.158   7.375  10.432  0.3870  0.2625 -0.3545
  480loPI   C1A 7671   0.790   7.038  10.309  0.1220  0.1334  0.3998
  480loPI   C2A 7672   0.835   6.887   9.880 -0.0971  0.1630 -0.2221
  480loPI   C3A 7673   0.948   6.913   9.410  0.4052  0.1322 -0.0884
  480loPI   C4A 7674   1.024   6.924   8.931  0.0717  0.1389  0.3336
  480loPI   C5A 7675   1.095   6.725   8.576  0.1662 -0.4017  0.2019
  480loPI   C6A 7676   1.195   6.486   8.218 -0.1018  0.3566  0.2050
  480loPI   C1B 7677   1.038   7.339   9.999  0.1006  0.1404  0.0118
  480loPI   C2B 7678   1.083   7.405   9.601  0.1644  0.1671  0.2135
  480loPI   C3B 7679   1.159   7.377   9.146 -0.0932 -0.0356 -0.1259
  480loPI   C4B 7680   1.286   7.285   8.726  0.1021  0.1062  0.0067
  481loPI    C1 7681   1.023  17.538  11.269  0.2993  0.0353 -0.1378
  481loPI    C2 7682   0.890  17.898  11.380 -0.0213 -0.1185 -0.0097
  481loPI    C3 7683   1.273  17.799  11.441  0.0718  0.2015 -0.0543
  481loPI   PO4 7684   0.946  17.564  10.985  0.0302 -0.0119  0.0175
  481loPI   GL1 7685   1.151  17.454  10.575  0.0634 -0.0864 -0.1116
  481loPI   GL2 7686   1.266  17.183  10.402  0.1526 -0.1511 -0.2544
  481loPI   C1A 7687   0.937  17.708  10.258  0.1249 -0.1066  0.0875
  481loPI   C2A 7688   0.808  17.682   9.807  0.0105  0.1295 -0.1064
  481loPI   C3A 7689   0.844  17.602   9.295  0.2975 -0.1061 -0.1153
  481loPI   C4A 7690   0.762  17.699   8.982 -0.1758  0.0609  0.2050
  481loPI   C5A 7691   0.942  17.643   8.629  0.2688  0.0780  0.3530
  481loPI   C6A 7692   0.794  17.344   8.343 -0.1150 -0.0073 -0.1316
  481loPI   C1B 7693   1.324  17.075   9.994 -0.1393 -0.2354 -0.1193
  481loPI   C2B 7694   1.363  17.081   9.517 -0.1632 -0.0271  0.2428
  481loPI   C3B 7695   1.308  17.160   9.198  0.0988  0.1840 -0.3244
  481loPI   C4B 7696   1.202  17.132   8.767 -0.0249  0.0902  0.0381
  482loPI    C1 7697  10.874  11.800  11.039 -0.0112 -0.0871 -0.1522
  482loPI    C2 7698  11.092  11.628  11.327 -0.0335 -0.1130 -0.1507
  482loPI    C3 7699  10.710  11.725  11.397 -0.0659 -0.2033 -0.2010
  482loPI   PO4 7700  10.823  11.774  10.836  0.2351 -0.1291  0.4257
  482loPI   GL1 7701  10.512  11.666  10.454 -0.0990  0.0012  0.0076
  482loPI   GL2 7702  10.623  11.944  10.241  0.0175 -0.2970  0.1306
  482loPI   C1A 7703  10.360  11.549  10.052 -0.3136 -0.0884 -0.1659
  482loPI   C2A 7704  10.447  11.504   9.533  0.1432 -0.0993 -0.0145
  482loPI   C3A 7705  10.458  11.511   9.089 -0.2643  0.1060 -0.1075
  482loPI   C4A 7706  10.374  11.572   8.692 -0.2212 -0.2501 -0.1362
  482loPI   C5A 7707  10.131  11.455   8.329  0.0407  0.1301  0.1413
  482loPI   C6A 7708   9.767  11.612   8.085 -0.1780  0.1221  0.1073
  482loPI   C1B 7709  10.666  11.933   9.735  0.3500  0.1331 -0.0408
  482loPI   C2B 7710  10.662  11.998   9.308 -0.2942 -0.2809 -0.3371
  482loPI   C3B 7711  10.780  11.976   8.893  0.1667  0.0034  0.0085
  482loPI   C4B 7712  10.761  11.824   8.442 -0.0470 -0.1917 -0.0572
  483loPI    C1 7713   4.107   2.042  11.168  0.3412 -0.2342 -0.0634
  483loPI    C2 7714   3.773   1.891  11.329  0.0683  0.0632 -0.3342
  483loPI    C3 7715   4.130   1.743  11.431 -0.1451 -0.2722 -0.0541
  483loPI   PO4 7716   4.141   2.010  10.925  0.0072  0.0932  0.1843
  483loPI   GL1 7717   3.988   2.140  10.475  0.0444 -0.1083  0.2245
  483loPI   GL2 7718   4.010   2.277  10.294 -0.1433 -0.1776 -0.0310
  483loPI   C1A 7719   3.855   1.883  10.048  0.1753 -0.0343  0.0598
  483loPI   C2A 7720   3.893   1.858   9.568  0.0748 -0.1319  0.0895
  483loPI   C3A 7721   3.981   1.873   9.222  0.0550 -0.2431  0.3548
  483loPI   C4A 7722   4.115   1.867   8.686 -0.0367 -0.1916 -0.1485
  483loPI   C5A 7723   4.257   1.936   8.246  0.1218  0.1023  0.0184
  483loPI   C6A 7724   4.582   1.903   7.819  0.0184  0.0878  0.0319
  483loPI   C1B 7725   4.094   2.320   9.821 -0.0561 -0.0076  0.2134
  483loPI   C2B 7726   4.240   2.245   9.450 -0.4164  0.2327 -0.1901
  483loPI   C3B 7727   4.274   2.300   9.029 -0.0512  0.2599 -0.0394
  483loPI   C4B 7728   4.343   2.340   8.524  0.1455  0.1004  0.0075
  484loPI    C1 7729  13.668  16.554  11.002  0.0574 -0.0636  0.0230
  484loPI    C2 7730  13.270  16.588  11.020  0.0576 -0.0868  0.0745
  484loPI    C3 7731  13.497  16.760  11.300  0.0763 -0.2027  0.1307
  484loPI   PO4 7732  13.746  16.715  10.734  0.0603  0.1473  0.0090
  484loPI   GL1 7733  14.069  16.587  10.376 -0.1040 -0.1354 -0.1322
  484loPI   GL2 7734  14.406  16.736  10.259  0.1466  0.3738  0.2881
  484loPI   C1A 7735  13.860  16.663   9.912  0.0163 -0.0270 -0.1201
  484loPI   C2A 7736  13.925  16.806   9.549 -0.0614  0.1927  0.0187
  484loPI   C3A 7737  14.026  16.674   9.158  0.4376 -0.0838 -0.0673
  484loPI   C4A 7738  13.977  16.721   8.769  0.1326  0.2124 -0.1607
  484loPI   C5A 7739  13.923  16.550   8.336 -0.0382 -0.1526  0.0511
  484loPI   C6A 7740  13.661  16.472   7.959 -0.2409  0.1389 -0.0752
  484loPI   C1B 7741  14.473  16.697   9.823 -0.4182 -0.1368  0.1245
  484loPI   C2B 7742  14.481  16.751   9.403 -0.2978  0.0430  0.0965
  484loPI   C3B 7743  14.440  16.802   8.953 -0.1921 -0.1690  0.3659
  484loPI   C4B 7744  14.426  16.850   8.481 -0.0870 -0.1661 -0.1479
  485loPI    C1 7745  16.344  16.532  11.025  0.0133  0.0780  0.1639
  485loPI    C2 7746  16.216  16.900  11.116 -0.0161  0.0646  0.1764
  485loPI    C3 7747  16.008  16.580  11.237 -0.1386  0.0499 -0.0670
  485loPI   PO4 7748  16.388  16.332  10.780 -0.1594  0.1733 -0.3612
  485loPI   GL1 7749  16.317  16.219  10.365 -0.0243  0.1273  0.0219
  485loPI   GL2 7750  16.444  16.524  10.347 -0.0114  0.1751 -0.2613
  485loPI   C1A 7751  16.092  16.113   9.998 -0.0830 -0.0126  0.1193
  485loPI   C2A 7752  16.060  15.995   9.553  0.1194  0.0791  0.2134
  485loPI   C3A 7753  16.060  15.997   9.184  0.2656 -0.1701  0.0177
  485loPI   C4A 7754  16.008  15.984   8.793  0.0673  0.1743  0.2926
  485loPI   C5A 7755  16.092  16.017   8.334  0.1458  0.2793 -0.1099
  485loPI   C6A 7756  16.127  16.465   8.100 -0.0754  0.0149  0.0064
  485loPI   C1B 7757  16.197  16.560  10.025  0.0302 -0.1352 -0.0385
  485loPI   C2B 7758  16.248  16.450   9.621 -0.1349  0.3262  0.1356
  485loPI   C3B 7759  16.287  16.481   9.153 -0.0013 -0.0275 -0.0229
  485loPI   C4B 7760  16.270  16.374   8.682 -0.1331  0.2920  0.5154
  486loPI    C1 7761  15.800   6.038  11.021 -0.1798 -0.1951  0.0204
  486loPI    C2 7762  15.668   5.719  11.223 -0.2758 -0.2107 -0.0663
  486loPI    C3 7763  15.557   6.087  11.335 -0.1342 -0.2048  0.0575
  486loPI   PO4 7764  15.841   5.897  10.789  0.1257 -0.0073  0.3411
  486loPI   GL1 7765  15.620   5.673  10.501 -0.2470  0.0498  0.2952
  486loPI   GL2 7766  15.254   5.769  10.411 -0.4474 -0.2603  0.2733
  486loPI   C1A 7767  15.702   5.670  10.133  0.1732 -0.0071  0.1707
  486loPI   C2A 7768  15.741   5.721   9.715 -0.3401  0.2871  0.3689
  486loPI   C3A 7769  15.801   5.714   9.237  0.1801  0.0509  0.1005
  486loPI   C4A 7770  15.734   5.680   8.790 -0.0113 -0.0637  0.2622
  486loPI   C5A 7771  15.638   5.713   8.369 -0.1102  0.0290  0.2891
  486loPI   C6A 7772  15.768   5.403   8.110  0.1970  0.0522  0.0157
  486loPI   C1B 7773  15.208   5.722   9.992  0.2053 -0.1631 -0.4495
  486loPI   C2B 7774  15.245   5.737   9.533 -0.0376  0.2790  0.3434
  486loPI   C3B 7775  15.240   5.642   9.104  0.1277  0.0726  0.0561
  486loPI   C4B 7776  15.097   5.660   8.675  0.2376  0.4145  0.3667
  487loPI    C1 7777   2.315  16.850  11.007 -0.1173  0.1203 -0.0254
  487loPI    C2 7778   2.591  17.122  11.106  0.1339 -0.0585 -0.2214
  487loPI    C3 7779   2.339  16.983  11.384  0.1384  0.2193 -0.0746
  487loPI   PO4 7780   2.183  16.899  10.790 -0.2342 -0.0613  0.0341
  487loPI   GL1 7781   2.176  16.741  10.425  0.1835 -0.0428 -0.0639
  487loPI   GL2 7782   2.551  16.798  10.471  0.4561  0.1979  0.0975
  487loPI   C1A 7783   2.167  16.759  10.001  0.1675  0.0462  0.2094
  487loPI   C2A 7784   2.107  16.764   9.645  0.2069  0.0814 -0.2853
  487loPI   C3A 7785   1.996  16.757   9.178 -0.2257  0.1943  0.1589
  487loPI   C4A 7786   2.063  16.872   8.735 -0.0981 -0.1184 -0.0492
  487loPI   C5A 7787   2.234  17.156   8.554  0.2293  0.1012 -0.1704
  487loPI   C6A 7788   2.278  17.325   8.183  0.1814  0.0884 -0.3283
  487loPI   C1B 7789   2.599  16.412  10.183 -0.2685  0.0988  0.0248
  487loPI   C2B 7790   2.412  16.335   9.749 -0.1384  0.2513  0.3323
  487loPI   C3B 7791   2.389  16.437   9.406 -0.1140  0.1659  0.0248
  487loPI   C4B 7792   2.363  16.432   8.976  0.1881  0.0205  0.0592
  488loPI    C1 7793   9.784   9.298  11.254  0.1289 -0.1607  0.0339
  488loPI    C2 7794   9.684   9.018  10.986 -0.2095 -0.2620  0.2595
  488loPI    C3 7795   9.908   8.921  11.303  0.2732 -0.1221 -0.0279
  488loPI   PO4 7796   9.722   9.559  11.013  0.0116 -0.1607 -0.0149
  488loPI   GL1 7797   9.782   9.551  10.630  0.3414  0.0231  0.0061
  488loPI   GL2 7798  10.038   9.698  10.542  0.1290 -0.0292 -0.1260
  488loPI   C1A 7799   9.489   9.596  10.329 -0.0183  0.1948  0.1782
  488loPI   C2A 7800   9.440   9.671   9.896  0.1640 -0.2827 -0.2499
  488loPI   C3A 7801   9.634   9.606   9.517 -0.0877  0.3497  0.0403
  488loPI   C4A 7802   9.590   9.632   9.059 -0.0946 -0.0808  0.0062
  488loPI   C5A 7803   9.289   9.416   8.709 -0.1937 -0.0872  0.1323
  488loPI   C6A 7804   9.154   9.070   8.426  0.1797  0.0597  0.1089
  488loPI   C1B 7805   9.987   9.678  10.057 -0.0948 -0.3334  0.1762
  488loPI   C2B 7806  10.104   9.633   9.607  0.0046 -0.2251 -0.0033
  488loPI   C3B 7807  10.126   9.663   9.188  0.3819 -0.0925 -0.0673
  488loPI   C4B 7808  10.085   9.656   8.806 -0.0832 -0.0409  0.0080
  489loPI    C1 7809   2.342  10.366  11.390 -0.0856 -0.0857  0.0483
  489loPI    C2 7810   2.701  10.530  11.454 -0.0727 -0.0036 -0.2205
  489loPI    C3 7811   2.544  10.280  11.724  0.1085  0.0956 -0.0203
  489loPI   PO4 7812   2.323  10.257  11.181 -0.1261  0.1888  0.1410
  489loPI   GL1 7813   2.382  10.160  10.787  0.1119 -0.1145  0.1057
  489loPI   GL2 7814   2.155  10.140  10.724 -0.0979  0.3339  0.1142
  489loPI   C1A 7815   2.383  10.218  10.326 -0.1832  0.0547 -0.2341
  489loPI   C2A 7816   2.411  10.270   9.945 -0.0486 -0.1653 -0.0106
  489loPI   C3A 7817   2.493  10.202   9.554  0.2099  0.2084 -0.1090
  489loPI   C4A 7818   2.421  10.207   9.146  0.0140  0.1612  0.1267
  489loPI   C5A 7819   2.376  10.068   8.782 -0.0338  0.0876  0.1581
  489loPI   C6A 7820   2.099  10.042   8.584 -0.0179 -0.1321  0.0784
  489loPI   C1B 7821   1.893  10.155  10.332  0.2550  0.1287  0.0360
  489loPI   C2B 7822   1.888  10.165   9.787  0.0911 -0.1567 -0.1396
  489loPI   C3B 7823   1.970  10.162   9.408 -0.0989  0.0401  0.0366
  489loPI   C4B 7824   1.947  10.115   9.087  0.3175  0.0644  0.1619
  490loPI    C1 7825   5.592   6.777  11.785 -0.0785 -0.1135  0.0085
  490loPI    C2 7826   5.272   7.000  11.699  0.0175 -0.0270 -0.1285
  490loPI    C3 7827   5.597   7.170  11.859 -0.0022 -0.1136  0.0050
  490loPI   PO4 7828   5.588   6.537  11.553 -0.0320  0.3268 -0.1012
  490loPI   GL1 7829   5.447   6.229  11.246 -0.4515 -0.4943  0.0670
  490loPI   GL2 7830   5.373   6.130  10.894 -0.2028 -0.0474  0.0687
  490loPI   C1A 7831   5.587   6.536  10.880 -0.0487  0.0830  0.0807
  490loPI   C2A 7832   5.617   6.542  10.417 -0.0508 -0.1632 -0.2236
  490loPI   C3A 7833   5.663   6.551   9.982 -0.0238  0.2598 -0.0034
  490loPI   C4A 7834   5.670   6.570   9.637 -0.0254 -0.0243 -0.1300
  490loPI   C5A 7835   5.708   6.573   9.247 -0.2225 -0.1107  0.2402
  490loPI   C6A 7836   5.434   6.517   8.763 -0.0742 -0.3234  0.0206
  490loPI   C1B 7837   5.425   5.979  10.450 -0.2644 -0.1668  0.1706
  490loPI   C2B 7838   5.533   6.095  10.031 -0.0266  0.3358  0.1296
  490loPI   C3B 7839   5.463   6.117   9.564 -0.1066 -0.0353 -0.2214
  490loPI   C4B 7840   5.457   6.104   9.099 -0.0900  0.1953  0.0242
  491loPI    C1 7841   1.164   8.231  10.960  0.2376 -0.1873 -0.0219
  491loPI    C2 7842   1.073   7.927  11.203  0.1731 -0.0108  0.1777
  491loPI    C3 7843   1.316   8.218  11.330  0.0499  0.1398  0.0703
  491loPI   PO4 7844   0.928   8.297  10.875  0.2426 -0.1688 -0.3311
  491loPI   GL1 7845   0.512   8.337  10.718 -0.0790 -0.1270  0.0680
  491loPI   GL2 7846   0.419   8.065  10.564  0.3852  0.2872  0.1799
  491loPI   C1A 7847   0.751   8.610  10.370  0.1847 -0.0322  0.0055
  491loPI   C2A 7848   0.737   8.649   9.898 -0.0352  0.2106 -0.2790
  491loPI   C3A 7849   0.728   8.685   9.472 -0.0074 -0.0793  0.2352
  491loPI   C4A 7850   0.661   8.660   9.044 -0.1459  0.2846 -0.2435
  491loPI   C5A 7851   0.618   8.585   8.591  0.0209 -0.1581 -0.0016
  491loPI   C6A 7852   0.365   8.200   8.379  0.2439 -0.1978 -0.0226
  491loPI   C1B 7853   0.536   8.187  10.136 -0.1655 -0.1018  0.3807
  491loPI   C2B 7854   0.581   8.152   9.735  0.3400 -0.0027 -0.0945
  491loPI   C3B 7855   0.531   8.224   9.192  0.0201 -0.1299 -0.4638
  491loPI   C4B 7856   0.603   8.155   8.859  0.0876 -0.2740 -0.0248
  492loPI    C1 7857  17.711  12.499  10.925 -0.0879  0.0129 -0.1709
  492loPI    C2 7858  17.968  12.804  10.954  0.0250 -0.0928 -0.0429
  492loPI    C3 7859  17.624  12.850  10.755 -0.0111  0.1522  0.0724
  492loPI   PO4 7860  17.886  12.329  10.905 -0.0946 -0.0646 -0.1432
  492loPI   GL1 7861  17.928  12.052  10.610 -0.0102 -0.3223  0.1510
  492loPI   GL2 7862  17.656  12.014  10.534  0.1638  0.0366  0.1263
  492loPI   C1A 7863  18.276  12.120  10.330 -0.4165  0.1859  0.0931
  492loPI   C2A 7864  18.306  12.204   9.927 -0.0116 -0.1351 -0.2634
  492loPI   C3A 7865  18.232  12.187   9.447 -0.0864 -0.0278  0.1540
  492loPI   C4A 7866  18.300  12.244   8.977 -0.0549 -0.3192 -0.0370
  492loPI   C5A 7867  18.278  12.094   8.613 -0.0251 -0.0261 -0.2177
  492loPI   C6A 7868  18.161  12.319   8.274  0.0301 -0.0342 -0.1500
  492loPI   C1B 7869  17.725  12.178  10.120  0.2412  0.1211  0.1576
  492loPI   C2B 7870  17.706  12.078   9.699 -0.2337 -0.0768  0.1598
  492loPI   C3B 7871  17.805  12.137   9.225  0.1769 -0.0951 -0.1213
  492loPI   C4B 7872  17.783  12.154   8.726  0.2140 -0.0923  0.2002
  493loPI    C1 7873  13.460   5.871  11.217  0.3201  0.0426  0.0590
  493loPI    C2 7874  13.182   5.588  11.268  0.0431  0.2983 -0.0057
  493loPI    C3 7875  13.542   5.547  11.437 -0.0700  0.0170  0.1735
  493loPI   PO4 7876  13.399   5.848  10.896 -0.0324  0.0179  0.1253
  493loPI   GL1 7877  13.586   6.179  10.662  0.1125 -0.2564  0.2427
  493loPI   GL2 7878  13.505   6.514  10.528 -0.0339 -0.1004 -0.2235
  493loPI   C1A 7879  13.259   6.089  10.280 -0.2344 -0.0572 -0.0508
  493loPI   C2A 7880  13.260   5.975   9.959  0.1254 -0.0390  0.0646
  493loPI   C3A 7881  13.223   5.904   9.556 -0.2639  0.0433  0.0451
  493loPI   C4A 7882  13.228   5.993   9.098  0.0046  0.3431 -0.1625
  493loPI   C5A 7883  13.268   6.082   8.607  0.2657  0.1777 -0.0861
  493loPI   C6A 7884  13.503   6.055   8.188 -0.0828  0.0010 -0.0765
  493loPI   C1B 7885  13.536   6.499  10.077 -0.5840  0.0639 -0.0628
  493loPI   C2B 7886  13.467   6.395   9.609 -0.1326 -0.1689  0.1738
  493loPI   C3B 7887  13.578   6.413   9.165 -0.1377  0.1377 -0.1773
  493loPI   C4B 7888  13.439   6.515   8.798  0.0815  0.1551 -0.0516
  494loPI    C1 7889   9.249  10.223  10.940 -0.1915 -0.2065 -0.2343
  494loPI    C2 7890   9.359   9.893  10.742  0.1152 -0.1849 -0.1044
  494loPI    C3 7891   9.354   9.894  11.142  0.3112  0.0273 -0.1001
  494loPI   PO4 7892   9.390  10.418  10.776  0.0500 -0.0865 -0.0681
  494loPI   GL1 7893   9.615  10.340  10.483  0.2410  0.2041  0.0142
  494loPI   GL2 7894   9.660  10.012  10.281  0.0638  0.2060  0.0692
  494loPI   C1A 7895   9.538  10.552  10.118 -0.1468 -0.1453 -0.2502
  494loPI   C2A 7896   9.566  10.496   9.620 -0.1177  0.1028  0.0115
  494loPI   C3A 7897   9.560  10.476   9.197  0.1033  0.1351 -0.0585
  494loPI   C4A 7898   9.463  10.388   8.821  0.1277 -0.1784  0.0035
  494loPI   C5A 7899   9.629  10.494   8.418  0.1386  0.0545  0.0619
  494loPI   C6A 7900   9.847  10.360   8.126 -0.3222  0.0057 -0.1993
  494loPI   C1B 7901   9.762  10.061   9.860 -0.0954  0.1506  0.0175
  494loPI   C2B 7902   9.806  10.049   9.441  0.1089  0.1041 -0.2831
  494loPI   C3B 7903   9.889  10.127   9.030  0.0707 -0.1987 -0.0681
  494loPI   C4B 7904   9.842  10.093   8.589  0.2884 -0.3065  0.1669
  495loPI    C1 7905   3.348  12.908  10.963  0.0915 -0.1329 -0.0826
  495loPI    C2 7906   3.357  12.666  11.282 -0.0335 -0.3753 -0.2595
  495loPI    C3 7907   3.087  12.960  11.262  0.1211 -0.2157 -0.0418
  495loPI   PO4 7908   3.279  12.758  10.675 -0.0618 -0.0729 -0.5983
  495loPI   GL1 7909   3.105  12.766  10.254 -0.1199 -0.1342  0.0068
  495loPI   GL2 7910   2.855  12.604  10.092  0.2490 -0.3331  0.2044
  495loPI   C1A 7911   3.359  12.636   9.879  0.2400  0.4542  0.1422
  495loPI   C2A 7912   3.449  12.632   9.426  0.1278  0.2408  0.1318
  495loPI   C3A 7913   3.470  12.603   8.964  0.1657 -0.1258 -0.4034
  495loPI   C4A 7914   3.507  12.620   8.560 -0.0734  0.1279  0.1053
  495loPI   C5A 7915   3.462  12.468   8.235  0.1121  0.4743 -0.0836
  495loPI   C6A 7916   3.491  12.568   7.837  0.0434  0.1597  0.2051
  495loPI   C1B 7917   2.865  12.534   9.682  0.1894  0.0725 -0.0215
  495loPI   C2B 7918   2.884  12.532   9.171  0.1022 -0.0941 -0.1908
  495loPI   C3B 7919   2.940  12.365   8.853 -0.2877 -0.0120  0.2525
  495loPI   C4B 7920   3.014  12.467   8.419 -0.2521  0.1607  0.0796
  496loPI    C1 7921   3.867   8.470  11.193  0.0115  0.1579  0.1452
  496loPI    C2 7922   4.008   8.296  11.525  0.0139  0.0675  0.0970
  496loPI    C3 7923   3.646   8.467  11.526 -0.0411 -0.0479  0.1097
  496loPI   PO4 7924   4.011   8.332  10.971 -0.0129 -0.0604 -0.0853
  496loPI   GL1 7925   3.884   8.261  10.551 -0.1875 -0.1527  0.2190
  496loPI   GL2 7926   3.493   8.267  10.578  0.2799  0.1733  0.1946
  496loPI   C1A 7927   3.872   8.179  10.101  0.0017  0.2213  0.0702
  496loPI   C2A 7928   3.864   8.221   9.700 -0.0650  0.0279 -0.2751
  496loPI   C3A 7929   3.880   8.063   9.302  0.1258  0.1072 -0.3456
  496loPI   C4A 7930   3.988   8.039   8.900 -0.2032 -0.0710  0.1251
  496loPI   C5A 7931   4.144   7.925   8.463  0.2332 -0.2461  0.4012
  496loPI   C6A 7932   4.044   7.701   8.179 -0.0557 -0.1859 -0.1375
  496loPI   C1B 7933   3.414   8.109  10.217 -0.0897 -0.0605  0.0716
  496loPI   C2B 7934   3.352   8.163   9.814 -0.0292 -0.1207  0.1620
  496loPI   C3B 7935   3.374   8.061   9.386 -0.0456 -0.0149 -0.0751
  496loPI   C4B 7936   3.494   7.995   8.942 -0.3104  0.0892  0.1693
  497loPI    C1 7937  10.272   8.732  10.964  0.0504 -0.1612 -0.1876
  497loPI    C2 7938  10.576   8.509  10.830  0.3201  0.1415 -0.0923
  497loPI    C3 7939  10.470   8.492  11.215  0.1027 -0.0897 -0.1601
  497loPI   PO4 7940  10.123   8.696  10.769  0.0622  0.1844  0.1764
  497loPI   GL1 7941  10.299   8.578  10.397 -0.2487 -0.3627 -0.0106
  497loPI   GL2 7942  10.459   8.330  10.347 -0.2501 -0.0079  0.4770
  497loPI   C1A 7943  10.133   8.800  10.067 -0.2052 -0.1302  0.1122
  497loPI   C2A 7944  10.178   8.750   9.655 -0.0819  0.1021 -0.0398
  497loPI   C3A 7945  10.206   8.775   9.158 -0.2772  0.0421 -0.1262
  497loPI   C4A 7946  10.083   8.797   8.806  0.0094  0.0361  0.1375
  497loPI   C5A 7947  10.197   8.694   8.349 -0.2085  0.0455 -0.2935
  497loPI   C6A 7948  10.568   8.905   8.160  0.2601 -0.0255 -0.1456
  497loPI   C1B 7949  10.459   8.436   9.890 -0.2916  0.1292 -0.0461
  497loPI   C2B 7950  10.453   8.335   9.493 -0.1050  0.2366  0.0859
  497loPI   C3B 7951  10.491   8.343   9.004 -0.2373  0.2302  0.0674
  497loPI   C4B 7952  10.272   8.245   8.603  0.0173  0.0802 -0.1135
  498loPI    C1 7953  11.206   2.350  11.256 -0.0103 -0.0972  0.0923
  498loPI    C2 7954  11.108   2.087  11.541 -0.0277 -0.0606  0.1202
  498loPI    C3 7955  11.133   2.476  11.629 -0.0151 -0.0514  0.0759
  498loPI   PO4 7956  11.090   2.319  11.016 -0.3984 -0.0276  0.0471
  498loPI   GL1 7957  11.208   2.375  10.641  0.3638 -0.0670 -0.0231
  498loPI   GL2 7958  11.173   2.696  10.504  0.2397 -0.0300  0.0294
  498loPI   C1A 7959  11.435   2.255  10.167  0.0697  0.0311 -0.0124
  498loPI   C2A 7960  11.456   2.180   9.775  0.3612 -0.2535 -0.2483
  498loPI   C3A 7961  11.473   2.280   9.337  0.0393 -0.1594 -0.1040
  498loPI   C4A 7962  11.701   2.305   8.854  0.4663 -0.1270  0.2070
  498loPI   C5A 7963  12.090   2.237   8.533 -0.0086 -0.0833  0.1375
  498loPI   C6A 7964  12.241   2.082   8.162  0.0477 -0.2128  0.0262
  498loPI   C1B 7965  11.117   2.692  10.065 -0.1183  0.0042 -0.1859
  498loPI   C2B 7966  11.088   2.585   9.609 -0.0299 -0.0604  0.1339
  498loPI   C3B 7967  11.198   2.672   9.218 -0.2051 -0.1346  0.1691
  498loPI   C4B 7968  11.269   2.573   8.839  0.2168 -0.0548 -0.0090
  499loPI    C1 7969   8.009  11.535  10.922 -0.0445  0.1200 -0.0055
  499loPI    C2 7970   8.248  11.377  11.200 -0.0293 -0.2470 -0.2202
  499loPI    C3 7971   7.871  11.473  11.292  0.0732 -0.0538  0.0103
  499loPI   PO4 7972   8.166  11.646  10.774 -0.4379  0.0661  0.1392
  499loPI   GL1 7973   8.301  11.479  10.396 -0.1924  0.0802 -0.1079
  499loPI   GL2 7974   8.531  11.246  10.282  0.0177 -0.1291 -0.1960
  499loPI   C1A 7975   8.246  11.408   9.929 -0.3358 -0.0289 -0.3005
  499loPI   C2A 7976   8.363  11.313   9.478  0.1311 -0.2483 -0.0838
  499loPI   C3A 7977   8.415  11.255   9.057  0.1537 -0.1868  0.0684
  499loPI   C4A 7978   8.387  11.328   8.660 -0.1932  0.1203 -0.0406
  499loPI   C5A 7979   8.283  11.323   8.199  0.2878 -0.0280 -0.2161
  499loPI   C6A 7980   8.084  11.522   7.822 -0.0274  0.0548  0.0151
  499loPI   C1B 7981   8.577  11.030  10.026 -0.1956  0.1794  0.2709
  499loPI   C2B 7982   8.631  10.967   9.673 -0.0196  0.0432 -0.0918
  499loPI   C3B 7983   8.763  10.971   9.290  0.2097 -0.3512  0.2418
  499loPI   C4B 7984   8.685  10.901   8.833  0.0239  0.1817  0.4457
  500loPI    C1 7985   0.272   7.751  10.887 -0.0775  0.0122 -0.0613
  500loPI    C2 7986   0.514   7.995  11.091  0.1412 -0.4198  0.2103
  500loPI    C3 7987   0.186   7.848  11.265 -0.0101 -0.2939  0.0352
  500loPI   PO4 7988   0.467   7.558  10.766 -0.1088 -0.0352  0.0498
  500loPI   GL1 7989   0.691   7.675  10.342 -0.1338 -0.0097  0.1236
  500loPI   GL2 7990   0.473   7.435  10.266  0.1834  0.0525 -0.2915
  500loPI   C1A 7991   0.790   7.767   9.985  0.0792  0.1911 -0.0799
  500loPI   C2A 7992   0.811   7.794   9.442 -0.1254  0.1820 -0.1997
  500loPI   C3A 7993   0.874   7.696   8.985  0.0140  0.1265 -0.1332
  500loPI   C4A 7994   0.933   7.664   8.567 -0.2506 -0.1642 -0.1251
  500loPI   C5A 7995   1.111   7.427   8.255  0.1610  0.0562 -0.0013
  500loPI   C6A 7996   1.011   7.474   7.931  0.0530  0.2064  0.1765
  500loPI   C1B 7997   0.565   7.299   9.808 -0.3307  0.0591  0.0173
  500loPI   C2B 7998   0.594   7.352   9.428  0.0459  0.1292 -0.1173
  500loPI   C3B 7999   0.621   7.274   9.066  0.1494 -0.3162 -0.1434
  500loPI   C4B 8000   0.757   7.227   8.672 -0.3864  0.2085 -0.2664
  501loPI    C1 8001  15.455   2.819  11.043 -0.1414 -0.2175 -0.4311
  501loPI    C2 8002  15.373   3.179  10.890 -0.0024 -0.0530 -0.1290
  501loPI    C3 8003  15.642   2.943  10.712  0.1321  0.1206 -0.1596
  501loPI   PO4 8004  15.216   2.725  11.042 -0.1974  0.2368 -0.1298
  501loPI   GL1 8005  15.136   2.787  10.543  0.0214 -0.0641  0.0106
  501loPI   GL2 8006  15.091   2.568  10.541 -0.0245 -0.0379 -0.0061
  501loPI   C1A 8007  15.347   2.994  10.225  0.1156 -0.0746 -0.0917
  501loPI   C2A 8008  15.379   3.068   9.740  0.1005 -0.1937  0.0270
  501loPI   C3A 8009  15.426   3.024   9.285 -0.3176 -0.1201  0.1747
  501loPI   C4A 8010  15.506   3.019   8.831  0.0893  0.0696 -0.2804
  501loPI   C5A 8011  15.473   2.939   8.385 -0.0443  0.0111  0.0795
  501loPI   C6A 8012  15.110   2.735   8.159 -0.1456  0.1402  0.3854
  501loPI   C1B 8013  15.213   2.532  10.044  0.0614  0.2221 -0.1399
  501loPI   C2B 8014  15.157   2.631   9.527  0.2799 -0.1559  0.0427
  501loPI   C3B 8015  15.321   2.568   9.117 -0.0317 -0.1477 -0.0271
  501loPI   C4B 8016  15.357   2.590   8.723 -0.0219  0.2415  0.0134
  502loPI    C1 8017   2.395   9.227  11.594 -0.1660 -0.2079 -0.2386
  502loPI    C2 8018   2.184   9.489  11.810  0.1096 -0.2355  0.0719
  502loPI    C3 8019   2.208   9.107  11.927  0.1753 -0.2743 -0.0663
  502loPI   PO4 8020   2.335   9.243  11.344  0.0633 -0.7117 -0.1638
  502loPI   GL1 8021   2.371   9.106  10.935 -0.1419 -0.2154 -0.0822
  502loPI   GL2 8022   2.345   9.230  10.788 -0.3167 -0.0180 -0.3571
  502loPI   C1A 8023   2.259   8.859  10.490  0.3378  0.1993 -0.1745
  502loPI   C2A 8024   2.221   8.873  10.001 -0.0192  0.0275 -0.1079
  502loPI   C3A 8025   2.244   8.879   9.522  0.1424 -0.0661  0.0945
  502loPI   C4A 8026   2.283   8.877   9.113  0.0092  0.2896 -0.1297
  502loPI   C5A 8027   2.356   8.921   8.636 -0.2523 -0.3277  0.2494
  502loPI   C6A 8028   2.614   9.216   8.250  0.0306  0.0167 -0.2612
  502loPI   C1B 8029   2.452   9.300  10.290 -0.1566  0.1218  0.2864
  502loPI   C2B 8030   2.463   9.276   9.841 -0.0240  0.0342 -0.0091
  502loPI   C3B 8031   2.518   9.295   9.346  0.4021  0.0289  0.2058
  502loPI   C4B 8032   2.514   9.292   8.940  0.0809 -0.1225 -0.4113
  503loPI    C1 8033  13.727  15.088  11.050 -0.1706 -0.2100  0.2151
  503loPI    C2 8034  13.619  15.222  11.411  0.1018  0.0740  0.1953
  503loPI    C3 8035  13.996  15.106  11.345  0.0068 -0.1612  0.0520
  503loPI   PO4 8036  13.635  15.316  10.916 -0.2342  0.0097  0.1215
  503loPI   GL1 8037  13.558  15.325  10.480 -0.1546  0.0898 -0.1384
  503loPI   GL2 8038  13.950  15.389  10.471  0.0739 -0.0906  0.1303
  503loPI   C1A 8039  13.282  15.249  10.200 -0.0637  0.3204  0.0517
  503loPI   C2A 8040  13.296  15.318   9.743  0.2115 -0.1988  0.0492
  503loPI   C3A 8041  13.274  15.355   9.321 -0.1293  0.1273 -0.2152
  503loPI   C4A 8042  13.257  15.278   8.857 -0.0882 -0.3339 -0.0335
  503loPI   C5A 8043  13.413  15.368   8.412  0.1572  0.1782 -0.2015
  503loPI   C6A 8044  13.374  15.108   8.069  0.1382  0.0940 -0.1579
  503loPI   C1B 8045  13.896  15.375   9.993  0.3280  0.0308  0.1453
  503loPI   C2B 8046  13.794  15.460   9.583  0.2975  0.3894  0.1141
  503loPI   C3B 8047  13.823  15.392   9.134 -0.0674  0.0635 -0.1948
  503loPI   C4B 8048  13.789  15.384   8.690 -0.1251  0.0825  0.1355
  504loPI    C1 8049   2.485  11.640  11.156 -0.2079 -0.1997  0.1296
  504loPI    C2 8050   2.324  11.927  11.384 -0.2959 -0.2061  0.0761
  504loPI    C3 8051   2.699  11.805  11.450 -0.2588 -0.0796  0.0998
  504loPI   PO4 8052   2.369  11.656  10.939  0.1484  0.2619  0.0128
  504loPI   GL1 8053   2.428  11.702  10.486  0.2815 -0.1209  0.0569
  504loPI   GL2 8054   2.310  11.942  10.318  0.0778  0.5803 -0.2894
  504loPI   C1A 8055   2.573  11.572  10.122 -0.0480  0.1640 -0.0785
  504loPI   C2A 8056   2.427  11.497   9.704  0.2118  0.0623  0.0032
  504loPI   C3A 8057   2.522  11.522   9.270 -0.3013 -0.1203  0.1192
  504loPI   C4A 8058   2.517  11.467   8.850 -0.3409 -0.3254 -0.2389
  504loPI   C5A 8059   2.602  11.412   8.442 -0.0277 -0.0687  0.2680
  504loPI   C6A 8060   2.503  11.597   8.064 -0.1132 -0.1089 -0.0528
  504loPI   C1B 8061   2.251  11.947   9.900 -0.0536  0.0039  0.3409
  504loPI   C2B 8062   2.219  11.943   9.492 -0.0056  0.1911 -0.0564
  504loPI   C3B 8063   2.244  11.857   9.030 -0.0693 -0.1443 -0.3099
  504loPI   C4B 8064   2.313  11.843   8.649  0.0428 -0.0335 -0.1447
  505loPI    C1 8065   4.955   0.781  10.931 -0.1804  0.1711  0.0797
  505loPI    C2 8066   5.212   1.052  11.073 -0.2954  0.2626  0.1153
  505loPI    C3 8067   5.138   0.718  11.281 -0.0333  0.1270 -0.0044
  505loPI   PO4 8068   5.017   0.753  10.668  0.0892  0.0188  0.3286
  505loPI   GL1 8069   4.930   0.622  10.147 -0.0155 -0.0929 -0.2774
  505loPI   GL2 8070   5.254   0.708  10.256  0.2454  0.2102  0.1827
  505loPI   C1A 8071   4.931   0.579   9.722 -0.0755  0.1516  0.1381
  505loPI   C2A 8072   4.977   0.625   9.231  0.0268  0.3409  0.3171
  505loPI   C3A 8073   4.925   0.533   8.898 -0.1210 -0.0705 -0.3268
  505loPI   C4A 8074   4.911   0.519   8.507  0.2241 -0.0087  0.1797
  505loPI   C5A 8075   5.003   0.538   8.076  0.1364 -0.1701 -0.0609
  505loPI   C6A 8076   5.076   0.625   7.637 -0.0814  0.0762 -0.0354
  505loPI   C1B 8077   5.413   0.650   9.839  0.0429  0.3469 -0.2023
  505loPI   C2B 8078   5.494   0.703   9.379  0.1010 -0.1671 -0.0664
  505loPI   C3B 8079   5.424   0.676   8.898 -0.2075 -0.1990 -0.0301
  505loPI   C4B 8080   5.367   0.541   8.434 -0.0591  0.0915  0.3683
  506loPI    C1 8081   9.640   7.239  10.852 -0.1394  0.0019  0.0284
  506loPI    C2 8082   9.605   6.841  10.832 -0.1534  0.0157 -0.2712
  506loPI    C3 8083   9.945   7.018  10.716  0.1712  0.0376  0.6331
  506loPI   PO4 8084   9.460   7.335  10.751  0.0310  0.2924 -0.1446
  506loPI   GL1 8085   9.391   7.608  10.420  0.1105  0.1213 -0.1199
  506loPI   GL2 8086   9.041   7.805  10.421  0.1069 -0.2392  0.2418
  506loPI   C1A 8087   9.503   7.398  10.086  0.1583 -0.0123  0.0149
  506loPI   C2A 8088   9.457   7.340   9.539  0.1108 -0.0362  0.0170
  506loPI   C3A 8089   9.461   7.360   9.111 -0.1356  0.0390 -0.2469
  506loPI   C4A 8090   9.545   7.350   8.626  0.0806 -0.4343  0.2796
  506loPI   C5A 8091   9.875   7.446   8.394 -0.0544  0.2502 -0.2244
  506loPI   C6A 8092  10.275   7.556   8.378 -0.2055 -0.1195 -0.0860
  506loPI   C1B 8093   9.118   7.847  10.039 -0.2640  0.0721  0.0066
  506loPI   C2B 8094   9.172   7.723   9.635  0.1697 -0.0319 -0.0901
  506loPI   C3B 8095   9.119   7.786   9.168  0.1279 -0.3989  0.1376
  506loPI   C4B 8096   9.191   7.635   8.795 -0.0319 -0.2607 -0.0099
  507loPI    C1 8097  15.925  15.569  11.129  0.2489  0.0256 -0.1181
  507loPI    C2 8098  16.202  15.281  11.156  0.1347 -0.0557  0.2383
  507loPI    C3 8099  16.011  15.407  11.484 -0.1654  0.0861  0.0145
  507loPI   PO4 8100  15.795  15.465  10.810  0.2870 -0.0207  0.0149
  507loPI   GL1 8101  15.788  15.206  10.394  0.0931 -0.2509 -0.0720
  507loPI   GL2 8102  16.143  15.176  10.238 -0.0044 -0.5145 -0.2919
  507loPI   C1A 8103  15.647  15.127  10.014 -0.1781  0.0320 -0.0488
  507loPI   C2A 8104  15.667  15.089   9.532 -0.1245 -0.1409 -0.1884
  507loPI   C3A 8105  15.708  15.097   9.116  0.1324 -0.1426 -0.0094
  507loPI   C4A 8106  15.625  15.063   8.698  0.2589 -0.1544 -0.0883
  507loPI   C5A 8107  15.641  15.031   8.291  0.0044 -0.2848  0.3282
  507loPI   C6A 8108  15.573  15.216   7.799  0.2479 -0.0991  0.2361
  507loPI   C1B 8109  16.142  15.102   9.806 -0.1199 -0.1145  0.0199
  507loPI   C2B 8110  16.135  15.048   9.379 -0.3705 -0.1487 -0.0272
  507loPI   C3B 8111  16.161  15.067   8.989  0.2719  0.5748 -0.0216
  507loPI   C4B 8112  16.147  15.097   8.493  0.2002  0.0305 -0.2202
  508loPI    C1 8113   7.474   9.102  11.354  0.0296  0.0050  0.0125
  508loPI    C2 8114   7.078   9.080  11.404  0.0020  0.2699 -0.0716
  508loPI    C3 8115   7.319   9.093  11.723 -0.0531  0.0750 -0.0203
  508loPI   PO4 8116   7.513   9.104  11.157 -0.3030  0.1354  0.2666
  508loPI   GL1 8117   7.364   9.051  10.823 -0.4075  0.0669 -0.0931
  508loPI   GL2 8118   7.697   8.975  10.699 -0.3573 -0.1686 -0.1056
  508loPI   C1A 8119   7.151   8.965  10.538 -0.0689  0.0291  0.0635
  508loPI   C2A 8120   7.121   8.945  10.125 -0.1712  0.0028  0.0484
  508loPI   C3A 8121   7.190   9.004   9.663  0.1502  0.1258 -0.2183
  508loPI   C4A 8122   7.156   8.940   9.265  0.1003  0.0708  0.1748
  508loPI   C5A 8123   7.231   8.920   8.792  0.3642 -0.1194 -0.0439
  508loPI   C6A 8124   7.342   8.910   8.332  0.2546 -0.2240  0.0286
  508loPI   C1B 8125   7.598   9.074  10.317 -0.0085 -0.0089 -0.1157
  508loPI   C2B 8126   7.714   9.032   9.857 -0.0747  0.1335 -0.1740
  508loPI   C3B 8127   7.718   9.063   9.420  0.2379 -0.1583  0.0427
  508loPI   C4B 8128   7.701   9.024   8.930 -0.2240  0.0883  0.2887
  509loPI    C1 8129  16.263  12.367  11.437  0.3022 -0.1170  0.0518
  509loPI    C2 8130  16.593  12.464  11.641  0.3006 -0.1569  0.0732
  509loPI    C3 8131  16.271  12.700  11.659  0.2395 -0.2524  0.2596
  509loPI   PO4 8132  16.255  12.335  11.210  0.0693 -0.3115 -0.1294
  509loPI   GL1 8133  16.418  12.565  10.792 -0.0045 -0.2146  0.0974
  509loPI   GL2 8134  16.576  12.901  10.593  0.1345 -0.1108  0.0616
  509loPI   C1A 8135  16.492  12.459  10.354 -0.0376  0.0204 -0.0706
  509loPI   C2A 8136  16.372  12.445   9.896 -0.0496 -0.2308  0.4882
  509loPI   C3A 8137  16.414  12.485   9.428  0.1210 -0.0781  0.1017
  509loPI   C4A 8138  16.370  12.449   8.944  0.1609 -0.3312 -0.0921
  509loPI   C5A 8139  16.569  12.409   8.533 -0.0629 -0.3653  0.0536
  509loPI   C6A 8140  16.830  12.450   8.191  0.2334 -0.2251  0.0103
  509loPI   C1B 8141  16.646  12.900  10.071  0.0520 -0.1943 -0.1065
  509loPI   C2B 8142  16.627  12.865   9.604 -0.1438 -0.2006  0.2597
  509loPI   C3B 8143  16.682  12.961   9.187  0.2364 -0.1332  0.2410
  509loPI   C4B 8144  16.549  12.907   8.724 -0.2416 -0.0241  0.1561
  510loPI    C1 8145   4.893  14.773  10.143 -0.0723  0.1674 -0.0166
  510loPI    C2 8146   4.673  14.511  10.350 -0.1107  0.1562 -0.0712
  510loPI    C3 8147   4.976  14.702  10.528  0.0211 -0.0465 -0.0745
  510loPI   PO4 8148   5.070  14.661   9.954 -0.1302  0.0826  0.4313
  510loPI   GL1 8149   5.190  14.899   9.668  0.3327  0.2938 -0.0542
  510loPI   GL2 8150   5.320  15.162   9.882  0.0898 -0.2741 -0.3414
  510loPI   C1A 8151   5.204  14.865   9.203 -0.0251 -0.1141 -0.1732
  510loPI   C2A 8152   5.210  14.787   8.842 -0.1229 -0.2133  0.0059
  510loPI   C3A 8153   5.609  14.835   8.503  0.0033  0.2250 -0.1266
  510loPI   C4A 8154   5.918  15.124   8.350  0.5328 -0.2405 -0.1152
  510loPI   C5A 8155   6.145  15.331   7.979  0.0956 -0.0061 -0.0571
  510loPI   C6A 8156   6.506  15.462   7.868 -0.1027  0.0344  0.1369
  510loPI   C1B 8157   5.209  15.427   9.512  0.1877  0.0595 -0.0545
  510loPI   C2B 8158   5.193  15.439   9.160 -0.1016  0.0876 -0.0443
  510loPI   C3B 8159   4.875  15.340   8.866 -0.1615 -0.0916 -0.1661
  510loPI   C4B 8160   4.813  15.216   8.419  0.1251 -0.1828  0.3046
  511loPI    C1 8161   4.870  13.337  10.913  0.1207 -0.0443  0.1491
  511loPI    C2 8162   4.865  13.677  10.702  0.0433 -0.1477 -0.0180
  511loPI    C3 8163   4.717  13.670  11.074  0.2029  0.0415  0.0514
  511loPI   PO4 8164   4.749  13.136  10.795  0.1712 -0.1469  0.1992
  511loPI   GL1 8165   4.669  12.859  10.420  0.3338  0.1325  0.1523
  511loPI   GL2 8166   4.534  12.495  10.482 -0.2303  0.0720 -0.3254
  511loPI   C1A 8167   4.918  12.848  10.038 -0.0278  0.1046  0.1506
  511loPI   C2A 8168   4.930  12.601   9.734 -0.0441  0.1453  0.0796
  511loPI   C3A 8169   4.867  12.385   9.266 -0.0651 -0.0399 -0.0179
  511loPI   C4A 8170   4.822  12.243   8.798 -0.3726 -0.0573  0.2446
  511loPI   C5A 8171   4.869  12.234   8.272  0.0576 -0.1654  0.0675
  511loPI   C6A 8172   4.834  12.594   7.997 -0.2085  0.0688 -0.1711
  511loPI   C1B 8173   4.484  12.554  10.013 -0.1929 -0.1269 -0.5495
  511loPI   C2B 8174   4.429  12.355   9.608  0.2547  0.0988 -0.1236
  511loPI   C3B 8175   4.416  12.264   9.114  0.0687  0.0845 -0.1872
  511loPI   C4B 8176   4.265  12.241   8.675  0.0725 -0.1267  0.0355
  512loPI    C1 8177   5.018   2.139  11.405 -0.2956 -0.0923 -0.1104
  512loPI    C2 8178   5.151   2.492  11.537 -0.2833 -0.0591 -0.2111
  512loPI    C3 8179   5.135   2.179  11.785 -0.0602 -0.0520 -0.1858
  512loPI   PO4 8180   5.025   2.071  11.155 -0.0685  0.0881  0.4954
  512loPI   GL1 8181   5.188   2.152  10.721 -0.1551  0.0668 -0.0867
  512loPI   GL2 8182   5.391   2.023  10.623 -0.1165  0.2581 -0.0646
  512loPI   C1A 8183   5.057   2.288  10.411  0.1011 -0.1131 -0.2905
  512loPI   C2A 8184   5.112   2.311  10.063 -0.0619  0.2927  0.0675
  512loPI   C3A 8185   5.195   2.459   9.741 -0.0758  0.0947 -0.0364
  512loPI   C4A 8186   5.200   2.393   9.258 -0.3887 -0.1279 -0.0876
  512loPI   C5A 8187   5.290   2.403   8.869  0.3990 -0.0552  0.1372
  512loPI   C6A 8188   5.424   2.555   8.556 -0.5144  0.0841 -0.0897
  512loPI   C1B 8189   5.481   2.005  10.232 -0.3124 -0.0518  0.4079
  512loPI   C2B 8190   5.531   2.037   9.851 -0.2339 -0.0393 -0.0249
  512loPI   C3B 8191   5.564   2.064   9.441  0.5005 -0.0711 -0.0770
  512loPI   C4B 8192   5.588   2.048   8.942  0.0339 -0.0689  0.0717
  513loPI    C1 8193   7.925  15.233  10.349 -0.1648 -0.1376 -0.0779
  513loPI    C2 8194   7.680  15.339  10.647 -0.0870  0.0512 -0.0801
  513loPI    C3 8195   7.987  15.092  10.718 -0.1020  0.0511 -0.0150
  513loPI   PO4 8196   7.953  15.472  10.252 -0.1531  0.0901  0.1524
  513loPI   GL1 8197   7.945  15.711   9.916 -0.1870 -0.1470  0.0800
  513loPI   GL2 8198   8.018  15.962  10.088  0.3599 -0.0680 -0.1352
  513loPI   C1A 8199   7.995  15.760   9.480 -0.0160  0.0598  0.3478
  513loPI   C2A 8200   8.003  15.988   9.108 -0.0405  0.1195  0.2088
  513loPI   C3A 8201   8.204  16.125   8.675 -0.4027 -0.0847 -0.2221
  513loPI   C4A 8202   8.260  16.147   8.265 -0.1247  0.1028 -0.0412
  513loPI   C5A 8203   8.186  16.090   7.823 -0.1583 -0.3274  0.0457
  513loPI   C6A 8204   7.900  16.127   7.560 -0.4382 -0.2511 -0.1620
  513loPI   C1B 8205   7.866  16.254   9.792  0.1071 -0.1836  0.1440
  513loPI   C2B 8206   7.827  16.464   9.438  0.1627  0.0373 -0.1755
  513loPI   C3B 8207   7.864  16.523   8.946 -0.2404 -0.4115 -0.1272
  513loPI   C4B 8208   7.937  16.527   8.457 -0.0619  0.2212 -0.1377
  514loPI    C1 8209   9.569  12.299  10.975 -0.1091  0.0746 -0.0442
  514loPI    C2 8210   9.547  12.671  11.119 -0.0201 -0.0329  0.2552
  514loPI    C3 8211   9.898  12.479  11.115 -0.0821 -0.1458  0.1838
  514loPI   PO4 8212   9.424  12.229  10.628  0.1552  0.1796 -0.0719
  514loPI   GL1 8213   9.509  12.441  10.197 -0.1241  0.3401  0.0853
  514loPI   GL2 8214   9.322  12.681  10.061  0.2905  0.0999  0.0884
  514loPI   C1A 8215   9.687  11.967   9.998 -0.3843 -0.0986  0.3016
  514loPI   C2A 8216   9.675  11.923   9.598 -0.2460  0.0616  0.2466
  514loPI   C3A 8217   9.652  11.806   9.167  0.1596  0.1070  0.5200
  514loPI   C4A 8218   9.602  11.945   8.719  0.0967 -0.1763  0.0362
  514loPI   C5A 8219   9.848  12.129   8.319  0.1581  0.0769 -0.0693
  514loPI   C6A 8220   9.988  12.236   7.996 -0.0798  0.0697  0.2546
  514loPI   C1B 8221   9.441  12.424   9.717  0.0697  0.3272  0.0161
  514loPI   C2B 8222   9.392  12.355   9.319 -0.1569 -0.0275  0.2144
  514loPI   C3B 8223   9.302  12.439   8.878  0.1241  0.0800  0.0191
  514loPI   C4B 8224   9.368  12.427   8.446  0.0042 -0.0811  0.2842
  515loPI    C1 8225   5.860  12.148  10.744  0.0409  0.0149  0.3510
  515loPI    C2 8226   6.061  12.019  11.065  0.2569  0.1501  0.2717
  515loPI    C3 8227   5.974  12.408  11.026  0.1537  0.1210  0.2094
  515loPI   PO4 8228   5.985  12.067  10.580 -0.0381  0.2676 -0.1526
  515loPI   GL1 8229   6.289  12.069  10.332 -0.0625 -0.0028  0.0926
  515loPI   GL2 8230   6.522  12.432  10.270  0.1406  0.0312  0.0885
  515loPI   C1A 8231   6.186  12.141   9.907  0.0095 -0.1897  0.1606
  515loPI   C2A 8232   6.220  12.122   9.456  0.0024  0.1463 -0.2124
  515loPI   C3A 8233   6.301  12.043   9.059  0.2519  0.1283  0.0275
  515loPI   C4A 8234   6.063  12.124   8.693  0.1406 -0.0978  0.2367
  515loPI   C5A 8235   5.971  11.944   8.318 -0.1174 -0.3008  0.3075
  515loPI   C6A 8236   5.863  11.597   8.218  0.0391  0.2142  0.2275
  515loPI   C1B 8237   6.327  12.620   9.830  0.1382  0.0733  0.0609
  515loPI   C2B 8238   6.404  12.566   9.446  0.0598 -0.1668  0.0126
  515loPI   C3B 8239   6.543  12.582   9.036 -0.2016  0.2070 -0.0097
  515loPI   C4B 8240   6.367  12.537   8.631 -0.1649  0.0988 -0.1901
  516loPI    C1 8241   6.061  11.102  11.165  0.0475  0.0981 -0.0840
  516loPI    C2 8242   6.239  11.459  11.134  0.1769  0.0335 -0.0909
  516loPI    C3 8243   6.453  11.136  11.233  0.1109 -0.0893 -0.3379
  516loPI   PO4 8244   5.801  11.157  10.858  0.1148  0.1038  0.1359
  516loPI   GL1 8245   5.488  11.287  10.491  0.0290 -0.1165  0.2442
  516loPI   GL2 8246   5.243  11.268  10.553 -0.0678 -0.0544  0.0166
  516loPI   C1A 8247   5.674  11.163  10.156 -0.1153 -0.2246 -0.1668
  516loPI   C2A 8248   5.668  11.114   9.727 -0.0709 -0.0014  0.2790
  516loPI   C3A 8249   5.745  11.092   9.280  0.5453 -0.1475 -0.0007
  516loPI   C4A 8250   5.810  11.103   8.886  0.1368 -0.0275 -0.2454
  516loPI   C5A 8251   5.731  11.167   8.446  0.0284  0.0023  0.0600
  516loPI   C6A 8252   5.405  11.184   8.034 -0.4309 -0.0049 -0.2539
  516loPI   C1B 8253   5.185  11.120  10.088 -0.2269 -0.2284 -0.0674
  516loPI   C2B 8254   5.183  11.046   9.669 -0.0948  0.0720 -0.1172
  516loPI   C3B 8255   5.257  11.059   9.272 -0.0508 -0.0123  0.1584
  516loPI   C4B 8256   5.194  10.923   8.826  0.3770 -0.3414  0.0126
  517loPI    C1 8257   4.264  15.522  10.563 -0.1242  0.3481  0.1246
  517loPI    C2 8258   4.331  15.767  10.872  0.1756  0.0945  0.2659
  517loPI    C3 8259   4.610  15.502  10.763 -0.0047  0.0511 -0.1048
  517loPI   PO4 8260   4.075  15.672  10.348 -0.2692 -0.0312  0.2341
  517loPI   GL1 8261   4.029  15.523   9.911  0.2508  0.1060 -0.0216
  517loPI   GL2 8262   4.229  15.309   9.966 -0.2508  0.2740 -0.2452
  517loPI   C1A 8263   3.887  15.630   9.425  0.4465 -0.2311 -0.4572
  517loPI   C2A 8264   3.521  15.646   9.236  0.1561  0.2244  0.3785
  517loPI   C3A 8265   3.405  15.688   8.821 -0.2454  0.0237  0.1309
  517loPI   C4A 8266   3.385  15.640   8.379  0.1010  0.2184  0.1195
  517loPI   C5A 8267   3.398  15.331   8.086  0.0058  0.1108 -0.2862
  517loPI   C6A 8268   3.149  15.345   7.751 -0.0915 -0.0287 -0.0436
  517loPI   C1B 8269   4.396  15.394   9.594  0.0146 -0.0360 -0.0843
  517loPI   C2B 8270   4.356  15.418   9.185  0.2315  0.2142  0.0085
  517loPI   C3B 8271   4.429  15.529   8.747 -0.1197  0.1566  0.0465
  517loPI   C4B 8272   4.494  15.581   8.271 -0.0058 -0.2531 -0.1498
  518loPI    C1 8273  14.483   6.072  10.964  0.4114 -0.1283 -0.2319
  518loPI    C2 8274  14.487   5.710  11.132  0.1768  0.0248  0.1155
  518loPI    C3 8275  14.731   5.996  11.269  0.1014  0.1037  0.0853
  518loPI   PO4 8276  14.250   6.137  10.940 -0.3385  0.3817  0.1451
  518loPI   GL1 8277  14.061   6.068  10.512  0.2662 -0.0843 -0.3557
  518loPI   GL2 8278  14.027   6.338  10.366 -0.0226 -0.2776  0.1471
  518loPI   C1A 8279  13.750   5.986  10.101 -0.0104 -0.0751 -0.1024
  518loPI   C2A 8280  13.759   6.024   9.766  0.0319 -0.0694 -0.2267
  518loPI   C3A 8281  13.677   5.999   9.344 -0.0557  0.1570  0.1379
  518loPI   C4A 8282  13.838   6.064   8.962  0.0555 -0.1586 -0.0442
  518loPI   C5A 8283  13.874   5.972   8.508 -0.1724  0.1402  0.1378
  518loPI   C6A 8284  13.753   5.577   8.322 -0.1474  0.1239  0.0273
  518loPI   C1B 8285  14.012   6.393   9.970 -0.3253 -0.0089  0.1535
  518loPI   C2B 8286  13.966   6.436   9.615 -0.3502 -0.0609  0.1899
  518loPI   C3B 8287  14.106   6.463   9.235 -0.0066 -0.1559  0.3416
  518loPI   C4B 8288  14.081   6.477   8.779  0.0102  0.0953  0.0508
  519loPI    C1 8289  14.039  12.116  11.383  0.2116  0.1481 -0.1124
  519loPI    C2 8290  14.314  12.262  11.634  0.1612  0.0617 -0.0061
  519loPI    C3 8291  14.149  11.904  11.704  0.0731  0.0819 -0.1079
  519loPI   PO4 8292  14.079  12.221  11.019 -0.0168  0.0266 -0.0828
  519loPI   GL1 8293  14.136  12.111  10.600  0.1041 -0.1002 -0.1924
  519loPI   GL2 8294  13.985  11.957  10.494 -0.1624  0.2963 -0.3177
  519loPI   C1A 8295  14.253  12.258  10.199 -0.1304  0.1689  0.1493
  519loPI   C2A 8296  14.151  12.290   9.719 -0.3657  0.0049  0.2080
  519loPI   C3A 8297  14.228  12.280   9.385  0.3062 -0.0528  0.3259
  519loPI   C4A 8298  14.270  12.281   8.925 -0.1460 -0.1156 -0.2798
  519loPI   C5A 8299  14.358  12.358   8.484 -0.0157  0.1538  0.0815
  519loPI   C6A 8300  14.516  12.595   8.178 -0.1919 -0.2200 -0.0673
  519loPI   C1B 8301  13.970  11.828  10.033 -0.2027 -0.2062  0.2339
  519loPI   C2B 8302  13.933  11.778   9.605  0.0352 -0.1458  0.0423
  519loPI   C3B 8303  14.087  11.826   9.133  0.0096  0.4861  0.0233
  519loPI   C4B 8304  14.179  11.854   8.603  0.2121 -0.3100  0.3653
  520loPI    C1 8305   1.959   9.911  11.183 -0.0574 -0.1021  0.1753
  520loPI    C2 8306   1.833   9.756  11.529 -0.1226 -0.0958  0.1545
  520loPI    C3 8307   1.865  10.153  11.487 -0.2186 -0.0916  0.1179
  520loPI   PO4 8308   1.792   9.892  10.967  0.0855  0.2501  0.0780
  520loPI   GL1 8309   1.818   9.706  10.528  0.0037 -0.0894 -0.1311
  520loPI   GL2 8310   2.100   9.678  10.514 -0.1326  0.0817 -0.3097
  520loPI   C1A 8311   1.680   9.753  10.128 -0.0464 -0.0589  0.2005
  520loPI   C2A 8312   1.615   9.660   9.746  0.1111  0.0151  0.3420
  520loPI   C3A 8313   1.757   9.706   9.428 -0.1662  0.0020 -0.2682
  520loPI   C4A 8314   1.676   9.585   9.055  0.1480 -0.0451  0.0208
  520loPI   C5A 8315   1.811   9.686   8.687  0.0800  0.1121 -0.0372
  520loPI   C6A 8316   1.610   9.794   8.290 -0.0223 -0.1270 -0.0814
  520loPI   C1B 8317   2.174   9.813   9.965  0.1549 -0.2151  0.1354
  520loPI   C2B 8318   2.233   9.676   9.515 -0.1117 -0.1712 -0.1063
  520loPI   C3B 8319   2.169   9.690   9.087 -0.1200  0.0089  0.0651
  520loPI   C4B 8320   2.307   9.588   8.621  0.0094  0.1197  0.1205
  521loPI    C1 8321   9.141   8.270  11.290 -0.1347  0.0294  0.0983
  521loPI    C2 8322   9.029   7.889  11.329  0.0553 -0.0441 -0.0542
  521loPI    C3 8323   9.322   8.035  11.558 -0.1164  0.0532  0.1069
  521loPI   PO4 8324   9.158   8.307  10.996 -0.3183 -0.1595 -0.0011
  521loPI   GL1 8325   8.937   8.484  10.733  0.2152  0.1374 -0.1927
  521loPI   GL2 8326   9.158   8.650  10.469  0.0025  0.1910 -0.2313
  521loPI   C1A 8327   8.830   8.309  10.347  0.0599  0.1272 -0.2806
  521loPI   C2A 8328   8.756   8.314   9.888 -0.1132  0.0204 -0.3137
  521loPI   C3A 8329   8.810   8.317   9.455  0.0391  0.0235 -0.0928
  521loPI   C4A 8330   8.796   8.300   8.943 -0.3885  0.1978  0.4578
  521loPI   C5A 8331   8.441   8.267   8.658  0.0751 -0.4075  0.0229
  521loPI   C6A 8332   8.300   7.985   8.503  0.1547 -0.3235  0.2042
  521loPI   C1B 8333   9.049   8.747  10.016  0.0684 -0.0109 -0.0191
  521loPI   C2B 8334   9.015   8.683   9.640  0.0272  0.2084 -0.2547
  521loPI   C3B 8335   9.129   8.601   9.212 -0.0922 -0.4433  0.1141
  521loPI   C4B 8336   9.068   8.687   8.812  0.0373  0.0085  0.1157
  522loPI    C1 8337   5.538   4.403  11.572 -0.2477  0.3207  0.2050
  522loPI    C2 8338   5.823   4.392  11.853 -0.1043 -0.1130  0.0496
  522loPI    C3 8339   5.500   4.158  11.886 -0.0951 -0.1538 -0.1348
  522loPI   PO4 8340   5.656   4.409  11.346  0.0501  0.2148 -0.1737
  522loPI   GL1 8341   5.584   4.365  10.916 -0.1307  0.1925  0.0023
  522loPI   GL2 8342   5.483   4.070  10.718  0.0449 -0.0984  0.1660
  522loPI   C1A 8343   5.405   4.545  10.580 -0.1234 -0.0154  0.1375
  522loPI   C2A 8344   5.251   4.568  10.099  0.0843  0.1334  0.0751
  522loPI   C3A 8345   5.258   4.703   9.764 -0.0283  0.0144 -0.0089
  522loPI   C4A 8346   5.314   4.709   9.240 -0.0610 -0.1150 -0.0344
  522loPI   C5A 8347   5.378   4.764   8.769  0.0194 -0.1785 -0.0432
  522loPI   C6A 8348   5.047   4.543   8.433  0.0050 -0.2174 -0.2256
  522loPI   C1B 8349   5.451   4.111  10.254 -0.2587 -0.1457  0.0633
  522loPI   C2B 8350   5.598   4.228   9.901 -0.4723  0.1464 -0.1231
  522loPI   C3B 8351   5.557   4.268   9.486  0.3024 -0.3080  0.0717
  522loPI   C4B 8352   5.581   4.313   9.040  0.0922  0.2403  0.1500
  523loPI    C1 8353   8.473   5.091  11.253  0.2674 -0.1078 -0.0758
  523loPI    C2 8354   8.278   4.796  11.438  0.0954 -0.0276 -0.1270
  523loPI    C3 8355   8.677   4.813  11.454  0.0895 -0.0907  0.1318
  523loPI   PO4 8356   8.384   5.133  10.987 -0.3001  0.0145  0.1838
  523loPI   GL1 8357   8.637   5.179  10.639  0.2653  0.1841 -0.2511
  523loPI   GL2 8358   8.451   5.457  10.582 -0.1762 -0.5231  0.0127
  523loPI   C1A 8359   8.815   4.996  10.300  0.1880  0.1373 -0.3404
  523loPI   C2A 8360   8.908   5.009   9.870  0.1984 -0.3303  0.0339
  523loPI   C3A 8361   8.873   5.030   9.472  0.1025  0.0207  0.2031
  523loPI   C4A 8362   8.837   5.008   8.989 -0.1136 -0.2053 -0.2607
  523loPI   C5A 8363   8.966   5.100   8.525 -0.0972  0.1530 -0.0430
  523loPI   C6A 8364   9.087   4.894   8.183 -0.0821 -0.0000  0.1714
  523loPI   C1B 8365   8.555   5.497  10.133 -0.1348 -0.0563  0.1258
  523loPI   C2B 8366   8.558   5.437   9.688  0.0659  0.0690 -0.4214
  523loPI   C3B 8367   8.617   5.497   9.281  0.2509  0.1804  0.0952
  523loPI   C4B 8368   8.694   5.517   8.834  0.2696 -0.1069  0.2465
  524loPI    C1 8369  15.544   7.095  11.163 -0.0335 -0.2268  0.3478
  524loPI    C2 8370  15.596   7.231  11.536 -0.3622  0.1427  0.2668
  524loPI    C3 8371  15.248   7.064  11.431 -0.3449  0.2270  0.0713
  524loPI   PO4 8372  15.787   7.268  11.004  0.0191  0.0614  0.1007
  524loPI   GL1 8373  15.875   7.259  10.584  0.0973  0.1315 -0.2240
  524loPI   GL2 8374  16.058   7.456  10.552  0.1211  0.0235  0.3368
  524loPI   C1A 8375  15.842   7.076  10.187  0.0483 -0.0572  0.0514
  524loPI   C2A 8376  15.940   7.082   9.772  0.1801  0.1093 -0.2258
  524loPI   C3A 8377  15.920   7.110   9.324 -0.0321  0.0546 -0.1539
  524loPI   C4A 8378  15.892   7.002   8.982  0.0695 -0.2245  0.1274
  524loPI   C5A 8379  15.933   7.017   8.575  0.0471  0.2135  0.0580
  524loPI   C6A 8380  15.879   6.849   8.201  0.0967 -0.0212  0.0743
  524loPI   C1B 8381  16.001   7.548  10.144 -0.1549 -0.0233 -0.0271
  524loPI   C2B 8382  16.022   7.583   9.719  0.0455 -0.1862 -0.1652
  524loPI   C3B 8383  16.076   7.593   9.224  0.0993  0.2874 -0.0645
  524loPI   C4B 8384  16.101   7.421   8.796 -0.1390  0.2688  0.1157
  525loPI    C1 8385   7.309   0.986  11.244 -0.0161  0.0070 -0.2859
  525loPI    C2 8386   7.578   0.706  11.340 -0.0371  0.0355 -0.1427
  525loPI    C3 8387   7.449   0.964  11.618 -0.0679  0.1448 -0.2578
  525loPI   PO4 8388   7.221   1.020  11.018 -0.0407  0.1605 -0.0683
  525loPI   GL1 8389   6.902   1.253  10.617  0.0787  0.0879  0.0579
  525loPI   GL2 8390   7.153   1.130  10.537  0.1972  0.1073 -0.0170
  525loPI   C1A 8391   6.738   1.562  10.305 -0.2731  0.1084 -0.0168
  525loPI   C2A 8392   6.892   1.619   9.815  0.0548  0.0161 -0.3659
  525loPI   C3A 8393   6.814   1.699   9.343 -0.2814 -0.0029 -0.1916
  525loPI   C4A 8394   6.935   1.748   8.945  0.2146  0.1094  0.2443
  525loPI   C5A 8395   6.990   1.654   8.599  0.0720  0.1204 -0.1348
  525loPI   C6A 8396   7.078   1.501   8.193  0.0075  0.2202  0.3395
  525loPI   C1B 8397   7.171   1.179  10.061  0.0395 -0.2642 -0.1297
  525loPI   C2B 8398   7.218   1.249   9.696  0.0168 -0.1348  0.4234
  525loPI   C3B 8399   7.122   1.299   9.301  0.1747 -0.0834  0.0303
  525loPI   C4B 8400   7.252   1.341   8.848  0.1791  0.0258  0.0661
  526loPI    C1 8401   6.607  15.260  10.525 -0.1389 -0.0898  0.0379
  526loPI    C2 8402   6.443  15.502  10.798 -0.1235 -0.0761  0.0350
  526loPI    C3 8403   6.791  15.321  10.875  0.0179  0.1408 -0.0824
  526loPI   PO4 8404   6.623  15.385  10.313 -0.0212 -0.0839  0.2390
  526loPI   GL1 8405   6.401  15.310   9.959 -0.1449 -0.1261 -0.1197
  526loPI   GL2 8406   6.225  15.075   9.913 -0.2580  0.1493 -0.2899
  526loPI   C1A 8407   6.539  15.619   9.607 -0.1430 -0.0043  0.0255
  526loPI   C2A 8408   6.613  15.797   9.210  0.0126  0.1726  0.1531
  526loPI   C3A 8409   6.728  15.928   8.890  0.1103  0.1737 -0.1431
  526loPI   C4A 8410   6.735  15.790   8.441 -0.1602 -0.0692 -0.2655
  526loPI   C5A 8411   6.837  15.833   8.009 -0.0171  0.2878 -0.0813
  526loPI   C6A 8412   6.705  15.758   7.559 -0.0297 -0.2890  0.2199
  526loPI   C1B 8413   6.109  14.863   9.630 -0.0401  0.0025  0.0806
  526loPI   C2B 8414   6.045  14.887   9.221  0.0867  0.0741  0.0175
  526loPI   C3B 8415   6.001  14.808   8.817 -0.0541  0.0311  0.0600
  526loPI   C4B 8416   6.171  14.498   8.482  0.0775  0.0341 -0.2083
  527loPI    C1 8417  17.848  11.712  11.304 -0.2175 -0.1493 -0.0685
  527loPI    C2 8418  17.802  12.097  11.404 -0.0618 -0.1195 -0.1095
  527loPI    C3 8419  17.507  11.836  11.473 -0.2193  0.0319 -0.2016
  527loPI   PO4 8420  17.938  11.787  11.009 -0.0599  0.0794 -0.0712
  527loPI   GL1 8421  17.780  11.564  10.682 -0.1080  0.2508 -0.1999
  527loPI   GL2 8422  17.952  11.265  10.675 -0.0358 -0.0249  0.0454
  527loPI   C1A 8423  18.063  11.679  10.299  0.1903  0.0701 -0.3840
  527loPI   C2A 8424  18.096  11.744   9.879  0.2475 -0.1216  0.0626
  527loPI   C3A 8425  18.113  11.716   9.418  0.4373 -0.0394  0.0911
  527loPI   C4A 8426  18.091  11.742   8.978  0.3285 -0.0240  0.4240
  527loPI   C5A 8427  18.224  11.618   8.483  0.1778 -0.0065 -0.1714
  527loPI   C6A 8428  18.383  11.268   8.324 -0.0499  0.0913 -0.0718
  527loPI   C1B 8429  17.922  11.234  10.329  0.3821  0.2539 -0.3070
  527loPI   C2B 8430  17.812  11.285   9.938  0.1310 -0.3261 -0.1119
  527loPI   C3B 8431  17.852  11.217   9.529  0.0440 -0.1259 -0.1597
  527loPI   C4B 8432  17.909  11.276   9.106  0.1844 -0.0823  0.0848
  528loPI    C1 8433  11.629  11.946  10.810  0.1638 -0.1250  0.0632
  528loPI    C2 8434  11.315  11.973  11.057 -0.0874  0.0268 -0.2646
  528loPI    C3 8435  11.352  11.658  10.813  0.0559 -0.0267 -0.1752
  528loPI   PO4 8436  11.670  12.165  10.670  0.1516  0.0898 -0.0212
  528loPI   GL1 8437  11.576  12.141  10.269 -0.0642 -0.0076  0.0858
  528loPI   GL2 8438  11.468  11.764  10.342 -0.0634 -0.0488  0.0663
  528loPI   C1A 8439  11.662  12.021   9.739 -0.0491 -0.5916 -0.2662
  528loPI   C2A 8440  11.695  12.025   9.281 -0.1145  0.2089  0.0833
  528loPI   C3A 8441  11.793  12.103   8.868 -0.0861 -0.0423 -0.0943
  528loPI   C4A 8442  11.780  12.057   8.404 -0.1439 -0.0476  0.0812
  528loPI   C5A 8443  11.512  12.337   8.160  0.2322  0.1279 -0.1645
  528loPI   C6A 8444  11.259  12.664   8.208  0.1081 -0.0965 -0.1091
  528loPI   C1B 8445  11.413  11.631   9.893 -0.2335 -0.2150  0.3849
  528loPI   C2B 8446  11.468  11.568   9.423 -0.3885  0.0434 -0.0583
  528loPI   C3B 8447  11.474  11.633   8.949  0.2589 -0.1441 -0.0832
  528loPI   C4B 8448  11.584  11.587   8.531 -0.4553 -0.0552 -0.2187
  529loPI    C1 8449   1.384   9.915  11.315 -0.2629 -0.0070 -0.0474
  529loPI    C2 8450   1.341  10.235  11.551  0.0055 -0.1251  0.1674
  529loPI    C3 8451   1.083   9.931  11.578 -0.2201  0.0471 -0.0015
  529loPI   PO4 8452   1.362  10.077  11.088  0.1396  0.1477  0.0381
  529loPI   GL1 8453   1.352   9.918  10.594  0.2948 -0.1244 -0.0772
  529loPI   GL2 8454   1.316   9.596  10.428  0.1360 -0.0944  0.0050
  529loPI   C1A 8455   1.289  10.078  10.181  0.2137  0.3801 -0.1590
  529loPI   C2A 8456   1.379  10.124   9.769  0.4600 -0.0228  0.0955
  529loPI   C3A 8457   1.465  10.088   9.321  0.0905  0.1795 -0.2783
  529loPI   C4A 8458   1.481  10.054   8.904 -0.0522 -0.0534  0.0665
  529loPI   C5A 8459   1.291  10.105   8.512 -0.0294  0.2028 -0.0540
  529loPI   C6A 8460   1.257  10.084   8.115 -0.2377 -0.0205  0.2062
  529loPI   C1B 8461   1.098   9.604  10.088 -0.0635 -0.0290 -0.0212
  529loPI   C2B 8462   1.093   9.586   9.683  0.1626  0.3586 -0.2232
  529loPI   C3B 8463   1.210   9.624   9.212  0.1833  0.0598 -0.0363
  529loPI   C4B 8464   1.246   9.607   8.786  0.0782 -0.1835  0.2559
  530loPI    C1 8465   1.130  12.189  11.284  0.1355 -0.1066  0.1304
  530loPI    C2 8466   0.953  12.324  11.617 -0.1799 -0.1287 -0.0246
  530loPI    C3 8467   1.065  11.940  11.590  0.3832  0.0045  0.2759
  530loPI   PO4 8468   1.014  12.225  11.087  0.1566  0.2777  0.1013
  530loPI   GL1 8469   0.801  12.149  10.653  0.1070  0.2270  0.0687
  530loPI   GL2 8470   1.048  11.880  10.589  0.0590 -0.0532 -0.1403
  530loPI   C1A 8471   0.856  12.254  10.164  0.0342  0.1287  0.0274
  530loPI   C2A 8472   0.848  12.285   9.686 -0.2312  0.0026 -0.1650
  530loPI   C3A 8473   0.872  12.267   9.200  0.1368 -0.2259  0.0531
  530loPI   C4A 8474   0.981  12.124   8.782  0.0853 -0.2709 -0.0633
  530loPI   C5A 8475   1.135  12.105   8.415 -0.2894  0.5621  0.1101
  530loPI   C6A 8476   1.349  11.772   8.421 -0.3272  0.1648 -0.1487
  530loPI   C1B 8477   1.195  11.866  10.075  0.4717  0.1328 -0.4003
  530loPI   C2B 8478   1.234  11.843   9.699  0.1502  0.0480  0.0853
  530loPI   C3B 8479   1.200  11.874   9.293 -0.0326 -0.0560 -0.3053
  530loPI   C4B 8480   1.205  11.735   8.931  0.4907 -0.1593 -0.1149
  531loPI    C1 8481   9.276   3.031  11.104 -0.3968  0.0114  0.1122
  531loPI    C2 8482   9.386   2.743  11.358 -0.1170  0.0175  0.0022
  531loPI    C3 8483   9.511   3.119  11.415 -0.0238  0.0123 -0.1625
  531loPI   PO4 8484   9.306   2.918  10.890 -0.1973 -0.0292 -0.4461
  531loPI   GL1 8485   9.465   2.681  10.679  0.3338  0.1099  0.1441
  531loPI   GL2 8486   9.510   2.403  10.387 -0.1542  0.2338  0.0645
  531loPI   C1A 8487   9.225   2.832  10.279  0.1871  0.2881 -0.0128
  531loPI   C2A 8488   9.284   2.779   9.811 -0.0496 -0.2842  0.0252
  531loPI   C3A 8489   9.336   2.771   9.377 -0.1815  0.0371 -0.1557
  531loPI   C4A 8490   9.393   2.843   8.944  0.0466 -0.2759 -0.2338
  531loPI   C5A 8491   9.195   2.956   8.574 -0.0629  0.0655  0.2323
  531loPI   C6A 8492   9.133   3.328   8.365 -0.0554 -0.1716 -0.2569
  531loPI   C1B 8493   9.651   2.406   9.972  0.1739  0.2097  0.3129
  531loPI   C2B 8494   9.623   2.332   9.582 -0.1127  0.2138  0.0081
  531loPI   C3B 8495   9.711   2.406   9.154 -0.1782  0.1680  0.1071
  531loPI   C4B 8496   9.657   2.485   8.697  0.1493 -0.0450 -0.1117
  532loPI    C1 8497  12.988  17.762  10.828  0.2507 -0.0672  0.0456
  532loPI    C2 8498  13.102  17.445  11.044 -0.0806 -0.1466  0.1093
  532loPI    C3 8499  13.085  17.419  10.645 -0.2813 -0.2696  0.1241
  532loPI   PO4 8500  12.779  17.783  10.900 -0.2521 -0.3055  0.0793
  532loPI   GL1 8501  12.503  17.960  10.579  0.1291 -0.0606  0.0372
  532loPI   GL2 8502  12.544  17.581  10.530  0.0854 -0.2399  0.1455
  532loPI   C1A 8503  12.585  18.063  10.218 -0.0004 -0.5028  0.2725
  532loPI   C2A 8504  12.565  17.959   9.818 -0.0084 -0.0298 -0.0666
  532loPI   C3A 8505  12.482  18.062   9.376 -0.1590 -0.0948 -0.0992
  532loPI   C4A 8506  12.502  18.035   8.932 -0.0550  0.0385 -0.4543
  532loPI   C5A 8507  12.715  17.825   8.667 -0.1601 -0.0993 -0.1318
  532loPI   C6A 8508  12.868  17.442   8.599 -0.0463 -0.0629  0.5237
  532loPI   C1B 8509  12.819  17.592  10.266 -0.1735  0.1911 -0.0342
  532loPI   C2B 8510  12.849  17.574   9.882 -0.3738 -0.1558  0.0749
  532loPI   C3B 8511  12.754  17.598   9.473  0.0959 -0.2266  0.1204
  532loPI   C4B 8512  12.832  17.548   9.084  0.2927  0.2602  0.0378
  533loPI    C1 8513   9.415  14.101  10.599 -0.0759 -0.2024  0.2587
  533loPI    C2 8514   9.180  14.424  10.590  0.2516  0.0362 -0.2562
  533loPI    C3 8515   9.022  14.064  10.663 -0.1712  0.2619 -0.0107
  533loPI   PO4 8516   9.542  14.065  10.384  0.1377 -0.0106 -0.3767
  533loPI   GL1 8517   9.443  14.028   9.890  0.2275 -0.1834  0.4385
  533loPI   GL2 8518   9.315  13.853   9.772 -0.0444  0.2280 -0.0247
  533loPI   C1A 8519   9.662  14.179   9.584  0.0056  0.0133  0.1062
  533loPI   C2A 8520   9.815  13.974   9.333 -0.2286 -0.0898  0.0381
  533loPI   C3A 8521   9.972  13.900   8.923  0.2033  0.0202 -0.2480
  533loPI   C4A 8522  10.051  13.666   8.508  0.0724 -0.1862 -0.1990
  533loPI   C5A 8523  10.173  13.857   8.143  0.1918 -0.0616  0.0106
  533loPI   C6A 8524  10.161  13.994   7.648 -0.2232 -0.1755 -0.2586
  533loPI   C1B 8525   9.278  13.860   9.361  0.1328  0.0745 -0.1574
  533loPI   C2B 8526   9.461  13.797   9.070  0.2817 -0.2230 -0.0909
  533loPI   C3B 8527   9.497  13.768   8.664  0.2631 -0.0431  0.1085
  533loPI   C4B 8528   9.615  13.753   8.230  0.0523  0.1140 -0.2876
  534loPI    C1 8529   8.558  13.885  10.641  0.2494 -0.4147 -0.0506
  534loPI    C2 8530   8.349  13.564  10.754 -0.3891 -0.0454 -0.1322
  534loPI    C3 8531   8.229  13.929  10.863  0.1181  0.1945 -0.3445
  534loPI   PO4 8532   8.623  13.826  10.364  0.1436  0.3466 -0.0809
  534loPI   GL1 8533   8.560  13.942  10.047 -0.2783  0.0686 -0.0746
  534loPI   GL2 8534   8.390  13.919   9.907 -0.0194  0.1461 -0.1246
  534loPI   C1A 8535   8.811  14.093   9.709  0.2945  0.0671 -0.1008
  534loPI   C2A 8536   8.740  14.122   9.234 -0.0869 -0.0236 -0.3665
  534loPI   C3A 8537   9.077  14.214   8.821 -0.2664  0.1292  0.1480
  534loPI   C4A 8538   9.309  14.304   8.539 -0.0219 -0.3760  0.0533
  534loPI   C5A 8539   9.424  14.264   8.165  0.0083 -0.0538  0.0714
  534loPI   C6A 8540   9.691  14.081   7.805 -0.0891  0.1427  0.0255
  534loPI   C1B 8541   8.416  13.811   9.495 -0.1022 -0.0463  0.2504
  534loPI   C2B 8542   8.482  13.753   9.000  0.3266  0.1396  0.3433
  534loPI   C3B 8543   8.503  13.800   8.607 -0.0651  0.0262 -0.0738
  534loPI   C4B 8544   8.513  13.998   8.293  0.0538  0.2953 -0.0836
  535loPI    C1 8545  12.066   0.998  11.061 -0.2384 -0.3951 -0.1951
  535loPI    C2 8546  11.711   1.108  11.209 -0.2177 -0.2794 -0.2301
  535loPI    C3 8547  12.005   0.997  11.457 -0.2389 -0.2560 -0.1940
  535loPI   PO4 8548  12.166   1.236  10.904  0.0420  0.2701 -0.0972
  535loPI   GL1 8549  12.120   1.444  10.519 -0.2938  0.0916  0.2557
  535loPI   GL2 8550  12.500   1.494  10.499  0.0432  0.1120  0.0179
  535loPI   C1A 8551  12.098   1.372  10.133 -0.3286  0.2512  0.0405
  535loPI   C2A 8552  12.149   1.329   9.639  0.0697 -0.0174 -0.2577
  535loPI   C3A 8553  12.180   1.408   9.169 -0.0831  0.0961  0.1153
  535loPI   C4A 8554  12.050   1.415   8.769 -0.0837  0.1033 -0.1577
  535loPI   C5A 8555  11.806   1.237   8.444  0.2958 -0.3706 -0.2474
  535loPI   C6A 8556  11.684   1.046   8.094 -0.0805  0.0724 -0.1645
  535loPI   C1B 8557  12.626   1.402   9.924  0.1037 -0.2980  0.1117
  535loPI   C2B 8558  12.690   1.491   9.370  0.0955  0.2465  0.2765
  535loPI   C3B 8559  12.745   1.510   8.880  0.0203  0.4659  0.1597
  535loPI   C4B 8560  12.756   1.433   8.487 -0.0697 -0.2288 -0.2119
  536loPI    C1 8561  11.352   1.463  11.242  0.2383 -0.1808  0.1806
  536loPI    C2 8562  11.285   1.221  11.553 -0.0755 -0.1006  0.1784
  536loPI    C3 8563  11.132   1.591  11.551  0.0870 -0.0332  0.0144
  536loPI   PO4 8564  11.228   1.406  10.961  0.1815 -0.1589  0.0794
  536loPI   GL1 8565  11.396   1.113  10.671 -0.0338  0.2348  0.0546
  536loPI   GL2 8566  11.670   1.072  10.643 -0.2326  0.0666 -0.1062
  536loPI   C1A 8567  11.145   1.287  10.336 -0.0966 -0.1948 -0.0230
  536loPI   C2A 8568  11.025   1.175   9.860  0.2299 -0.1235  0.2072
  536loPI   C3A 8569  11.103   1.263   9.427 -0.1796 -0.1835  0.1415
  536loPI   C4A 8570  11.154   1.255   8.988 -0.2133 -0.1305  0.1637
  536loPI   C5A 8571  11.101   1.274   8.563 -0.0594  0.1356 -0.1244
  536loPI   C6A 8572  11.229   1.376   8.084  0.0706  0.1135  0.1568
  536loPI   C1B 8573  11.628   1.350  10.302  0.4003  0.3446 -0.0391
  536loPI   C2B 8574  11.637   1.257   9.927  0.0260 -0.0061 -0.0875
  536loPI   C3B 8575  11.650   1.312   9.561 -0.0898  0.3230 -0.0896
  536loPI   C4B 8576  11.692   1.309   9.098  0.0058  0.0978  0.2625
  537loPI    C1 8577  12.809  12.586  11.044 -0.0311 -0.0433  0.1781
  537loPI    C2 8578  12.429  12.533  11.156 -0.0783  0.1134  0.0952
  537loPI    C3 8579  12.708  12.618  11.429 -0.1230  0.1095  0.1423
  537loPI   PO4 8580  12.772  12.530  10.820 -0.2404 -0.0372  0.0367
  537loPI   GL1 8581  12.879  12.370  10.522  0.1693 -0.0734  0.0138
  537loPI   GL2 8582  13.147  12.291  10.474  0.1940  0.0283  0.1756
  537loPI   C1A 8583  12.917  12.711  10.125  0.0295  0.0292 -0.1420
  537loPI   C2A 8584  12.859  12.627   9.619 -0.0372 -0.1844  0.1982
  537loPI   C3A 8585  12.972  12.633   9.198  0.0787  0.2063 -0.2273
  537loPI   C4A 8586  13.034  12.634   8.796  0.1745  0.2071  0.1655
  537loPI   C5A 8587  12.785  12.746   8.446  0.4867  0.3685 -0.3600
  537loPI   C6A 8588  12.336  12.695   8.317 -0.3375  0.2368 -0.1422
  537loPI   C1B 8589  13.134  12.242  10.017 -0.4146  0.3921 -0.1320
  537loPI   C2B 8590  13.170  12.193   9.547 -0.2397 -0.0461  0.3445
  537loPI   C3B 8591  13.280  12.200   9.133  0.3315  0.1329  0.2175
  537loPI   C4B 8592  13.353  12.221   8.690  0.0983 -0.2129 -0.0816
  538loPI    C1 8593  17.168  16.122  10.904  0.1397  0.1618 -0.0395
  538loPI    C2 8594  17.111  16.362  11.219 -0.1934 -0.1585  0.1512
  538loPI    C3 8595  17.291  16.008  11.267 -0.1131 -0.1457 -0.0466
  538loPI   PO4 8596  17.342  16.197  10.741  0.0030  0.2914 -0.0804
  538loPI   GL1 8597  17.230  16.258  10.217 -0.0526 -0.1033 -0.0132
  538loPI   GL2 8598  17.527  16.415  10.246  0.0255 -0.2687  0.0900
  538loPI   C1A 8599  17.165  16.160   9.749  0.0933 -0.1069  0.0341
  538loPI   C2A 8600  17.080  16.080   9.311  0.1903 -0.1536 -0.1553
  538loPI   C3A 8601  17.097  16.111   8.874 -0.0745  0.0197 -0.0580
  538loPI   C4A 8602  17.200  16.149   8.395  0.1071  0.3058  0.2745
  538loPI   C5A 8603  16.910  16.100   7.992 -0.4005  0.0780  0.1610
  538loPI   C6A 8604  16.593  15.938   7.810 -0.0838  0.0264 -0.0718
  538loPI   C1B 8605  17.362  16.643   9.849  0.2320  0.1471 -0.0059
  538loPI   C2B 8606  17.242  16.570   9.445  0.0612 -0.1684 -0.0773
  538loPI   C3B 8607  17.270  16.584   9.050  0.2060  0.1658 -0.0854
  538loPI   C4B 8608  17.403  16.537   8.688 -0.0242  0.2976 -0.2170
  539loPI    C1 8609  11.149   8.788  11.234 -0.0886 -0.2916 -0.2371
  539loPI    C2 8610  10.815   8.762  11.453  0.0006 -0.0441 -0.0667
  539loPI    C3 8611  11.107   8.492  11.500 -0.0154 -0.0397  0.0612
  539loPI   PO4 8612  11.003   8.809  10.913 -0.2741  0.0184 -0.0077
  539loPI   GL1 8613  11.102   8.598  10.502 -0.3063  0.2561 -0.0929
  539loPI   GL2 8614  10.792   8.791  10.419  0.1356 -0.0463 -0.2667
  539loPI   C1A 8615  10.981   8.423  10.133 -0.1446  0.3733 -0.1056
  539loPI   C2A 8616  11.031   8.377   9.693 -0.2580 -0.1800 -0.2386
  539loPI   C3A 8617  11.010   8.404   9.178 -0.2046 -0.0945  0.0168
  539loPI   C4A 8618  11.001   8.474   8.784 -0.1738 -0.2272  0.0269
  539loPI   C5A 8619  10.996   8.824   8.429  0.0319 -0.0778  0.1706
  539loPI   C6A 8620  11.065   9.235   8.307  0.2549  0.0251 -0.0346
  539loPI   C1B 8621  10.709   8.839   9.993  0.0765 -0.0767 -0.4919
  539loPI   C2B 8622  10.763   8.815   9.584  0.2021  0.0260  0.1146
  539loPI   C3B 8623  10.683   8.875   9.140  0.3478  0.0695  0.1344
  539loPI   C4B 8624  10.571   8.805   8.725 -0.1098  0.0611  0.0095
  540loPI    C1 8625  16.748   0.692  10.894  0.0837  0.0346 -0.0741
  540loPI    C2 8626  16.867   0.941  11.183  0.0484 -0.0149 -0.0167
  540loPI    C3 8627  16.767   0.564  11.273  0.2348 -0.0912 -0.1229
  540loPI   PO4 8628  16.610   0.905  10.731  0.3539  0.2712 -0.0320
  540loPI   GL1 8629  16.389   0.729  10.386 -0.1695 -0.0279 -0.3353
  540loPI   GL2 8630  16.316   0.418  10.172  0.0939 -0.2132  0.0372
  540loPI   C1A 8631  16.342   0.946   9.997  0.2084  0.0150  0.2414
  540loPI   C2A 8632  16.355   0.961   9.599  0.2665  0.0016  0.0492
  540loPI   C3A 8633  16.331   0.843   9.111 -0.2366 -0.1035 -0.0602
  540loPI   C4A 8634  16.252   0.832   8.655 -0.0753  0.1988 -0.3397
  540loPI   C5A 8635  16.288   0.585   8.194 -0.1436 -0.2040  0.1616
  540loPI   C6A 8636  16.227   0.168   7.975  0.0968 -0.0416 -0.0538
  540loPI   C1B 8637  16.318   0.459   9.849 -0.1029  0.0018 -0.2827
  540loPI   C2B 8638  16.157   0.466   9.396 -0.0032 -0.3249  0.0717
  540loPI   C3B 8639  16.094   0.316   8.953  0.1408 -0.2699  0.2197
  540loPI   C4B 8640  16.087   0.264   8.510 -0.0065 -0.1215  0.1573
  541loPI    C1 8641  13.764   4.204  10.956 -0.0497  0.2944  0.1012
  541loPI    C2 8642  13.542   4.120  11.278  0.1427  0.2315  0.2185
  541loPI    C3 8643  13.925   4.004  11.263 -0.0443 -0.3730 -0.3153
  541loPI   PO4 8644  13.659   4.450  10.890 -0.1639 -0.1521  0.0482
  541loPI   GL1 8645  13.976   4.681  10.643 -0.1373 -0.0688  0.5687
  541loPI   GL2 8646  14.276   4.709  10.501  0.2865  0.2283  0.0833
  541loPI   C1A 8647  13.805   4.644  10.264  0.1605 -0.4130  0.1192
  541loPI   C2A 8648  13.782   4.622   9.880 -0.3219  0.1416  0.2298
  541loPI   C3A 8649  13.749   4.603   9.471 -0.0813 -0.0245  0.1016
  541loPI   C4A 8650  13.761   4.685   9.018 -0.0809 -0.0278 -0.3740
  541loPI   C5A 8651  13.820   4.667   8.583 -0.0275 -0.0738 -0.1203
  541loPI   C6A 8652  14.032   4.418   8.179  0.0666  0.1598  0.0860
  541loPI   C1B 8653  14.290   4.649  10.119 -0.2437  0.0088 -0.1301
  541loPI   C2B 8654  14.282   4.727   9.665  0.4165 -0.0676 -0.0073
  541loPI   C3B 8655  14.201   4.726   9.284  0.2299 -0.0514 -0.1078
  541loPI   C4B 8656  14.210   4.768   8.878  0.0738  0.2207  0.0319
  542loPI    C1 8657   3.616   1.108  10.942 -0.2289 -0.0162 -0.0521
  542loPI    C2 8658   3.314   0.847  10.907 -0.2149 -0.0747  0.2393
  542loPI    C3 8659   3.692   0.718  10.896 -0.1954  0.0045 -0.1758
  542loPI   PO4 8660   3.582   1.329  10.748 -0.2042 -0.1444 -0.3338
  542loPI   GL1 8661   3.330   1.559  10.443 -0.0153  0.0125  0.2232
  542loPI   GL2 8662   2.919   1.540  10.378 -0.1368 -0.1342  0.1311
  542loPI   C1A 8663   3.385   1.719  10.035 -0.1146  0.3776  0.1695
  542loPI   C2A 8664   3.387   1.785   9.530  0.0023 -0.0032  0.1588
  542loPI   C3A 8665   3.456   1.868   9.086  0.1697  0.2667 -0.0070
  542loPI   C4A 8666   3.493   1.860   8.705  0.0354  0.0626 -0.0677
  542loPI   C5A 8667   3.719   1.776   8.410 -0.0399 -0.1564  0.1824
  542loPI   C6A 8668   4.058   1.458   8.127 -0.0588 -0.3661  0.0531
  542loPI   C1B 8669   2.881   1.750   9.938 -0.1017  0.0244 -0.1333
  542loPI   C2B 8670   2.874   1.749   9.552 -0.2007  0.0996  0.0479
  542loPI   C3B 8671   2.980   1.746   9.128 -0.1024 -0.1869 -0.1847
  542loPI   C4B 8672   2.925   1.679   8.650 -0.1329 -0.0668 -0.1188
  543loPI    C1 8673  12.621  17.267  11.040  0.0855 -0.2497  0.2682
  543loPI    C2 8674  12.228  17.240  11.112 -0.0171  0.1524 -0.0974
  543loPI    C3 8675  12.491  17.091  11.375 -0.4090 -0.0762  0.1754
  543loPI   PO4 8676  12.636  17.141  10.710  0.4008  0.0348  0.3169
  543loPI   GL1 8677  12.573  17.038  10.314  0.1618  0.4873 -0.0975
  543loPI   GL2 8678  12.767  16.870  10.305 -0.1483 -0.3255  0.0015
  543loPI   C1A 8679  12.602  17.157   9.898  0.0149 -0.0359 -0.0931
  543loPI   C2A 8680  12.642  17.127   9.479  0.3563  0.1257  0.1738
  543loPI   C3A 8681  12.704  17.060   9.005 -0.0269  0.0243  0.3376
  543loPI   C4A 8682  12.694  17.016   8.464  0.0753  0.1703 -0.0473
  543loPI   C5A 8683  12.330  16.934   8.138 -0.2393 -0.3834  0.2165
  543loPI   C6A 8684  12.122  16.569   8.154 -0.1663  0.1870 -0.0950
  543loPI   C1B 8685  12.888  16.737   9.865 -0.1969 -0.0594 -0.0282
  543loPI   C2B 8686  12.902  16.622   9.415  0.3300  0.4398 -0.2308
  543loPI   C3B 8687  13.000  16.683   9.015 -0.0746 -0.0351  0.2204
  543loPI   C4B 8688  13.112  16.733   8.623  0.1549 -0.0843 -0.0097
  544loPI    C1 8689  12.750   3.927  11.006 -0.1851  0.1653 -0.0387
  544loPI    C2 8690  13.029   4.075  11.252 -0.1769 -0.0330  0.0734
  544loPI    C3 8691  12.642   4.149  11.320 -0.1668  0.0261  0.0668
  544loPI   PO4 8692  12.839   3.913  10.751  0.1873  0.0238 -0.1742
  544loPI   GL1 8693  12.918   3.956  10.382  0.2205  0.0284  0.0299
  544loPI   GL2 8694  12.889   4.216  10.182 -0.2167 -0.1740 -0.1408
  544loPI   C1A 8695  13.099   3.727  10.080 -0.3068  0.0914 -0.0516
  544loPI   C2A 8696  13.141   3.709   9.642 -0.1516 -0.2021 -0.0308
  544loPI   C3A 8697  13.274   3.727   9.157  0.0082  0.0630 -0.1756
  544loPI   C4A 8698  13.339   3.742   8.670 -0.0309 -0.0430 -0.0705
  544loPI   C5A 8699  13.153   3.616   8.289 -0.2661 -0.1011 -0.0658
  544loPI   C6A 8700  13.117   3.673   7.883  0.1428 -0.1075 -0.0250
  544loPI   C1B 8701  12.850   4.091   9.831 -0.1397 -0.0050  0.0482
  544loPI   C2B 8702  12.913   4.102   9.340 -0.4369 -0.4224  0.0778
  544loPI   C3B 8703  13.071   4.162   8.811 -0.3989  0.2216 -0.1366
  544loPI   C4B 8704  12.930   4.086   8.417  0.0506 -0.1613 -0.0757
  545loPI    C1 8705  17.564   1.498  11.002 -0.0462  0.2379  0.1461
  545loPI    C2 8706  17.317   1.229  11.166  0.0242  0.1358  0.0860
  545loPI    C3 8707  17.577   1.427  11.396  0.0682  0.0505  0.1100
  545loPI   PO4 8708  17.402   1.540  10.745 -0.0825  0.1041 -0.0203
  545loPI   GL1 8709  17.053   1.632  10.487 -0.2258  0.0749  0.1147
  545loPI   GL2 8710  16.912   1.670  10.376  0.1554  0.0466  0.1614
  545loPI   C1A 8711  17.153   2.110  10.203 -0.1617  0.0950  0.2345
  545loPI   C2A 8712  17.041   2.320   9.818 -0.2068  0.1167  0.2356
  545loPI   C3A 8713  17.081   2.358   9.387 -0.0533  0.0399 -0.0450
  545loPI   C4A 8714  17.013   2.306   8.982  0.3429  0.0460 -0.2822
  545loPI   C5A 8715  16.853   2.406   8.545  0.1766 -0.0181 -0.0488
  545loPI   C6A 8716  16.732   2.314   8.079 -0.1187  0.2146 -0.1182
  545loPI   C1B 8717  16.784   1.817   9.965 -0.0851 -0.0490  0.3397
  545loPI   C2B 8718  16.866   1.914   9.589 -0.0419 -0.1907  0.0681
  545loPI   C3B 8719  16.752   1.854   9.168  0.2581  0.0651 -0.0230
  545loPI   C4B 8720  16.839   1.689   8.737 -0.1943  0.2188 -0.1562
  546loPI    C1 8721   9.614   6.327  10.960 -0.0394 -0.0236 -0.0476
  546loPI    C2 8722   9.744   5.949  10.960  0.1548  0.0421 -0.0369
  546loPI    C3 8723   9.834   6.192  11.265 -0.2905 -0.0092  0.1433
  546loPI   PO4 8724   9.600   6.358  10.647  0.0081 -0.3424  0.3188
  546loPI   GL1 8725   9.622   6.546  10.389  0.0756  0.2693 -0.2131
  546loPI   GL2 8726   9.658   6.904  10.318  0.1317 -0.0296  0.0645
  546loPI   C1A 8727   9.654   6.432   9.994 -0.3070 -0.2910  0.1174
  546loPI   C2A 8728   9.571   6.508   9.505 -0.0085  0.2401 -0.1228
  546loPI   C3A 8729   9.562   6.554   9.093  0.1951 -0.4662  0.0351
  546loPI   C4A 8730   9.531   6.544   8.792 -0.3626 -0.3506  0.0772
  546loPI   C5A 8731   9.497   6.612   8.361  0.0326  0.1577 -0.0694
  546loPI   C6A 8732   9.655   7.013   8.142 -0.0261  0.1262 -0.0582
  546loPI   C1B 8733   9.591   6.906   9.836 -0.0732 -0.2004  0.0786
  546loPI   C2B 8734   9.732   6.958   9.348  0.2304 -0.1056  0.3217
  546loPI   C3B 8735   9.760   7.008   8.939 -0.0457  0.2952 -0.2772
  546loPI   C4B 8736   9.946   6.920   8.627  0.1006  0.0121 -0.0988
  547loPI    C1 8737   4.133   0.465  10.806  0.0224 -0.0031  0.2463
  547loPI    C2 8738   4.162   0.726  11.108  0.1518  0.3035 -0.0247
  547loPI    C3 8739   4.477   0.500  11.008  0.0594  0.0847  0.1688
  547loPI   PO4 8740   4.107   0.592  10.590 -0.0434  0.0823  0.4772
  547loPI   GL1 8741   4.028   0.944  10.227 -0.1239 -0.1747  0.2209
  547loPI   GL2 8742   4.273   1.243  10.244  0.2253 -0.1835 -0.0914
  547loPI   C1A 8743   4.040   0.930   9.799 -0.0736  0.0160 -0.2727
  547loPI   C2A 8744   3.959   0.955   9.384 -0.1431 -0.1336 -0.1538
  547loPI   C3A 8745   3.970   0.926   8.959 -0.3314  0.2007  0.1176
  547loPI   C4A 8746   3.970   0.954   8.591 -0.1706  0.1400 -0.0819
  547loPI   C5A 8747   4.168   0.973   8.239 -0.3810 -0.3737  0.2518
  547loPI   C6A 8748   4.596   0.817   8.034  0.2249  0.0994  0.0053
  547loPI   C1B 8749   4.186   1.378   9.854  0.2149 -0.3290 -0.0162
  547loPI   C2B 8750   4.222   1.471   9.453 -0.0111 -0.1228 -0.0610
  547loPI   C3B 8751   4.276   1.483   9.035 -0.1851 -0.0954  0.1477
  547loPI   C4B 8752   4.222   1.369   8.669  0.1649  0.2957 -0.0285
  548loPI    C1 8753   9.610  13.162  10.659 -0.0450  0.0088  0.0462
  548loPI    C2 8754   9.853  13.067  10.961  0.1237  0.1906 -0.0301
  548loPI    C3 8755   9.622  13.393  10.985  0.1097  0.1846 -0.0819
  548loPI   PO4 8756   9.782  13.093  10.420 -0.2247  0.1122 -0.0729
  548loPI   GL1 8757   9.957  12.801  10.166 -0.0092 -0.0620 -0.0410
  548loPI   GL2 8758  10.237  12.556  10.312  0.0320 -0.0438 -0.0459
  548loPI   C1A 8759   9.901  12.866   9.640  0.1083  0.2900  0.1542
  548loPI   C2A 8760  10.145  12.769   9.238  0.1005  0.0171 -0.1895
  548loPI   C3A 8761  10.193  12.886   8.800  0.2484 -0.4107  0.2539
  548loPI   C4A 8762  10.154  12.742   8.345  0.0267  0.0110 -0.2334
  548loPI   C5A 8763  10.487  12.555   8.198  0.1620 -0.2685 -0.1272
  548loPI   C6A 8764  10.868  12.633   7.886 -0.0829 -0.3444 -0.0409
  548loPI   C1B 8765  10.400  12.292   9.982  0.0884 -0.0942 -0.1069
  548loPI   C2B 8766  10.463  12.387   9.492 -0.1459 -0.0989 -0.2085
  548loPI   C3B 8767  10.358  12.337   9.062 -0.2043  0.1123 -0.2241
  548loPI   C4B 8768  10.439  12.423   8.746  0.0954 -0.0342 -0.0195
  549loPI    C1 8769  13.439  13.202  11.203  0.1223 -0.0120 -0.1147
  549loPI    C2 8770  13.717  13.388  11.421  0.2290 -0.1640 -0.1190
  549loPI    C3 8771  13.641  13.001  11.483 -0.0296 -0.1077 -0.0727
  549loPI   PO4 8772  13.478  13.162  10.876 -0.2159 -0.0170 -0.1291
  549loPI   GL1 8773  13.676  12.971  10.560 -0.2368  0.1471 -0.1033
  549loPI   GL2 8774  13.442  12.721  10.397  0.0197 -0.2269  0.0658
  549loPI   C1A 8775  13.680  13.203  10.217 -0.2451  0.0581 -0.1708
  549loPI   C2A 8776  13.679  13.205   9.779  0.0212 -0.0982  0.0244
  549loPI   C3A 8777  13.685  13.168   9.331  0.1911  0.0958 -0.1375
  549loPI   C4A 8778  13.673  13.161   8.961 -0.1801 -0.0508 -0.0252
  549loPI   C5A 8779  13.736  13.172   8.602  0.1927 -0.1692  0.2665
  549loPI   C6A 8780  13.619  13.228   8.170  0.0162  0.0987 -0.1499
  549loPI   C1B 8781  13.389  12.719   9.877  0.0556 -0.1172  0.1379
  549loPI   C2B 8782  13.459  12.764   9.421  0.0601 -0.1372 -0.1299
  549loPI   C3B 8783  13.482  12.713   9.032 -0.0555 -0.0986  0.1006
  549loPI   C4B 8784  13.544  12.700   8.489  0.3136  0.0585 -0.1659
  550loPI    C1 8785   7.891  13.305  10.490  0.1072  0.0920 -0.1079
  550loPI    C2 8786   7.632  13.608  10.458  0.0340  0.0426  0.0108
  550loPI    C3 8787   7.858  13.572  10.786  0.0164 -0.0515  0.0129
  550loPI   PO4 8788   8.083  13.333  10.305 -0.1738  0.2359 -0.0837
  550loPI   GL1 8789   8.191  12.897  10.033  0.0230 -0.2832 -0.1912
  550loPI   GL2 8790   8.476  12.830  10.074 -0.2767  0.1973  0.0066
  550loPI   C1A 8791   8.016  12.971   9.661 -0.1182  0.2290 -0.2329
  550loPI   C2A 8792   7.962  12.979   9.230 -0.0119  0.2162  0.1356
  550loPI   C3A 8793   8.042  13.009   8.890  0.0010 -0.0306  0.2046
  550loPI   C4A 8794   8.209  13.341   8.640 -0.0626 -0.2343 -0.0548
  550loPI   C5A 8795   8.305  13.500   8.245 -0.0436 -0.1866 -0.0846
  550loPI   C6A 8796   8.123  13.734   8.016  0.3560  0.0614  0.2463
  550loPI   C1B 8797   8.484  12.738   9.527 -0.0637  0.0003 -0.0445
  550loPI   C2B 8798   8.448  12.679   9.041 -0.2761 -0.0917  0.0397
  550loPI   C3B 8799   8.477  12.857   8.711 -0.2326  0.0522  0.0470
  550loPI   C4B 8800   8.422  12.982   8.312  0.0358  0.2443 -0.0579
  551loPI    C1 8801   6.973   4.460  11.227 -0.0143  0.0153 -0.0995
  551loPI    C2 8802   6.994   4.473  11.626 -0.0596  0.1212 -0.1002
  551loPI    C3 8803   7.090   4.137  11.431  0.2704  0.1652 -0.0203
  551loPI   PO4 8804   7.098   4.689  11.148  0.1084 -0.2894 -0.2475
  551loPI   GL1 8805   7.121   4.762  10.712 -0.1550  0.1277  0.1133
  551loPI   GL2 8806   6.964   4.484  10.592 -0.1652  0.0413  0.2734
  551loPI   C1A 8807   7.353   4.816  10.375  0.1406  0.0957  0.1472
  551loPI   C2A 8808   7.333   4.864   9.947 -0.2452  0.0388 -0.3426
  551loPI   C3A 8809   7.398   4.949   9.547 -0.0566 -0.0034 -0.1134
  551loPI   C4A 8810   7.330   4.944   9.153  0.1401  0.1046  0.0472
  551loPI   C5A 8811   7.481   4.885   8.722 -0.0311 -0.1477 -0.0648
  551loPI   C6A 8812   7.709   4.652   8.372  0.0598  0.1466 -0.1599
  551loPI   C1B 8813   7.114   4.439  10.112  0.1783 -0.1713 -0.2073
  551loPI   C2B 8814   7.160   4.523   9.652 -0.0380  0.1240 -0.0663
  551loPI   C3B 8815   7.149   4.400   9.226 -0.4392  0.0289 -0.0579
  551loPI   C4B 8816   7.131   4.493   8.837  0.0799 -0.1534 -0.4291
  552loPI    C1 8817  14.966   9.458  10.815  0.1365 -0.0209 -0.0927
  552loPI    C2 8818  14.732   9.141  10.883 -0.0838  0.1901  0.1536
  552loPI    C3 8819  14.990   9.263  11.164  0.1804  0.0817 -0.0379
  552loPI   PO4 8820  14.840   9.648  10.782  0.0810  0.0396 -0.0272
  552loPI   GL1 8821  14.543   9.655  10.573 -0.0223  0.1546  0.2697
  552loPI   GL2 8822  14.337   9.464  10.730  0.1097  0.0757  0.0398
  552loPI   C1A 8823  14.455   9.765  10.150  0.3209 -0.0071  0.0303
  552loPI   C2A 8824  14.464   9.718   9.746 -0.1573  0.0049 -0.5354
  552loPI   C3A 8825  14.640   9.686   9.347  0.1842 -0.1821  0.2347
  552loPI   C4A 8826  14.586   9.704   8.922  0.1929  0.1653 -0.0966
  552loPI   C5A 8827  14.666   9.665   8.463 -0.3860 -0.0974  0.2650
  552loPI   C6A 8828  14.593   9.948   8.098 -0.2754 -0.0682  0.0989
  552loPI   C1B 8829  14.339   9.322  10.230  0.0176  0.0878  0.1527
  552loPI   C2B 8830  14.295   9.242   9.817 -0.1901 -0.0462 -0.0833
  552loPI   C3B 8831  14.320   9.169   9.377 -0.1338 -0.0088 -0.0852
  552loPI   C4B 8832  14.502   9.213   9.090 -0.3161 -0.0615  0.2665
  553loPI    C1 8833  10.493  17.682  11.003 -0.2490 -0.1621  0.0130
  553loPI    C2 8834  10.284  18.004  11.116 -0.2231 -0.1810  0.1151
  553loPI    C3 8835  10.551  17.840  11.365  0.0554 -0.0406 -0.0861
  553loPI   PO4 8836  10.544  17.720  10.781  0.0392  0.2609 -0.1087
  553loPI   GL1 8837  10.423  17.746  10.342  0.0681  0.1964  0.1070
  553loPI   GL2 8838  10.455  17.382  10.412  0.0929 -0.2971  0.1936
  553loPI   C1A 8839  10.446  17.546   9.931  0.2688 -0.1280  0.1704
  553loPI   C2A 8840  10.419  17.785   9.554 -0.0762 -0.1838  0.0563
  553loPI   C3A 8841  10.517  17.837   9.188  0.0644  0.0660 -0.0090
  553loPI   C4A 8842  10.574  17.745   8.709 -0.1411 -0.0023 -0.1658
  553loPI   C5A 8843  10.665  17.583   8.324 -0.1099  0.2722 -0.1101
  553loPI   C6A 8844  10.787  17.618   7.954 -0.0275  0.0560  0.0364
  553loPI   C1B 8845  10.719  17.167  10.151 -0.0337  0.0266 -0.4148
  553loPI   C2B 8846  10.764  17.280   9.723 -0.1232 -0.1688  0.0062
  553loPI   C3B 8847  10.776  17.400   9.362 -0.0550  0.0253  0.0882
  553loPI   C4B 8848  10.875  17.434   8.945 -0.1831 -0.0673 -0.0268
  554loPI    C1 8849   0.769  10.590  11.153 -0.2950 -0.0150  0.2816
  554loPI    C2 8850   0.904  10.226  11.250  0.0035  0.1032  0.3181
  554loPI    C3 8851   0.716  10.448  11.524 -0.1916 -0.0273  0.2918
  554loPI   PO4 8852   0.641  10.519  10.983  0.0888 -0.0140  0.2205
  554loPI   GL1 8853   0.537  10.427  10.562 -0.1305 -0.0079 -0.0813
  554loPI   GL2 8854   0.863  10.577  10.461  0.1514 -0.1073  0.0168
  554loPI   C1A 8855   0.547  10.416  10.091 -0.1771 -0.0227  0.0457
  554loPI   C2A 8856   0.588  10.403   9.625  0.4041 -0.3317  0.0046
  554loPI   C3A 8857   0.610  10.383   9.230  0.1938 -0.0980  0.1190
  554loPI   C4A 8858   0.497  10.469   8.806 -0.0974  0.3002 -0.0545
  554loPI   C5A 8859   0.323  10.792   8.544  0.0394 -0.2020  0.1759
  554loPI   C6A 8860   0.035  11.067   8.486  0.1223  0.4474 -0.2350
  554loPI   C1B 8861   1.078  10.507  10.126 -0.1724  0.2517 -0.2950
  554loPI   C2B 8862   1.082  10.478   9.641  0.1888 -0.1759  0.0769
  554loPI   C3B 8863   1.146  10.475   9.234 -0.2708 -0.2823  0.0711
  554loPI   C4B 8864   1.092  10.488   8.802 -0.0387  0.1173 -0.1025
  555loPI    C1 8865   3.310   0.347  10.914  0.1451 -0.1382 -0.0544
  555loPI    C2 8866   3.686   0.271  11.030  0.1440  0.1008  0.1123
  555loPI    C3 8867   3.432   0.454  11.280  0.0008  0.1975 -0.1015
  555loPI   PO4 8868   3.305   0.415  10.693  0.2461  0.1969  0.0775
  555loPI   GL1 8869   3.649   0.703  10.412 -0.0846  0.0815  0.2679
  555loPI   GL2 8870   3.600   0.949  10.470 -0.2923  0.0553 -0.0891
  555loPI   C1A 8871   3.687   0.613  10.024  0.0801 -0.0263 -0.3665
  555loPI   C2A 8872   3.560   0.735   9.624  0.0156 -0.0141 -0.0733
  555loPI   C3A 8873   3.427   0.953   9.257  0.0625 -0.0066  0.0889
  555loPI   C4A 8874   3.488   0.894   8.817 -0.1933  0.1710  0.0842
  555loPI   C5A 8875   3.539   0.861   8.322 -0.0519  0.0862 -0.1747
  555loPI   C6A 8876   3.744   0.890   7.961 -0.0899  0.1030  0.0090
  555loPI   C1B 8877   3.725   1.344  10.136  0.0070  0.2548 -0.0630
  555loPI   C2B 8878   3.738   1.432   9.663  0.0947  0.3108 -0.1798
  555loPI   C3B 8879   3.634   1.405   9.196  0.1456  0.0828  0.1772
  555loPI   C4B 8880   3.717   1.372   8.742  0.0362 -0.1423 -0.1783
  556loPI    C1 8881   5.592   3.532  11.204 -0.0770  0.1565  0.0780
  556loPI    C2 8882   5.219   3.399  11.257 -0.0721  0.0541 -0.1338
  556loPI    C3 8883   5.526   3.206  11.426 -0.1230  0.2091  0.1420
  556loPI   PO4 8884   5.576   3.609  10.938  0.0740 -0.0567  0.0855
  556loPI   GL1 8885   5.497   3.442  10.566 -0.1572 -0.2200 -0.1355
  556loPI   GL2 8886   5.710   3.722  10.475  0.0378 -0.3709 -0.2529
  556loPI   C1A 8887   5.468   3.343  10.164 -0.1512  0.0727 -0.3880
  556loPI   C2A 8888   5.651   3.368   9.790  0.1530 -0.0029  0.0815
  556loPI   C3A 8889   5.731   3.368   9.305 -0.0321  0.0683  0.3732
  556loPI   C4A 8890   5.692   3.476   8.935  0.0562 -0.0328  0.3889
  556loPI   C5A 8891   5.445   3.708   8.641  0.2669  0.0600 -0.1354
  556loPI   C6A 8892   5.052   3.609   8.429 -0.1385 -0.3021 -0.2616
  556loPI   C1B 8893   5.863   3.763  10.019  0.1643 -0.1834 -0.1860
  556loPI   C2B 8894   5.826   3.863   9.651  0.4011 -0.2201 -0.0466
  556loPI   C3B 8895   5.867   3.839   9.208  0.2510 -0.0927 -0.0391
  556loPI   C4B 8896   5.879   3.915   8.795 -0.0223  0.1365  0.1546
  557loPI    C1 8897  12.158   7.390  10.915  0.0216 -0.0834 -0.1450
  557loPI    C2 8898  12.328   7.050  11.035  0.1162  0.0598  0.1343
  557loPI    C3 8899  12.094   7.255  11.286 -0.1140  0.0917 -0.1030
  557loPI   PO4 8900  12.326   7.512  10.827 -0.0961  0.4882  0.0481
  557loPI   GL1 8901  12.598   7.655  10.404 -0.2764 -0.0335 -0.1376
  557loPI   GL2 8902  12.160   7.723  10.298 -0.2088  0.1903 -0.1382
  557loPI   C1A 8903  12.610   7.708   9.929  0.0973 -0.0352 -0.1683
  557loPI   C2A 8904  12.739   7.671   9.492  0.0098  0.1697  0.0736
  557loPI   C3A 8905  12.611   7.650   9.064  0.0533  0.0609 -0.0176
  557loPI   C4A 8906  12.722   7.748   8.661  0.3528 -0.0613  0.2991
  557loPI   C5A 8907  12.739   7.845   8.270  0.1054  0.1035  0.1012
  557loPI   C6A 8908  12.868   7.825   7.790 -0.2033  0.2090  0.1982
  557loPI   C1B 8909  12.111   7.653   9.898  0.1823  0.1237  0.2636
  557loPI   C2B 8910  12.146   7.597   9.512 -0.3228 -0.2352  0.1054
  557loPI   C3B 8911  12.105   7.608   9.025  0.2701 -0.0545 -0.2370
  557loPI   C4B 8912  12.259   7.748   8.705 -0.1661 -0.0403 -0.0817
  558loPI    C1 8913   9.511  11.350  11.077 -0.1619  0.0347 -0.2979
  558loPI    C2 8914   9.147  11.411  10.925 -0.2602  0.0614 -0.0565
  558loPI    C3 8915   9.188  11.225  11.276 -0.0396  0.0436 -0.0904
  558loPI   PO4 8916   9.685  11.284  10.794  0.1832  0.0431  0.3013
  558loPI   GL1 8917  10.065  11.311  10.452  0.0849 -0.0949 -0.3355
  558loPI   GL2 8918   9.845  11.432  10.294 -0.0203  0.0902  0.0089
  558loPI   C1A 8919  10.282  11.106  10.050  0.1101  0.1821  0.1567
  558loPI   C2A 8920  10.230  10.984   9.648 -0.0111  0.0437 -0.2770
  558loPI   C3A 8921  10.286  10.997   9.198  0.1114 -0.0111 -0.1029
  558loPI   C4A 8922  10.285  11.092   8.784 -0.3035 -0.0653 -0.2508
  558loPI   C5A 8923  10.183  10.977   8.393 -0.0442 -0.1542 -0.1776
  558loPI   C6A 8924   9.761  10.981   8.231 -0.1268 -0.0599  0.1277
  558loPI   C1B 8925   9.910  11.497   9.861  0.0129 -0.2893  0.0249
  558loPI   C2B 8926   9.966  11.406   9.510  0.1539  0.1402 -0.2757
  558loPI   C3B 8927   9.963  11.448   9.061 -0.1421  0.0884 -0.1603
  558loPI   C4B 8928   9.853  11.292   8.657  0.1280  0.3282 -0.1297
  559loPI    C1 8929   5.539   0.613  10.729 -0.2174 -0.2643 -0.1971
  559loPI    C2 8930   5.622   0.750  11.095 -0.1401  0.1614 -0.3686
  559loPI    C3 8931   5.409   0.415  11.051 -0.0118  0.0165  0.0644
  559loPI   PO4 8932   5.740   0.782  10.618 -0.1303  0.2187  0.0756
  559loPI   GL1 8933   5.733   1.022  10.256 -0.1455  0.2016  0.2150
  559loPI   GL2 8934   5.518   1.083  10.079  0.1103 -0.1615  0.0714
  559loPI   C1A 8935   6.088   1.110  10.094 -0.0936 -0.2592  0.1834
  559loPI   C2A 8936   6.186   1.173   9.628 -0.4162  0.0258  0.2163
  559loPI   C3A 8937   6.189   1.206   9.170  0.0140 -0.2301  0.0347
  559loPI   C4A 8938   6.202   1.288   8.757  0.1436 -0.1079 -0.1343
  559loPI   C5A 8939   5.900   1.280   8.399 -0.4441  0.0256  0.1499
  559loPI   C6A 8940   5.584   1.346   8.223  0.0412 -0.0074 -0.2153
  559loPI   C1B 8941   5.672   1.080   9.747  0.0333 -0.0021  0.2817
  559loPI   C2B 8942   5.710   1.163   9.394 -0.1177  0.1165  0.1446
  559loPI   C3B 8943   5.701   1.175   8.942 -0.0231 -0.1105  0.1091
  559loPI   C4B 8944   5.484   1.035   8.553 -0.1164  0.1203 -0.0838
  560loPI    C1 8945   8.058   0.573  10.945  0.0629  0.0131  0.1817
  560loPI    C2 8946   8.096   0.674  11.330  0.0463  0.0298  0.1790
  560loPI    C3 8947   8.228   0.319  11.202  0.0326  0.0156  0.2042
  560loPI   PO4 8948   8.093   0.766  10.791 -0.0719  0.1498  0.1946
  560loPI   GL1 8949   7.872   0.918  10.413 -0.1067  0.3391  0.2320
  560loPI   GL2 8950   8.033   0.756  10.333  0.1493  0.2643  0.1286
  560loPI   C1A 8951   7.655   1.131  10.066  0.0908 -0.1683  0.1715
  560loPI   C2A 8952   7.729   1.185   9.611  0.0335 -0.0251 -0.2180
  560loPI   C3A 8953   7.606   1.283   9.222  0.2155  0.2066  0.1672
  560loPI   C4A 8954   7.716   1.435   8.829 -0.1779  0.0502 -0.0402
  560loPI   C5A 8955   7.568   1.408   8.361 -0.4929 -0.0443  0.0244
  560loPI   C6A 8956   7.527   1.224   7.912 -0.0619 -0.0598  0.0686
  560loPI   C1B 8957   7.946   0.744   9.884  0.1211 -0.0415 -0.0371
  560loPI   C2B 8958   8.052   0.783   9.483 -0.0671  0.2512 -0.0415
  560loPI   C3B 8959   8.000   0.934   9.026 -0.0217 -0.1516  0.1326
  560loPI   C4B 8960   8.188   0.964   8.627 -0.1082  0.2491 -0.2102
  561loPI    C1 8961  16.447   3.914  11.394 -0.0595 -0.0462  0.1442
  561loPI    C2 8962  16.443   4.313  11.380  0.0953 -0.0529 -0.1793
  561loPI    C3 8963  16.204   4.102  11.139  0.1042 -0.1578 -0.0972
  561loPI   PO4 8964  16.650   3.842  11.257  0.1714 -0.3132  0.0616
  561loPI   GL1 8965  16.644   3.827  10.794  0.0652  0.2678 -0.0968
  561loPI   GL2 8966  16.343   3.768  10.842  0.0945  0.2085  0.1034
  561loPI   C1A 8967  16.894   4.008  10.442 -0.2753  0.4665  0.3706
  561loPI   C2A 8968  16.864   3.973   9.948  0.0399 -0.0451 -0.0989
  561loPI   C3A 8969  16.979   4.025   9.383  0.1056 -0.0040 -0.0860
  561loPI   C4A 8970  16.934   4.030   9.073 -0.2017 -0.0100 -0.0130
  561loPI   C5A 8971  16.736   3.987   8.648  0.2550 -0.0249 -0.1170
  561loPI   C6A 8972  16.328   3.948   8.667  0.1153 -0.0985  0.1252
  561loPI   C1B 8973  16.294   3.913  10.380 -0.2076  0.0916 -0.2737
  561loPI   C2B 8974  16.430   3.990  10.026 -0.3613  0.2668  0.0310
  561loPI   C3B 8975  16.481   4.109   9.646  0.2413 -0.2761 -0.2280
  561loPI   C4B 8976  16.416   3.964   9.240 -0.0945 -0.0629 -0.1032
  562loPI    C1 8977   0.839   6.566  11.338 -0.1658 -0.1000 -0.0922
  562loPI    C2 8978   0.487   6.659  11.504 -0.1263 -0.1720  0.0328
  562loPI    C3 8979   0.600   6.276  11.475 -0.0708 -0.1508 -0.0327
  562loPI   PO4 8980   0.806   6.701  11.135 -0.0913  0.2178  0.1478
  562loPI   GL1 8981   0.754   6.752  10.700  0.0896  0.2395  0.2840
  562loPI   GL2 8982   0.533   6.568  10.523  0.1407  0.0619 -0.6058
  562loPI   C1A 8983   1.234   6.866  10.569  0.0667  0.0262 -0.0223
  562loPI   C2A 8984   1.340   6.878  10.135  0.1687  0.0304 -0.2537
  562loPI   C3A 8985   1.329   6.934   9.714 -0.1960 -0.1747 -0.1353
  562loPI   C4A 8986   1.468   6.930   9.252 -0.0072 -0.2758  0.1261
  562loPI   C5A 8987   1.541   6.861   8.781  0.2012 -0.1525 -0.0739
  562loPI   C6A 8988   1.500   7.104   8.311 -0.2973 -0.0265  0.0903
  562loPI   C1B 8989   0.603   6.449  10.062  0.2388 -0.0242  0.1008
  562loPI   C2B 8990   0.734   6.385   9.615 -0.2572  0.0707 -0.1794
  562loPI   C3B 8991   0.769   6.397   9.217  0.0116  0.0585  0.0793
  562loPI   C4B 8992   0.785   6.376   8.758  0.0166 -0.2066 -0.0148
  563loPI    C1 8993  13.972   7.549  11.082 -0.0284  0.0104 -0.1083
  563loPI    C2 8994  13.814   7.829  11.320 -0.2194 -0.1122 -0.0893
  563loPI    C3 8995  14.207   7.829  11.245 -0.1488 -0.1004  0.2650
  563loPI   PO4 8996  13.748   7.509  10.907  0.0356  0.3486  0.1064
  563loPI   GL1 8997  13.710   7.713  10.504  0.1215  0.0297  0.1976
  563loPI   GL2 8998  13.867   7.518  10.412  0.2403  0.1331  0.1230
  563loPI   C1A 8999  13.629   7.742  10.006  0.2148 -0.3000  0.1723
  563loPI   C2A 9000  13.602   7.732   9.623 -0.0576 -0.2410 -0.1125
  563loPI   C3A 9001  13.684   7.719   9.163 -0.4551 -0.1140 -0.1711
  563loPI   C4A 9002  13.775   7.898   8.757  0.3141 -0.0498  0.1957
  563loPI   C5A 9003  13.742   8.191   8.340  0.2409 -0.0850  0.0450
  563loPI   C6A 9004  13.519   8.402   8.204  0.0795 -0.2257 -0.2832
  563loPI   C1B 9005  13.936   7.343  10.065  0.0765 -0.0519  0.1888
  563loPI   C2B 9006  14.062   7.274   9.669 -0.1279 -0.1038  0.0797
  563loPI   C3B 9007  14.031   7.350   9.234  0.0644  0.0548  0.0544
  563loPI   C4B 9008  14.000   7.334   8.752 -0.0666 -0.2484 -0.0300
  564loPI    C1 9009   3.670   2.339  11.112 -0.0537 -0.0274  0.0017
  564loPI    C2 9010   3.343   2.489  11.286 -0.1590 -0.1386 -0.0991
  564loPI    C3 9011   3.322   2.145  11.082  0.0270 -0.1614 -0.0816
  564loPI   PO4 9012   3.727   2.407  10.912  0.1026 -0.2250 -0.2487
  564loPI   GL1 9013   3.376   2.387  10.569  0.0141 -0.2165 -0.1993
  564loPI   GL2 9014   3.520   2.207  10.443  0.0076  0.0800 -0.0287
  564loPI   C1A 9015   3.348   2.655  10.260  0.0516  0.0059  0.0926
  564loPI   C2A 9016   3.274   2.715   9.825  0.1163 -0.1229  0.0954
  564loPI   C3A 9017   3.378   2.701   9.378 -0.1202 -0.2188 -0.0754
  564loPI   C4A 9018   3.473   2.657   8.949  0.0412 -0.0474  0.1695
  564loPI   C5A 9019   3.490   2.759   8.449  0.0203 -0.1998 -0.0966
  564loPI   C6A 9020   3.542   3.063   8.113 -0.0993 -0.0238 -0.0037
  564loPI   C1B 9021   3.549   2.247  10.040  0.1646 -0.1613 -0.0724
  564loPI   C2B 9022   3.603   2.228   9.695 -0.0065 -0.1754  0.0379
  564loPI   C3B 9023   3.721   2.314   9.320 -0.3876 -0.0535  0.3906
  564loPI   C4B 9024   3.798   2.213   8.843  0.0341 -0.0246 -0.2226
  565loPI    C1 9025  17.851   4.891  11.601 -0.2395  0.0792  0.0128
  565loPI    C2 9026  18.049   5.090  11.886  0.0514 -0.1518 -0.0232
  565loPI    C3 9027  17.932   4.713  11.950 -0.0714 -0.1323 -0.1312
  565loPI   PO4 9028  17.973   5.017  11.344 -0.2434 -0.0215  0.1470
  565loPI   GL1 9029  17.994   5.036  10.896 -0.0408  0.1849  0.3592
  565loPI   GL2 9030  18.100   4.702  10.879  0.1302 -0.1475  0.3829
  565loPI   C1A 9031  17.905   4.955  10.485 -0.1481  0.2172  0.1996
  565loPI   C2A 9032  17.845   4.889  10.091  0.4635  0.2037  0.4693
  565loPI   C3A 9033  17.905   5.058   9.659  0.1643  0.0714 -0.4789
  565loPI   C4A 9034  17.883   5.034   9.262  0.0440  0.0960  0.1203
  565loPI   C5A 9035  17.968   4.974   8.767  0.3936 -0.0237 -0.1010
  565loPI   C6A 9036  17.928   5.017   8.261 -0.1934  0.0805  0.0721
  565loPI   C1B 9037  18.142   4.564  10.442  0.1363 -0.0927  0.0843
  565loPI   C2B 9038  18.160   4.451  10.037  0.0465 -0.0779 -0.0700
  565loPI   C3B 9039  18.189   4.458   9.626 -0.2055  0.1741  0.1805
  565loPI   C4B 9040  18.203   4.619   9.243 -0.3750 -0.2213  0.1479
  566loPI    C1 9041   0.794  11.016  11.438  0.1197  0.0854  0.1236
  566loPI    C2 9042   0.464  10.936  11.649  0.1039 -0.2534 -0.0223
  566loPI    C3 9043   0.774  11.117  11.824 -0.1883  0.1501  0.0938
  566loPI   PO4 9044   0.722  11.115  11.194  0.1520  0.2214 -0.0014
  566loPI   GL1 9045   0.708  11.009  10.738 -0.1807 -0.0360  0.0939
  566loPI   GL2 9046   0.434  10.901  10.690  0.2808 -0.1467 -0.0613
  566loPI   C1A 9047   0.810  11.017  10.301  0.0247 -0.0790  0.0435
  566loPI   C2A 9048   0.742  10.842   9.919  0.1117 -0.2306 -0.1907
  566loPI   C3A 9049   0.830  10.888   9.494  0.1150  0.0461  0.0837
  566loPI   C4A 9050   0.880  10.833   9.031  0.4627 -0.0410 -0.2088
  566loPI   C5A 9051   0.855  10.879   8.555 -0.1238 -0.1287 -0.0363
  566loPI   C6A 9052   0.638  10.657   8.202  0.2514  0.0723 -0.1936
  566loPI   C1B 9053   0.347  10.825  10.325  0.0380 -0.1054  0.1486
  566loPI   C2B 9054   0.172  10.888   9.907 -0.1266 -0.3830 -0.1611
  566loPI   C3B 9055   0.244  10.828   9.468  0.0698 -0.0190 -0.0730
  566loPI   C4B 9056   0.360  10.868   9.040 -0.0139 -0.0701  0.2304
  567loPI    C1 9057  10.393  13.706  11.029  0.3072 -0.1823 -0.0301
  567loPI    C2 9058  10.602  14.020  11.161  0.0926 -0.0655  0.0370
  567loPI    C3 9059  10.471  13.744  11.419  0.1765 -0.1465 -0.0067
  567loPI   PO4 9060  10.565  13.641  10.834  0.0368 -0.0230  0.0108
  567loPI   GL1 9061  10.525  13.360  10.519 -0.1228  0.0790  0.0431
  567loPI   GL2 9062  10.805  13.380  10.335  0.1144  0.1489 -0.1858
  567loPI   C1A 9063  10.443  13.085  10.195  0.3693 -0.0262 -0.2663
  567loPI   C2A 9064  10.518  12.799   9.935  0.2708  0.0785 -0.1503
  567loPI   C3A 9065  10.650  12.820   9.539 -0.0654  0.2308  0.2489
  567loPI   C4A 9066  10.664  12.823   9.036  0.0538  0.0750 -0.3367
  567loPI   C5A 9067  10.677  12.897   8.646 -0.1076  0.1840 -0.1129
  567loPI   C6A 9068  10.850  12.922   8.292  0.1731 -0.2852  0.1272
  567loPI   C1B 9069  10.812  13.209   9.845 -0.2484  0.0439 -0.1754
  567loPI   C2B 9070  10.823  13.241   9.375 -0.4281 -0.1089 -0.0211
  567loPI   C3B 9071  10.832  13.385   8.943  0.0736 -0.1197  0.1113
  567loPI   C4B 9072  10.828  13.407   8.636  0.2866 -0.0328  0.1567
  568loPI    C1 9073   2.075  17.362  11.088 -0.1665 -0.1307  0.0361
  568loPI    C2 9074   1.878  17.611  11.331  0.0165  0.1785 -0.1254
  568loPI    C3 9075   2.244  17.481  11.430  0.0118  0.1495 -0.1455
  568loPI   PO4 9076   2.004  17.350  10.769  0.0697 -0.1103  0.1945
  568loPI   GL1 9077   2.068  17.230  10.344  0.0345 -0.0545  0.0477
  568loPI   GL2 9078   2.343  17.226  10.151  0.1166 -0.0579  0.1286
  568loPI   C1A 9079   1.853  17.146   9.909  0.3653 -0.1182 -0.1116
  568loPI   C2A 9080   1.844  17.153   9.470  0.2587 -0.4114  0.1482
  568loPI   C3A 9081   1.758  17.180   8.934  0.1950  0.0896  0.2816
  568loPI   C4A 9082   1.699  17.200   8.527 -0.1035 -0.3085  0.4446
  568loPI   C5A 9083   1.345  17.323   8.300  0.4122  0.0252  0.1117
  568loPI   C6A 9084   1.174  17.656   8.142  0.1816  0.1591 -0.1524
  568loPI   C1B 9085   2.326  17.188   9.748  0.4276 -0.2274 -0.4790
  568loPI   C2B 9086   2.338  17.291   9.389 -0.1879 -0.0970 -0.4049
  568loPI   C3B 9087   2.272  17.471   8.959 -0.0582 -0.0993 -0.1623
  568loPI   C4B 9088   2.262  17.653   8.548  0.0230  0.1798  0.0339
  569loPI    C1 9089   4.082  11.465  11.087 -0.1017 -0.0601  0.1672
  569loPI    C2 9090   4.016  11.146  11.320 -0.0430 -0.1435  0.0705
  569loPI    C3 9091   4.141  11.490  11.481  0.4965 -0.3468  0.1070
  569loPI   PO4 9092   4.258  11.382  10.847  0.0804 -0.2837  0.1632
  569loPI   GL1 9093   4.199  11.188  10.562 -0.0909  0.0606  0.2613
  569loPI   GL2 9094   4.234  11.062  10.436 -0.0643  0.0031 -0.0521
  569loPI   C1A 9095   3.889  11.260  10.180  0.0040 -0.3055 -0.3238
  569loPI   C2A 9096   3.826  11.334   9.711 -0.3210  0.0626 -0.0469
  569loPI   C3A 9097   3.884  11.339   9.305  0.2886 -0.0081  0.2250
  569loPI   C4A 9098   3.869  11.248   8.852  0.3173  0.0075  0.3252
  569loPI   C5A 9099   3.839  11.113   8.341 -0.0224  0.0786  0.2758
  569loPI   C6A 9100   3.935  11.289   7.948 -0.2582  0.0084  0.1378
  569loPI   C1B 9101   4.207  10.932  10.028  0.0799  0.2609  0.1122
  569loPI   C2B 9102   4.140  10.915   9.499 -0.1966 -0.4486  0.1054
  569loPI   C3B 9103   4.209  10.901   9.040  0.1665  0.0546 -0.1474
  569loPI   C4B 9104   4.191  10.813   8.579  0.3698 -0.1728  0.2588
  570loPI    C1 9105  15.267   7.500  10.974  0.0688 -0.0908  0.0206
  570loPI    C2 9106  14.967   7.457  11.235 -0.0311 -0.2026 -0.1110
  570loPI    C3 9107  15.324   7.589  11.360 -0.2718  0.4124 -0.0357
  570loPI   PO4 9108  15.163   7.514  10.775  0.2209 -0.1323  0.2150
  570loPI   GL1 9109  14.852   7.398  10.497  0.1400 -0.1667  0.1208
  570loPI   GL2 9110  14.607   7.490  10.534 -0.0276 -0.1493 -0.0440
  570loPI   C1A 9111  14.886   7.452  10.120 -0.0945  0.0365 -0.1744
  570loPI   C2A 9112  15.085   7.538   9.722  0.0555 -0.3702 -0.0343
  570loPI   C3A 9113  15.116   7.514   9.292 -0.3629  0.0660 -0.3539
  570loPI   C4A 9114  14.989   7.414   9.005 -0.0115  0.1905  0.1789
  570loPI   C5A 9115  15.089   7.388   8.558  0.0231 -0.0250 -0.3360
  570loPI   C6A 9116  14.980   7.009   8.289  0.0503  0.1536 -0.0641
  570loPI   C1B 9117  14.385   7.286  10.217  0.0563  0.0872  0.2061
  570loPI   C2B 9118  14.471   7.421   9.846 -0.1189 -0.0820 -0.2607
  570loPI   C3B 9119  14.631   7.397   9.415 -0.0517  0.2342 -0.0791
  570loPI   C4B 9120  14.476   7.366   9.061 -0.3406  0.2436 -0.2897
  571loPI    C1 9121   5.606  15.179  10.452  0.0384 -0.0240  0.1139
  571loPI    C2 9122   5.363  14.998  10.713  0.0939  0.1571  0.2939
  571loPI    C3 9123   5.373  15.398  10.692  0.2285  0.1470  0.1458
  571loPI   PO4 9124   5.610  15.110  10.299 -0.0321 -0.1357 -0.0755
  571loPI   GL1 9125   5.782  15.156   9.882 -0.1364  0.1169 -0.0886
  571loPI   GL2 9126   5.665  14.808   9.807 -0.0935  0.1135 -0.1669
  571loPI   C1A 9127   5.615  15.162   9.457  0.2361  0.0988 -0.0108
  571loPI   C2A 9128   5.590  15.116   8.953  0.1108 -0.1022 -0.0071
  571loPI   C3A 9129   5.369  15.262   8.628  0.1429 -0.3684 -0.1710
  571loPI   C4A 9130   5.352  15.255   8.182  0.0469 -0.5099  0.3779
  571loPI   C5A 9131   5.324  14.852   7.957 -0.0323 -0.0990 -0.0249
  571loPI   C6A 9132   5.678  14.639   8.102  0.0595 -0.1169  0.0215
  571loPI   C1B 9133   5.617  14.659   9.376  0.2514 -0.1634 -0.1237
  571loPI   C2B 9134   5.608  14.551   9.032  0.0639  0.1991 -0.0079
  571loPI   C3B 9135   5.627  14.335   8.593  0.3185 -0.2001 -0.2818
  571loPI   C4B 9136   5.674  14.011   8.246  0.2061  0.0603 -0.2891
  572loPI    C1 9137   6.270   8.458  11.264  0.0488  0.1259 -0.1465
  572loPI    C2 9138   6.428   8.119  11.406  0.1778  0.1318 -0.2733
  572loPI    C3 9139   6.277   8.390  11.658  0.3075  0.0949 -0.1542
  572loPI   PO4 9140   6.153   8.361  11.150 -0.2213  0.1335 -0.0517
  572loPI   GL1 9141   5.947   8.007  11.052 -0.1370 -0.0202 -0.2564
  572loPI   GL2 9142   5.882   7.676  10.984  0.1037 -0.1150  0.2635
  572loPI   C1A 9143   6.176   7.961  10.639  0.2052  0.0630 -0.0695
  572loPI   C2A 9144   6.198   8.011  10.188  0.2033  0.1664  0.0365
  572loPI   C3A 9145   6.202   7.978   9.647  0.1260 -0.2036 -0.1593
  572loPI   C4A 9146   6.310   7.918   9.142 -0.3094 -0.0644 -0.0238
  572loPI   C5A 9147   6.338   7.729   8.704  0.0666 -0.1299  0.0588
  572loPI   C6A 9148   6.336   7.672   8.243 -0.2255  0.1936 -0.5313
  572loPI   C1B 9149   6.005   7.504  10.729  0.0759 -0.1250 -0.1981
  572loPI   C2B 9150   6.028   7.554  10.342  0.0575 -0.0693 -0.0659
  572loPI   C3B 9151   6.001   7.471   9.921 -0.2246 -0.0586  0.2147
  572loPI   C4B 9152   6.196   7.476   9.497  0.4760 -0.1210  0.0203
  573loPI    C1 9153   6.626  10.180  11.204 -0.0509 -0.1472 -0.0048
  573loPI    C2 9154   6.761  10.511  11.024  0.0401 -0.1643  0.0312
  573loPI    C3 9155   6.615  10.531  11.396  0.0445 -0.1645  0.0329
  573loPI   PO4 9156   6.547  10.072  11.031  0.1583 -0.0220  0.0671
  573loPI   GL1 9157   6.415  10.142  10.609  0.1269 -0.1471  0.1656
  573loPI   GL2 9158   6.712  10.126  10.541  0.0495  0.3903  0.0141
  573loPI   C1A 9159   6.252  10.277  10.170 -0.1480 -0.1819  0.1913
  573loPI   C2A 9160   6.252  10.199   9.775  0.0095 -0.2812 -0.0382
  573loPI   C3A 9161   6.288  10.185   9.297  0.1005 -0.0353 -0.2122
  573loPI   C4A 9162   6.409  10.199   8.811  0.0069 -0.0956  0.1185
  573loPI   C5A 9163   6.301  10.385   8.438 -0.1407  0.1978  0.2403
  573loPI   C6A 9164   6.483  10.397   8.014  0.2923  0.2464  0.0678
  573loPI   C1B 9165   6.647   9.831  10.250 -0.2477  0.2751 -0.2202
  573loPI   C2B 9166   6.491   9.797   9.854 -0.2432 -0.3930  0.0614
  573loPI   C3B 9167   6.573   9.798   9.397 -0.3454 -0.2037 -0.2497
  573loPI   C4B 9168   6.715   9.853   8.959  0.0478 -0.0313  0.2894
  574loPI    C1 9169   4.961  11.158  10.956 -0.0513  0.0450  0.1956
  574loPI    C2 9170   4.967  11.390  11.282  0.0157  0.2762  0.0324
  574loPI    C3 9171   5.300  11.341  11.065  0.0004  0.0303  0.0615
  574loPI   PO4 9172   4.764  11.293  10.749 -0.0198 -0.0159 -0.3220
  574loPI   GL1 9173   4.749  11.127  10.411 -0.1958 -0.0458  0.0052
  574loPI   GL2 9174   4.948  10.911  10.511  0.0276  0.0967 -0.0793
  574loPI   C1A 9175   4.703  11.090  10.036  0.2370  0.0461 -0.0307
  574loPI   C2A 9176   4.632  11.005   9.570  0.0357  0.4521 -0.1403
  574loPI   C3A 9177   4.723  10.946   9.152 -0.1192 -0.1534  0.1457
  574loPI   C4A 9178   4.603  11.111   8.800 -0.2533  0.3341 -0.0672
  574loPI   C5A 9179   4.308  11.285   8.524  0.0181 -0.5337  0.0861
  574loPI   C6A 9180   4.119  11.675   8.232 -0.0353 -0.0645  0.1271
  574loPI   C1B 9181   4.994  10.640  10.066  0.2602 -0.2612  0.0367
  574loPI   C2B 9182   4.953  10.600   9.692 -0.1260  0.0929 -0.0396
  574loPI   C3B 9183   5.068  10.560   9.214  0.1889 -0.1889 -0.1822
  574loPI   C4B 9184   4.995  10.436   8.767 -0.0877 -0.0073  0.1478
  575loPI    C1 9185   8.863   6.101  11.212 -0.2631 -0.1101 -0.2733
  575loPI    C2 9186   8.572   6.114  11.486 -0.0154 -0.0909 -0.0070
  575loPI    C3 9187   8.927   5.955  11.579  0.0886 -0.0370 -0.3025
  575loPI   PO4 9188   8.746   5.960  10.996 -0.0524 -0.0520 -0.0305
  575loPI   GL1 9189   8.696   6.169  10.651  0.0502  0.3404  0.1962
  575loPI   GL2 9190   8.819   6.022  10.461 -0.4194 -0.0528  0.1676
  575loPI   C1A 9191   8.486   6.398  10.356  0.0382  0.0812 -0.0007
  575loPI   C2A 9192   8.478   6.341   9.913 -0.0454 -0.0391  0.2301
  575loPI   C3A 9193   8.596   6.359   9.444  0.1810  0.0574  0.0328
  575loPI   C4A 9194   8.526   6.316   9.059 -0.0988 -0.0442 -0.3320
  575loPI   C5A 9195   8.591   6.312   8.621 -0.1212  0.0862  0.3373
  575loPI   C6A 9196   8.578   6.534   8.250  0.1563  0.0798 -0.1116
  575loPI   C1B 9197   8.750   5.972  10.083 -0.1311  0.4571 -0.1449
  575loPI   C2B 9198   8.863   5.962   9.679 -0.1355 -0.1578 -0.4361
  575loPI   C3B 9199   8.871   5.892   9.179  0.2602  0.2778  0.0319
  575loPI   C4B 9200   8.927   5.943   8.787  0.2480 -0.0110  0.1060
  576loPI    C1 9201  10.262   2.967  11.197 -0.1571  0.0114 -0.2960
  576loPI    C2 9202  10.237   2.592  11.334  0.1391  0.0063 -0.2493
  576loPI    C3 9203  10.414   2.875  11.555  0.1053  0.1265 -0.3749
  576loPI   PO4 9204  10.243   3.002  10.871  0.2121 -0.1632  0.0268
  576loPI   GL1 9205  10.381   3.254  10.508  0.0340  0.2482  0.1896
  576loPI   GL2 9206  10.666   3.299  10.540  0.1782 -0.0604  0.2572
  576loPI   C1A 9207  10.416   3.399  10.051 -0.0220 -0.0585 -0.0807
  576loPI   C2A 9208  10.539   3.416   9.562 -0.4194  0.1732 -0.1559
  576loPI   C3A 9209  10.545   3.423   9.162 -0.2571  0.0289  0.2414
  576loPI   C4A 9210  10.587   3.364   8.771 -0.0093 -0.1633 -0.1424
  576loPI   C5A 9211  10.481   3.487   8.386 -0.3301  0.2186  0.5023
  576loPI   C6A 9212  10.492   3.887   8.138 -0.1501  0.2944  0.0357
  576loPI   C1B 9213  10.817   3.131  10.260  0.0365  0.0158 -0.1653
  576loPI   C2B 9214  10.789   3.103   9.885 -0.1342  0.2846 -0.0064
  576loPI   C3B 9215  10.842   3.016   9.466  0.0287  0.1681  0.1787
  576loPI   C4B 9216  10.927   3.077   9.003 -0.0594  0.1987 -0.0567
  577loPI    C1 9217  16.474  11.805  11.143  0.0810 -0.1503 -0.0385
  577loPI    C2 9218  16.583  11.987  11.482  0.1520 -0.1210 -0.0769
  577loPI    C3 9219  16.220  11.822  11.452  0.1240 -0.0724 -0.0072
  577loPI   PO4 9220  16.493  11.990  10.950  0.3554 -0.0324 -0.0804
  577loPI   GL1 9221  16.310  12.031  10.583 -0.3090  0.2510 -0.2084
  577loPI   GL2 9222  16.106  12.246  10.687  0.0533  0.1519  0.2036
  577loPI   C1A 9223  16.201  11.980  10.188  0.1088 -0.0313  0.2910
  577loPI   C2A 9224  16.145  12.044   9.676 -0.0914 -0.2770  0.0395
  577loPI   C3A 9225  16.159  12.000   9.299  0.1559  0.0148  0.1533
  577loPI   C4A 9226  16.245  11.982   8.880 -0.3021 -0.1470 -0.2039
  577loPI   C5A 9227  16.247  11.909   8.502 -0.1096 -0.1014 -0.3314
  577loPI   C6A 9228  16.450  11.597   8.330  0.2456  0.0064  0.0221
  577loPI   C1B 9229  15.905  12.377  10.310  0.2536 -0.1885 -0.1363
  577loPI   C2B 9230  15.859  12.460  10.013 -0.0355  0.0708  0.0147
  577loPI   C3B 9231  15.852  12.452   9.596  0.0299  0.0290  0.2626
  577loPI   C4B 9232  15.870  12.397   9.241 -0.0447  0.0155 -0.2445
  578loPI    C1 9233   0.603  15.505  11.001 -0.2386  0.2501 -0.1051
  578loPI    C2 9234   0.866  15.781  11.120 -0.0602  0.0051  0.0794
  578loPI    C3 9235   0.714  15.522  11.384 -0.2773 -0.0324 -0.0791
  578loPI   PO4 9236   0.661  15.468  10.766 -0.3845  0.4007 -0.2636
  578loPI   GL1 9237   0.602  15.633  10.353  0.0940 -0.0845 -0.0947
  578loPI   GL2 9238   0.530  15.388  10.243 -0.1872 -0.0427  0.1063
  578loPI   C1A 9239   0.662  15.815   9.915 -0.2890 -0.0558 -0.0604
  578loPI   C2A 9240   0.542  15.757   9.500  0.0276  0.1525 -0.1136
  578loPI   C3A 9241   0.502  15.785   9.048  0.2674 -0.4885  0.0319
  578loPI   C4A 9242   0.469  15.710   8.604  0.0945 -0.0678  0.5660
  578loPI   C5A 9243   0.298  15.659   8.064 -0.2761  0.1704 -0.1349
  578loPI   C6A 9244  -0.151  15.442   7.942  0.1015 -0.1858  0.1755
  578loPI   C1B 9245   0.392  15.414   9.819 -0.2516  0.2097  0.0748
  578loPI   C2B 9246   0.280  15.365   9.462  0.0115 -0.2069  0.1669
  578loPI   C3B 9247   0.225  15.290   8.953 -0.1552  0.0122  0.4327
  578loPI   C4B 9248   0.221  15.219   8.530 -0.3180  0.1455 -0.0616
  579loPI    C1 9249  16.697   1.923  10.972 -0.2932  0.0147  0.0974
  579loPI    C2 9250  16.994   1.658  11.019 -0.1397  0.1374 -0.1589
  579loPI    C3 9251  16.952   1.960  11.278 -0.3186 -0.1355  0.1378
  579loPI   PO4 9252  16.703   1.942  10.713 -0.1825  0.1203 -0.1170
  579loPI   GL1 9253  16.726   2.164  10.456 -0.0431  0.2186 -0.4153
  579loPI   GL2 9254  16.693   2.488  10.792  0.1788  0.1961 -0.2891
  579loPI   C1A 9255  16.559   2.235  10.073  0.2959 -0.0935 -0.3742
  579loPI   C2A 9256  16.537   2.275   9.700  0.0018  0.0784  0.2074
  579loPI   C3A 9257  16.574   2.266   9.340  0.0576 -0.0282  0.1216
  579loPI   C4A 9258  16.537   2.216   8.899  0.0299  0.0897 -0.0702
  579loPI   C5A 9259  16.401   2.153   8.452 -0.0714 -0.1556 -0.1299
  579loPI   C6A 9260  16.605   1.744   8.270  0.0150 -0.1278  0.1254
  579loPI   C1B 9261  16.625   2.654  10.358  0.1153 -0.1978 -0.1191
  579loPI   C2B 9262  16.777   2.735   9.978 -0.0434 -0.1683 -0.1823
  579loPI   C3B 9263  16.808   2.744   9.536 -0.1421  0.0408 -0.1536
  579loPI   C4B 9264  16.773   2.714   9.061  0.0072 -0.0921  0.1599
  580loPI    C1 9265   5.099   2.942  11.372  0.0950 -0.0067  0.0317
  580loPI    C2 9266   4.849   3.219  11.515 -0.2029 -0.1843 -0.1353
  580loPI    C3 9267   4.931   2.893  11.732  0.5407  0.2534  0.2851
  580loPI   PO4 9268   5.041   2.972  11.103  0.1153 -0.0834  0.1218
  580loPI   GL1 9269   5.096   2.922  10.717  0.2720  0.0171 -0.1958
  580loPI   GL2 9270   5.301   2.659  10.621  0.2575 -0.0336  0.0766
  580loPI   C1A 9271   4.984   3.141  10.399 -0.3200  0.0895 -0.3087
  580loPI   C2A 9272   5.014   3.310  10.021  0.1541 -0.3389  0.2725
  580loPI   C3A 9273   5.090   3.281   9.615 -0.0386  0.0311  0.0995
  580loPI   C4A 9274   5.218   3.342   9.259  0.0610 -0.1626  0.1448
  580loPI   C5A 9275   5.214   3.309   8.914  0.1190 -0.1499  0.1379
  580loPI   C6A 9276   5.537   3.057   8.604  0.0419 -0.2786  0.0023
  580loPI   C1B 9277   5.332   2.750  10.250 -0.0810 -0.0029 -0.1291
  580loPI   C2B 9278   5.346   2.886   9.890  0.0112  0.1168  0.1430
  580loPI   C3B 9279   5.492   2.909   9.473 -0.2109 -0.1098  0.2543
  580loPI   C4B 9280   5.561   2.939   9.082  0.3156  0.2958  0.0765
  581loPI    C1 9281  12.990   5.018  11.092  0.1216  0.0197  0.3072
  581loPI    C2 9282  12.876   5.232  11.411 -0.0289  0.0434  0.2385
  581loPI    C3 9283  13.060   4.880  11.461  0.0262  0.0881  0.3514
  581loPI   PO4 9284  12.818   4.987  10.853 -0.0532  0.1390  0.2407
  581loPI   GL1 9285  13.062   5.172  10.414  0.1762  0.2541 -0.3650
  581loPI   GL2 9286  12.733   5.319  10.395 -0.0549  0.0724 -0.1185
  581loPI   C1A 9287  12.940   5.039  10.050 -0.4047 -0.3379  0.0850
  581loPI   C2A 9288  12.867   4.973   9.557  0.3479 -0.0012  0.4588
  581loPI   C3A 9289  12.865   5.022   9.159 -0.3395 -0.2069 -0.1411
  581loPI   C4A 9290  12.903   4.999   8.706  0.2333 -0.0662  0.2817
  581loPI   C5A 9291  12.936   4.901   8.279  0.0923  0.3679  0.0928
  581loPI   C6A 9292  13.153   4.559   8.170  0.0390  0.1492  0.0643
  581loPI   C1B 9293  12.610   5.454   9.942 -0.0307  0.1294  0.0758
  581loPI   C2B 9294  12.542   5.386   9.449  0.1320  0.1484  0.0265
  581loPI   C3B 9295  12.613   5.355   8.959  0.0338  0.0922  0.0896
  581loPI   C4B 9296  12.540   5.529   8.564  0.0794  0.2104  0.0347
  582loPI    C1 9297  10.585  14.706  10.664  0.0899  0.1999  0.4498
  582loPI    C2 9298  10.833  14.896  10.414 -0.1197  0.1603  0.2077
  582loPI    C3 9299  10.444  14.989  10.419 -0.2103 -0.2005  0.1467
  582loPI   PO4 9300  10.727  14.453  10.602 -0.1185 -0.0598 -0.2133
  582loPI   GL1 9301  10.782  14.387  10.194  0.1625  0.0088  0.0524
  582loPI   GL2 9302  10.693  14.219   9.901 -0.1233  0.1091  0.4794
  582loPI   C1A 9303  11.058  14.728  10.006 -0.1210  0.1315 -0.1388
  582loPI   C2A 9304  11.135  14.955   9.605 -0.4569 -0.1197  0.1872
  582loPI   C3A 9305  11.129  14.965   9.227 -0.1043  0.1825 -0.0752
  582loPI   C4A 9306  11.197  15.014   8.852 -0.1923 -0.4043  0.2623
  582loPI   C5A 9307  11.071  14.676   8.511  0.1674 -0.0556 -0.0846
  582loPI   C6A 9308  11.278  14.583   8.074 -0.1063  0.2477  0.1786
  582loPI   C1B 9309  10.668  14.224   9.466 -0.0348  0.0373 -0.4443
  582loPI   C2B 9310  10.690  14.196   9.050 -0.0923  0.0301 -0.1922
  582loPI   C3B 9311  10.779  14.248   8.606  0.3221  0.0787 -0.2348
  582loPI   C4B 9312  10.956  14.173   8.152  0.3089  0.1298  0.2684
  583loPI    C1 9313   6.852  14.808  10.682 -0.1802  0.1557  0.2771
  583loPI    C2 9314   6.737  14.509  10.922  0.0261  0.0210  0.2111
  583loPI    C3 9315   6.866  14.854  11.079 -0.0545  0.0154  0.2899
  583loPI   PO4 9316   6.972  14.661  10.497  0.0155 -0.1128 -0.2020
  583loPI   GL1 9317   6.824  14.489  10.112  0.1597 -0.0832  0.0241
  583loPI   GL2 9318   7.067  14.276  10.044  0.1838  0.0653  0.2060
  583loPI   C1A 9319   6.925  14.537   9.604 -0.1892 -0.1738  0.0105
  583loPI   C2A 9320   6.952  14.491   9.239  0.2101  0.2732 -0.0867
  583loPI   C3A 9321   6.974  14.812   8.854  0.1039 -0.1725 -0.2562
  583loPI   C4A 9322   7.015  14.944   8.416  0.1297 -0.0818 -0.0557
  583loPI   C5A 9323   6.962  14.994   7.898 -0.0725 -0.4885  0.0274
  583loPI   C6A 9324   6.951  15.125   7.585  0.3424  0.0307 -0.1879
  583loPI   C1B 9325   7.430  14.369   9.706  0.1054  0.2511  0.0157
  583loPI   C2B 9326   7.452  14.554   9.334  0.1146  0.1086 -0.3261
  583loPI   C3B 9327   7.516  14.685   8.876 -0.0619  0.0361  0.0779
  583loPI   C4B 9328   7.538  14.803   8.476 -0.2909  0.3593  0.0023
  584loPI    C1 9329  14.038   1.464  11.037 -0.1881  0.1642 -0.1079
  584loPI    C2 9330  13.812   1.593  11.341 -0.2439 -0.1458 -0.0147
  584loPI    C3 9331  14.199   1.513  11.400 -0.2150 -0.0466 -0.0667
  584loPI   PO4 9332  13.944   1.552  10.838  0.2516 -0.0268 -0.1654
  584loPI   GL1 9333  14.150   1.778  10.589  0.0345  0.0730  0.0530
  584loPI   GL2 9334  13.983   1.979  10.587  0.2213 -0.0287  0.2713
  584loPI   C1A 9335  14.320   1.553  10.208 -0.0820 -0.2200  0.2069
  584loPI   C2A 9336  14.292   1.591   9.810 -0.1884 -0.2943  0.0645
  584loPI   C3A 9337  14.239   1.641   9.317  0.0381 -0.0893 -0.1395
  584loPI   C4A 9338  14.137   1.639   8.894 -0.0184  0.4025 -0.1923
  584loPI   C5A 9339  14.073   1.877   8.460  0.3161 -0.2773 -0.1963
  584loPI   C6A 9340  13.717   2.097   8.267 -0.0761  0.1489  0.0903
  584loPI   C1B 9341  13.933   1.867  10.125 -0.4507  0.2213  0.2140
  584loPI   C2B 9342  13.956   2.089   9.830  0.2772  0.2421  0.1846
  584loPI   C3B 9343  13.964   2.097   9.407 -0.1213 -0.0063  0.1230
  584loPI   C4B 9344  13.910   2.074   8.958 -0.0885 -0.0817 -0.2129
  585loPI    C1 9345  11.233   0.548  10.914 -0.1199 -0.0456  0.2270
  585loPI    C2 9346  11.283   0.889  11.116 -0.0287  0.0391  0.0634
  585loPI    C3 9347  10.964   0.659  11.189  0.0358  0.0359  0.3477
  585loPI   PO4 9348  11.282   0.577  10.701  0.2379 -0.4631  0.4040
  585loPI   GL1 9349  11.650   0.561  10.465  0.0757  0.0402  0.0404
  585loPI   GL2 9350  11.395   0.781  10.263  0.3493  0.0038  0.2235
  585loPI   C1A 9351  11.710   0.402  10.098  0.1364  0.0015 -0.1307
  585loPI   C2A 9352  11.651   0.419   9.696  0.0075  0.1399  0.2902
  585loPI   C3A 9353  11.704   0.477   9.325  0.0075  0.2501  0.1234
  585loPI   C4A 9354  11.739   0.451   8.854  0.0384 -0.1362 -0.1456
  585loPI   C5A 9355  11.756   0.669   8.405 -0.1887 -0.1932 -0.0216
  585loPI   C6A 9356  11.908   0.616   8.116 -0.0243  0.2243 -0.1640
  585loPI   C1B 9357  11.436   0.831   9.769 -0.1383  0.2828  0.1107
  585loPI   C2B 9358  11.435   0.877   9.424  0.1694  0.3081 -0.0929
  585loPI   C3B 9359  11.452   0.820   9.055 -0.1569  0.0926 -0.2431
  585loPI   C4B 9360  11.495   0.971   8.658  0.5109 -0.0779 -0.2979
  586loPI    C1 9361  11.899   4.726  10.931  0.0955 -0.0021 -0.1468
  586loPI    C2 9362  11.503   4.781  10.946  0.1270  0.2449 -0.1765
  586loPI    C3 9363  11.728   4.857  11.268  0.1558  0.1439 -0.1724
  586loPI   PO4 9364  11.941   4.429  10.847 -0.1547  0.2752  0.0996
  586loPI   GL1 9365  12.025   4.261  10.519  0.3697  0.1948  0.0713
  586loPI   GL2 9366  12.353   4.412  10.465 -0.2345  0.0299  0.0497
  586loPI   C1A 9367  12.272   4.035  10.177 -0.0484  0.0942  0.0580
  586loPI   C2A 9368  12.337   4.084   9.710 -0.0261  0.2334  0.3468
  586loPI   C3A 9369  12.368   4.122   9.291 -0.0160 -0.0219  0.0989
  586loPI   C4A 9370  12.565   4.089   8.969  0.0753  0.0120  0.0938
  586loPI   C5A 9371  12.423   3.944   8.580  0.1971  0.0360 -0.1348
  586loPI   C6A 9372  12.385   4.063   8.130  0.1441  0.1010 -0.1837
  586loPI   C1B 9373  12.603   4.576  10.027  0.0130 -0.1672  0.1081
  586loPI   C2B 9374  12.605   4.470   9.578 -0.0607 -0.1961 -0.1344
  586loPI   C3B 9375  12.661   4.551   9.102  0.2743  0.0712  0.0878
  586loPI   C4B 9376  12.739   4.471   8.683  0.0875 -0.2230 -0.0835
  587loPI    C1 9377  13.954  17.599  11.149  0.0377 -0.2224  0.1102
  587loPI    C2 9378  13.976  17.689  11.538 -0.0295  0.0220  0.0593
  587loPI    C3 9379  14.000  17.308  11.419  0.0494 -0.0490  0.2973
  587loPI   PO4 9380  14.046  17.736  10.928  0.1750  0.0611  0.0183
  587loPI   GL1 9381  13.855  17.675  10.454  0.1397 -0.5051 -0.1623
  587loPI   GL2 9382  13.534  17.522  10.311 -0.0920 -0.0390 -0.1626
  587loPI   C1A 9383  13.922  17.575   9.999  0.1556 -0.0092 -0.1721
  587loPI   C2A 9384  13.802  17.683   9.594 -0.1109 -0.0681 -0.0179
  587loPI   C3A 9385  13.742  17.633   9.215  0.1907  0.1045 -0.3634
  587loPI   C4A 9386  13.897  17.655   8.866 -0.0729  0.3123  0.1512
  587loPI   C5A 9387  13.862  17.643   8.479  0.1402 -0.0040 -0.0480
  587loPI   C6A 9388  14.001  17.349   8.178 -0.0092  0.1592  0.2189
  587loPI   C1B 9389  13.370  17.588   9.887 -0.2928 -0.0924  0.2166
  587loPI   C2B 9390  13.301  17.585   9.434 -0.1157 -0.0129 -0.2498
  587loPI   C3B 9391  13.282  17.638   8.931  0.1498 -0.0612 -0.1541
  587loPI   C4B 9392  13.326  17.760   8.531  0.2191 -0.2457 -0.0394
  588loPI    C1 9393   5.439  11.752  10.873 -0.0527  0.0665  0.0823
  588loPI    C2 9394   5.051  11.696  10.794  0.0136  0.0581 -0.2492
  588loPI    C3 9395   5.164  11.828  11.154 -0.2797 -0.1419 -0.0792
  588loPI   PO4 9396   5.488  11.778  10.549  0.1669  0.0497 -0.2912
  588loPI   GL1 9397   5.108  11.658  10.309  0.0810 -0.0654  0.1339
  588loPI   GL2 9398   5.438  11.689  10.070  0.1279  0.0682 -0.2266
  588loPI   C1A 9399   4.931  11.619   9.936 -0.0385  0.0733  0.1457
  588loPI   C2A 9400   4.891  11.447   9.410  0.0342  0.0175  0.0224
  588loPI   C3A 9401   4.954  11.440   9.011  0.0744  0.2180  0.1413
  588loPI   C4A 9402   4.939  11.300   8.526  0.0187 -0.0522  0.0618
  588loPI   C5A 9403   4.748  11.190   8.149 -0.1796 -0.4548 -0.0007
  588loPI   C6A 9404   4.592  11.007   7.739 -0.0544  0.0221  0.0787
  588loPI   C1B 9405   5.371  11.479   9.662 -0.1066 -0.2220  0.0697
  588loPI   C2B 9406   5.462  11.499   9.210 -0.1761  0.1586 -0.0250
  588loPI   C3B 9407   5.390  11.376   8.806  0.1653  0.2426  0.0266
  588loPI   C4B 9408   5.355  11.555   8.345 -0.0081  0.1069 -0.0393
  589loPI    C1 9409  13.049   7.967  11.254 -0.0043 -0.0767 -0.0472
  589loPI    C2 9410  12.863   7.666  11.069 -0.3563  0.1357 -0.0471
  589loPI    C3 9411  12.914   7.656  11.465 -0.1455 -0.0368 -0.0773
  589loPI   PO4 9412  13.047   8.159  11.068 -0.2130 -0.1010  0.0495
  589loPI   GL1 9413  13.024   7.957  10.624  0.1736 -0.0760 -0.4252
  589loPI   GL2 9414  13.314   8.062  10.483  0.2409  0.0132 -0.0754
  589loPI   C1A 9415  12.868   8.066  10.177  0.1832  0.0248 -0.0991
  589loPI   C2A 9416  12.820   8.098   9.787 -0.0085 -0.1280  0.0476
  589loPI   C3A 9417  12.863   8.129   9.327  0.0430 -0.0498 -0.1921
  589loPI   C4A 9418  12.935   8.182   8.884 -0.1244 -0.3088 -0.2004
  589loPI   C5A 9419  12.995   8.344   8.445  0.0758  0.1995  0.0653
  589loPI   C6A 9420  12.948   8.391   7.997 -0.1709 -0.0801 -0.0130
  589loPI   C1B 9421  13.361   8.177  10.045  0.1554  0.3610 -0.2229
  589loPI   C2B 9422  13.287   8.158   9.634  0.1355  0.1590 -0.0331
  589loPI   C3B 9423  13.354   8.186   9.180  0.0971 -0.1513 -0.2011
  589loPI   C4B 9424  13.388   8.293   8.820 -0.0155  0.0083 -0.0710
  590loPI    C1 9425   1.823   6.294  11.531 -0.0346 -0.1725  0.0002
  590loPI    C2 9426   2.063   6.590  11.653 -0.1064 -0.0451 -0.1637
  590loPI    C3 9427   1.666   6.638  11.661 -0.1222 -0.1849 -0.0720
  590loPI   PO4 9428   1.910   6.279  11.281 -0.0967  0.2273  0.0432
  590loPI   GL1 9429   1.839   6.452  10.814 -0.0470 -0.1329  0.1230
  590loPI   GL2 9430   1.555   6.461  10.669 -0.0204 -0.2614  0.0871
  590loPI   C1A 9431   2.022   6.169  10.472 -0.1063  0.0756  0.2764
  590loPI   C2A 9432   1.938   6.116  10.043 -0.1994 -0.1662  0.1537
  590loPI   C3A 9433   1.970   6.057   9.626  0.2391 -0.1510 -0.0721
  590loPI   C4A 9434   2.043   6.117   9.279  0.2091  0.0305  0.0452
  590loPI   C5A 9435   2.153   6.148   8.866  0.0750 -0.2449  0.1007
  590loPI   C6A 9436   2.029   6.510   8.606 -0.1763 -0.1204 -0.0471
  590loPI   C1B 9437   1.745   6.618  10.224  0.1736 -0.3546 -0.0846
  590loPI   C2B 9438   1.752   6.627   9.768  0.1383  0.1917  0.1493
  590loPI   C3B 9439   1.716   6.522   9.391 -0.0264  0.2529 -0.1858
  590loPI   C4B 9440   1.719   6.416   8.960 -0.1707  0.1475  0.1896
  591POPI    C1 9441   4.107   5.239  11.185  0.0655 -0.0436 -0.2177
  591POPI    C2 9442   4.223   5.089  11.538 -0.3362  0.2530  0.0501
  591POPI    C3 9443   4.432   5.385  11.368 -0.0267 -0.0253 -0.0663
  591POPI   PO4 9444   3.913   5.081  11.124  0.1431 -0.2432  0.4028
  591POPI   GL1 9445   3.771   5.099  10.780 -0.0325  0.2153 -0.0847
  591POPI   GL2 9446   3.743   5.436  10.689 -0.2442  0.0089 -0.0528
  591POPI   C1A 9447   4.030   4.994  10.464 -0.1816  0.0210  0.0259
  591POPI   D2A 9448   3.859   4.906  10.049 -0.0500 -0.2091 -0.2137
  591POPI   C3A 9449   3.933   5.044   9.601  0.1958  0.2433 -0.2422
  591POPI   C4A 9450   4.015   4.996   9.165  0.1803 -0.0103  0.1911
  591POPI   C1B 9451   3.599   5.365  10.312 -0.2255 -0.0481  0.0740
  591POPI   C2B 9452   3.692   5.420   9.935 -0.1534 -0.1849  0.0482
  591POPI   C3B 9453   3.610   5.436   9.538  0.2906 -0.1520  0.0388
  591POPI   C4B 9454   3.723   5.403   9.083 -0.0761  0.0184 -0.0113
  592POPI    C1 9455  14.231   4.400  10.977 -0.0552  0.0824  0.1474
  592POPI    C2 9456  14.517   4.495  11.241 -0.0662  0.2914  0.0864
  592POPI    C3 9457  14.133   4.501  11.351 -0.0484 -0.0116  0.1747
  592POPI   PO4 9458  14.298   4.266  10.852 -0.0851 -0.0350  0.1394
  592POPI   GL1 9459  14.404   4.217  10.372 -0.3076  0.0909  0.0096
  592POPI   GL2 9460  14.271   3.836  10.351  0.0439  0.0669  0.1408
  592POPI   C1A 9461  14.547   4.235   9.975 -0.1118  0.0353 -0.2253
  592POPI   D2A 9462  14.463   4.306   9.491  0.0182 -0.0422  0.1565
  592POPI   C3A 9463  14.520   4.312   8.999  0.3195  0.0446 -0.2085
  592POPI   C4A 9464  14.482   4.340   8.608  0.0279  0.1865 -0.1987
  592POPI   C1B 9465  14.260   3.842   9.856 -0.1263 -0.1468 -0.0558
  592POPI   C2B 9466  14.243   3.820   9.420 -0.2954 -0.1796  0.3025
  592POPI   C3B 9467  14.341   3.866   8.987 -0.0532 -0.2985 -0.0463
  592POPI   C4B 9468  14.367   3.813   8.494 -0.1998  0.2432  0.3809
  593POPI    C1 9469   2.976   3.266  11.212 -0.1967  0.1170 -0.0210
  593POPI    C2 9470   2.895   2.875  11.244  0.0279  0.0553 -0.1765
  593POPI    C3 9471   2.962   3.093  11.573  0.2055 -0.1047 -0.1047
  593POPI   PO4 9472   3.121   3.247  10.942  0.3827 -0.1269 -0.2618
  593POPI   GL1 9473   2.990   3.401  10.532 -0.2012 -0.2422  0.1309
  593POPI   GL2 9474   2.695   3.242  10.549 -0.2749  0.0627  0.2875
  593POPI   C1A 9475   3.198   3.525  10.087  0.2829  0.0005  0.2178
  593POPI   D2A 9476   3.343   3.574   9.678  0.0755 -0.1616  0.1478
  593POPI   C3A 9477   3.371   3.640   9.162 -0.0490  0.1652  0.1597
  593POPI   C4A 9478   3.470   3.523   8.824 -0.0516 -0.2303  0.1846
  593POPI   C1B 9479   2.582   3.065  10.053  0.0631  0.0454 -0.0287
  593POPI   C2B 9480   2.421   3.017   9.638 -0.3075  0.0079 -0.4351
  593POPI   C3B 9481   2.657   3.114   9.278  0.1321  0.0570 -0.0042
  593POPI   C4B 9482   2.665   3.066   8.853 -0.5657  0.0333  0.0772
  594POPI    C1 9483   9.934  14.870  10.254 -0.0279  0.0480 -0.1357
  594POPI    C2 9484   9.686  14.644  10.472  0.0366 -0.0123 -0.1244
  594POPI    C3 9485  10.020  14.792  10.637  0.0238  0.0433 -0.1481
  594POPI   PO4 9486   9.759  15.119  10.190  0.0639 -0.1313 -0.2542
  594POPI   GL1 9487   9.791  15.250   9.849  0.3359 -0.0171  0.0950
  594POPI   GL2 9488  10.019  15.363   9.705 -0.1228  0.1220  0.2468
  594POPI   C1A 9489   9.790  14.998   9.516  0.0879 -0.0012  0.2268
  594POPI   D2A 9490   9.731  14.698   9.185 -0.3873 -0.1104 -0.0781
  594POPI   C3A 9491   9.443  14.701   8.779  0.1917  0.2345 -0.0217
  594POPI   C4A 9492   9.320  14.855   8.455  0.0654 -0.0329 -0.0119
  594POPI   C1B 9493  10.252  15.398   9.372 -0.0997 -0.0465 -0.3789
  594POPI   C2B 9494  10.323  15.399   8.921  0.1228 -0.1101  0.0836
  594POPI   C3B 9495  10.258  15.323   8.442 -0.1769 -0.3006  0.1849
  594POPI   C4B 9496  10.257  15.271   7.949  0.0383  0.0691 -0.0054
  595POPI    C1 9497   4.218  12.316  10.890  0.3131 -0.1632 -0.0400
  595POPI    C2 9498   4.294  12.709  10.877  0.1021 -0.1221 -0.0654
  595POPI    C3 9499   4.386  12.498  11.204 -0.1306  0.0232  0.0966
  595POPI   PO4 9500   4.000  12.327  10.676  0.3317 -0.0744  0.0522
  595POPI   GL1 9501   3.741  12.201  10.338  0.0851  0.0218 -0.0642
  595POPI   GL2 9502   3.604  12.200  10.036 -0.1353  0.0738 -0.0358
  595POPI   C1A 9503   4.011  12.430   9.977  0.0488  0.1104  0.0973
  595POPI   D2A 9504   4.100  12.713   9.659 -0.4119  0.0457  0.0591
  595POPI   C3A 9505   4.024  12.555   9.246 -0.0155 -0.3639  0.1346
  595POPI   C4A 9506   3.968  12.605   8.866 -0.0785 -0.2646 -0.0041
  595POPI   C1B 9507   3.710  12.196   9.628 -0.1582 -0.0756  0.0483
  595POPI   C2B 9508   3.728  12.171   9.135  0.0194 -0.0022 -0.0406
  595POPI   C3B 9509   3.800  12.179   8.665 -0.3018  0.2102  0.1480
  595POPI   C4B 9510   3.919  12.113   8.250  0.0367 -0.0352 -0.2097
  596POPI    C1 9511   2.013  11.351  11.132  0.0300  0.0311 -0.1375
  596POPI    C2 9512   1.620  11.387  11.066  0.0229  0.0674 -0.0758
  596POPI    C3 9513   1.759  11.361  11.441  0.0653 -0.1093 -0.1030
  596POPI   PO4 9514   2.079  11.154  10.983 -0.0963 -0.1090 -0.1528
  596POPI   GL1 9515   2.194  11.294  10.579  0.1372  0.0883 -0.0644
  596POPI   GL2 9516   2.333  11.034  10.498  0.1473  0.1486  0.0849
  596POPI   C1A 9517   2.109  11.397  10.251 -0.0819 -0.0882  0.1372
  596POPI   D2A 9518   1.959  11.567   9.775  0.2264 -0.1397  0.3518
  596POPI   C3A 9519   2.027  11.450   9.388  0.1771 -0.1439 -0.0315
  596POPI   C4A 9520   1.996  11.413   8.905 -0.4340  0.2483 -0.1950
  596POPI   C1B 9521   2.289  11.061   9.948 -0.0239 -0.2144 -0.0208
  596POPI   C2B 9522   2.357  11.060   9.489 -0.0954 -0.0672  0.2080
  596POPI   C3B 9523   2.334  10.990   9.065  0.0506 -0.1981 -0.0072
  596POPI   C4B 9524   2.262  11.046   8.659 -0.3134  0.1272  0.0916
  597POPI    C1 9525   8.723  12.859  10.533 -0.1203 -0.1989 -0.0618
  597POPI    C2 9526   8.750  13.118  10.836  0.2534 -0.2216 -0.0711
  597POPI    C3 9527   8.610  12.749  10.900 -0.0430 -0.1014 -0.0087
  597POPI   PO4 9528   8.898  12.858  10.401 -0.1333 -0.1538  0.3564
  597POPI   GL1 9529   8.958  13.004   9.976  0.1203 -0.2004 -0.0769
  597POPI   GL2 9530   8.917  13.412   9.975  0.2656  0.0950  0.0332
  597POPI   C1A 9531   8.915  13.032   9.535  0.3177 -0.0820  0.3815
  597POPI   D2A 9532   9.091  12.877   9.085 -0.1529  0.0118  0.0909
  597POPI   C3A 9533   8.941  12.803   8.721  0.1182  0.2401  0.0794
  597POPI   C4A 9534   8.763  12.605   8.324  0.0469  0.0854 -0.0681
  597POPI   C1B 9535   8.868  13.614   9.608  0.1173  0.2054 -0.1609
  597POPI   C2B 9536   8.939  13.592   9.100 -0.0288  0.1485  0.0728
  597POPI   C3B 9537   8.996  13.735   8.738 -0.3880 -0.0430  0.0455
  597POPI   C4B 9538   9.040  13.866   8.313 -0.0596 -0.0392  0.1125
  598POPI    C1 9539   5.566  17.232  10.466  0.2298  0.2453  0.1448
  598POPI    C2 9540   5.390  17.081  10.792 -0.1936  0.0247 -0.1754
  598POPI    C3 9541   5.764  16.974  10.698 -0.1509 -0.0871  0.1116
  598POPI   PO4 9542   5.312  17.221  10.289  0.0337  0.0353 -0.2223
  598POPI   GL1 9543   4.938  17.430  10.068 -0.0524  0.3376  0.0299
  598POPI   GL2 9544   4.755  17.149  10.028  0.2080  0.2306 -0.4827
  598POPI   C1A 9545   4.979  17.542   9.571 -0.1353  0.2243  0.1681
  598POPI   D2A 9546   5.057  17.628   9.091  0.0352  0.4144 -0.0213
  598POPI   C3A 9547   4.952  17.488   8.697 -0.2696  0.0091  0.0290
  598POPI   C4A 9548   4.880  17.276   8.227 -0.1795  0.1055 -0.0415
  598POPI   C1B 9549   4.691  17.133   9.435  0.2263  0.0967 -0.3254
  598POPI   C2B 9550   4.705  17.157   9.035 -0.2361 -0.0832 -0.0606
  598POPI   C3B 9551   4.651  17.078   8.592  0.1837  0.0404 -0.0736
  598POPI   C4B 9552   4.455  16.990   8.171 -0.2079  0.1346 -0.1626
  599POPI    C1 9553  17.311   9.921  11.295  0.1396  0.0059 -0.0289
  599POPI    C2 9554  17.123  10.095  11.601  0.2538  0.3525 -0.1512
  599POPI    C3 9555  17.399   9.814  11.670  0.2095  0.3586  0.0590
  599POPI   PO4 9556  17.154   9.983  11.087 -0.0764 -0.1874 -0.1712
  599POPI   GL1 9557  17.258  10.089  10.687 -0.0830 -0.0439  0.0702
  599POPI   GL2 9558  17.471  10.382  10.673 -0.1102 -0.1834  0.0292
  599POPI   C1A 9559  17.165   9.955  10.245  0.0835 -0.0035 -0.0705
  599POPI   D2A 9560  17.173   9.782   9.845  0.0950 -0.1136  0.0639
  599POPI   C3A 9561  17.218   9.894   9.523  0.4759 -0.0012 -0.0823
  599POPI   C4A 9562  17.175   9.905   9.092 -0.2109 -0.0843  0.0403
  599POPI   C1B 9563  17.441  10.395  10.241 -0.0005 -0.1423 -0.0352
  599POPI   C2B 9564  17.366  10.287   9.794 -0.2701 -0.0778 -0.2911
  599POPI   C3B 9565  17.364  10.342   9.407 -0.0368 -0.1004 -0.0361
  599POPI   C4B 9566  17.493  10.350   9.060  0.0117 -0.0029 -0.0516
  600POPI    C1 9567  12.390  11.168  11.374 -0.3210  0.1147 -0.1316
  600POPI    C2 9568  12.540  11.534  11.435  0.2007 -0.1172  0.0294
  600POPI    C3 9569  12.269  11.384  11.689  0.3610 -0.0351  0.2523
  600POPI   PO4 9570  12.339  11.217  11.070  0.0915  0.1443 -0.0771
  600POPI   GL1 9571  12.345  11.135  10.643 -0.2316 -0.0437  0.0474
  600POPI   GL2 9572  12.107  11.219  10.350 -0.1332 -0.0130 -0.0835
  600POPI   C1A 9573  12.495  10.880  10.361  0.3057 -0.3540  0.0108
  600POPI   D2A 9574  12.447  10.891   9.915 -0.0418  0.0013  0.1301
  600POPI   C3A 9575  12.562  10.850   9.484 -0.0013 -0.1197 -0.2973
  600POPI   C4A 9576  12.611  10.738   9.028 -0.2251  0.0972 -0.2127
  600POPI   C1B 9577  12.161  11.269   9.908 -0.0979 -0.2120 -0.0227
  600POPI   C2B 9578  12.242  11.273   9.414 -0.2382 -0.0484  0.2400
  600POPI   C3B 9579  12.304  11.118   9.030 -0.1432  0.1747 -0.1967
  600POPI   C4B 9580  12.325  11.254   8.671 -0.0883 -0.0733  0.3640
  601POPI    C1 9581  17.863   9.696  11.359 -0.0093  0.2136  0.0382
  601POPI    C2 9582  18.196   9.619  11.567 -0.0357  0.0561  0.0232
  601POPI    C3 9583  17.845   9.471  11.690 -0.0549 -0.0200 -0.1207
  601POPI   PO4 9584  18.034   9.621  11.081  0.1122  0.2109  0.2388
  601POPI   GL1 9585  18.028   9.491  10.666  0.0770  0.2315 -0.3187
  601POPI   GL2 9586  17.783   9.123  10.647  0.0710 -0.0328 -0.0195
  601POPI   C1A 9587  17.970   9.536  10.301 -0.0130  0.0891  0.1229
  601POPI   D2A 9588  18.002   9.492   9.865 -0.0333 -0.0260  0.0539
  601POPI   C3A 9589  17.975   9.544   9.374  0.3774  0.0742  0.0681
  601POPI   C4A 9590  18.094   9.516   9.018 -0.1673 -0.2220  0.3087
  601POPI   C1B 9591  17.745   8.972  10.197  0.0965  0.1982 -0.0606
  601POPI   C2B 9592  17.803   9.012   9.779 -0.0555  0.1097 -0.3308
  601POPI   C3B 9593  17.771   9.066   9.319 -0.3109  0.2308  0.2911
  601POPI   C4B 9594  17.776   8.910   8.907 -0.2000  0.1735  0.0561
  602POPI    C1 9595   0.568  16.369  10.489 -0.1958  0.1240  0.2216
  602POPI    C2 9596   0.683  16.375  10.872  0.0951 -0.0145  0.1398
  602POPI    C3 9597   0.954  16.421  10.581 -0.1199  0.0633 -0.0514
  602POPI   PO4 9598   0.393  16.157  10.463 -0.2003 -0.1135 -0.2568
  602POPI   GL1 9599   0.088  16.092  10.202  0.1022  0.0756 -0.2598
  602POPI   GL2 9600   0.209  15.801  10.086 -0.0510  0.0419 -0.2841
  602POPI   C1A 9601  -0.204  16.147   9.839 -0.0591 -0.1298 -0.1069
  602POPI   D2A 9602  -0.272  16.082   9.472 -0.0981 -0.1198  0.1902
  602POPI   C3A 9603  -0.331  16.181   9.095 -0.2695 -0.2177 -0.0186
  602POPI   C4A 9604  -0.211  16.141   8.601  0.2394  0.2305  0.4165
  602POPI   C1B 9605   0.088  15.809   9.643 -0.0671  0.1712 -0.0154
  602POPI   C2B 9606  -0.103  15.725   9.211  0.2389  0.0398  0.0636
  602POPI   C3B 9607   0.028  15.749   8.818 -0.0299  0.3386  0.3106
  602POPI   C4B 9608  -0.073  15.653   8.435  0.1210  0.2055  0.0828
  603POPI    C1 9609   6.105   7.159  11.711  0.4068  0.1209 -0.0512
  603POPI    C2 9610   6.085   6.912  12.025  0.0487  0.2165  0.0052
  603POPI    C3 9611   6.209   7.289  12.075  0.2640  0.1504 -0.0204
  603POPI   PO4 9612   6.026   6.966  11.489  0.0665  0.0417 -0.1267
  603POPI   GL1 9613   6.119   7.095  11.094 -0.3698 -0.1419  0.0314
  603POPI   GL2 9614   5.806   7.045  10.988 -0.1980  0.0732 -0.0042
  603POPI   C1A 9615   6.307   7.119  10.666 -0.0853 -0.1224  0.0581
  603POPI   D2A 9616   6.283   7.033  10.227 -0.3491 -0.2593 -0.0654
  603POPI   C3A 9617   6.314   7.120   9.794  0.3048  0.0376 -0.0142
  603POPI   C4A 9618   6.391   7.057   9.367  0.1398  0.0728  0.1130
  603POPI   C1B 9619   5.858   6.922  10.679 -0.0319  0.2670  0.0954
  603POPI   C2B 9620   5.764   7.008  10.244  0.0663 -0.0937  0.2463
  603POPI   C3B 9621   5.767   7.024   9.835  0.1513 -0.2433 -0.0250
  603POPI   C4B 9622   5.924   6.998   9.467 -0.0219  0.1037 -0.0508
  604POPI    C1 9623  15.688   4.845  10.911 -0.1710  0.2195 -0.0265
  604POPI    C2 9624  15.599   5.171  11.125 -0.0989  0.2745 -0.0795
  604POPI    C3 9625  15.736   4.842  11.308 -0.0497  0.3169 -0.0397
  604POPI   PO4 9626  15.829   4.917  10.769 -0.1221  0.1098 -0.1116
  604POPI   GL1 9627  16.127   4.726  10.449  0.0779 -0.0710 -0.2876
  604POPI   GL2 9628  15.858   4.770  10.265 -0.1706 -0.1581 -0.3655
  604POPI   C1A 9629  16.308   4.826  10.197 -0.2880  0.0462 -0.3406
  604POPI   D2A 9630  16.380   4.974   9.763  0.5478  0.2873 -0.1153
  604POPI   C3A 9631  16.255   4.897   9.296  0.0613  0.0106 -0.0005
  604POPI   C4A 9632  16.290   4.876   8.891  0.0013 -0.3071  0.1102
  604POPI   C1B 9633  15.766   4.834   9.896 -0.0747 -0.1684  0.2369
  604POPI   C2B 9634  15.793   4.777   9.455 -0.2694  0.1761 -0.0388
  604POPI   C3B 9635  15.814   4.781   8.991  0.0431 -0.4032 -0.3209
  604POPI   C4B 9636  15.758   4.829   8.544  0.1379 -0.1183  0.2768
  605POPI    C1 9637   6.510   4.594  11.205  0.0748  0.1192  0.0969
  605POPI    C2 9638   6.340   4.956  11.219 -0.1048  0.0354  0.1051
  605POPI    C3 9639   6.660   4.876  11.445  0.0701  0.2573 -0.0604
  605POPI   PO4 9640   6.565   4.555  10.926  0.1625  0.0375  0.0916
  605POPI   GL1 9641   6.417   4.724  10.599 -0.0873 -0.0977 -0.1623
  605POPI   GL2 9642   6.636   4.825  10.522 -0.1118 -0.1607  0.0958
  605POPI   C1A 9643   6.341   4.804  10.147 -0.1257 -0.0111 -0.2987
  605POPI   D2A 9644   6.247   4.854   9.706  0.0028 -0.1312 -0.0141
  605POPI   C3A 9645   6.295   4.807   9.278  0.1901  0.4049 -0.0953
  605POPI   C4A 9646   6.322   4.779   8.892 -0.2499 -0.0911  0.2936
  605POPI   C1B 9647   6.841   4.871  10.132  0.0145 -0.0734 -0.2259
  605POPI   C2B 9648   6.838   4.928   9.696  0.4322 -0.2588  0.2324
  605POPI   C3B 9649   6.885   4.775   9.318  0.3221 -0.1347  0.0865
  605POPI   C4B 9650   6.825   4.874   8.870  0.1675 -0.0322 -0.2518
  606POPI    C1 9651  14.315  14.221  11.221  0.2253 -0.2309 -0.0544
  606POPI    C2 9652  14.613  14.328  11.466  0.0991 -0.0702  0.0310
  606POPI    C3 9653  14.296  14.568  11.420 -0.0277 -0.2495 -0.0427
  606POPI   PO4 9654  14.389  14.234  11.015  0.3681 -0.0675 -0.1464
  606POPI   GL1 9655  14.302  14.325  10.656  0.0720 -0.0378  0.0492
  606POPI   GL2 9656  13.926  14.354  10.634  0.2557  0.1303  0.1161
  606POPI   C1A 9657  14.367  14.465  10.240  0.0216  0.3257  0.2022
  606POPI   D2A 9658  14.268  14.533   9.833  0.1006  0.1174 -0.1378
  606POPI   C3A 9659  14.388  14.556   9.360 -0.0894  0.0437 -0.1954
  606POPI   C4A 9660  14.420  14.534   8.815 -0.2538  0.0685  0.0704
  606POPI   C1B 9661  13.905  14.492  10.183  0.1333  0.0849 -0.0089
  606POPI   C2B 9662  13.815  14.511   9.720 -0.0024  0.1748  0.0514
  606POPI   C3B 9663  13.802  14.530   9.282  0.1564  0.0723 -0.1506
  606POPI   C4B 9664  13.850  14.431   8.778  0.0297 -0.1314 -0.0249
  607DPPI    C1 9665   4.307  14.941  10.307 -0.0114 -0.0645 -0.0616
  607DPPI    C2 9666   4.184  14.690  10.592  0.1310 -0.1760 -0.0972
  607DPPI    C3 9667   4.475  14.953  10.670 -0.1486  0.1106 -0.0026
  607DPPI   PO4 9668   4.310  14.754  10.091 -0.0272  0.1111 -0.0182
  607DPPI   GL1 9669   4.424  14.875   9.714  0.0726  0.3334  0.1245
  607DPPI   GL2 9670   4.651  14.682   9.631  0.1314  0.0571 -0.2006
  607DPPI   C1A 9671   4.289  14.918   9.329  0.1713  0.3265 -0.0427
  607DPPI   C2A 9672   4.252  15.000   8.912 -0.3149  0.1330  0.1545
  607DPPI   C3A 9673   4.307  15.103   8.461  0.1143 -0.1659 -0.0066
  607DPPI   C4A 9674   4.393  15.191   7.997 -0.2197  0.2491 -0.0249
  607DPPI   C1B 9675   4.464  14.463   9.347 -0.0504  0.1957 -0.0639
  607DPPI   C2B 9676   4.404  14.427   8.920 -0.0200  0.0792  0.0014
  607DPPI   C3B 9677   4.366  14.559   8.514  0.2073  0.0422 -0.2569
  607DPPI   C4B 9678   4.545  14.734   8.213 -0.0894  0.2682 -0.0436
  608DPPI    C1 9679   6.358   5.420  11.489 -0.2378  0.0330  0.0700
  608DPPI    C2 9680   6.578   5.741  11.580 -0.1802 -0.0122  0.0905
  608DPPI    C3 9681   6.192   5.728  11.681 -0.2012  0.0821  0.0231
  608DPPI   PO4 9682   6.491   5.410  11.185 -0.2755  0.2852  0.2392
  608DPPI   GL1 9683   6.380   5.288  10.733  0.0881  0.1963  0.2374
  608DPPI   GL2 9684   6.216   5.530  10.703 -0.0681  0.1407  0.1496
  608DPPI   C1A 9685   6.507   5.256  10.286 -0.0249  0.0986  0.0429
  608DPPI   C2A 9686   6.454   5.254   9.887  0.3395  0.1004 -0.0885
  608DPPI   C3A 9687   6.479   5.270   9.455  0.1625  0.1299  0.1857
  608DPPI   C4A 9688   6.548   5.207   9.055  0.3558 -0.0015  0.1249
  608DPPI   C1B 9689   6.219   5.642  10.255 -0.1414 -0.1197  0.0192
  608DPPI   C2B 9690   6.189   5.681   9.824  0.1166 -0.0068 -0.1936
  608DPPI   C3B 9691   6.204   5.749   9.431  0.1369  0.1336 -0.1709
  608DPPI   C4B 9692   6.248   5.633   8.978  0.1493  0.0695  0.0517
  609DPPI    C1 9693  15.163  14.775  11.011  0.0671  0.0177 -0.1413
  609DPPI    C2 9694  15.011  15.118  11.150 -0.0673 -0.1547  0.1482
  609DPPI    C3 9695  15.245  14.894  11.384  0.2150 -0.1471 -0.1198
  609DPPI   PO4 9696  15.087  14.811  10.771 -0.1161  0.3198  0.0929
  609DPPI   GL1 9697  15.418  14.866  10.437  0.0927  0.1386  0.0471
  609DPPI   GL2 9698  15.202  15.075  10.356 -0.2289  0.1467  0.1749
  609DPPI   C1A 9699  15.422  14.676  10.014 -0.0524  0.4429  0.3497
  609DPPI   C2A 9700  15.405  14.590   9.627  0.0411  0.0660 -0.0382
  609DPPI   C3A 9701  15.378  14.581   9.156 -0.1691  0.0783  0.2239
  609DPPI   C4A 9702  15.408  14.643   8.750  0.0886 -0.0144  0.2230
  609DPPI   C1B 9703  15.147  15.035   9.862  0.1878  0.3230  0.3541
  609DPPI   C2B 9704  15.170  15.040   9.440 -0.4585  0.0312  0.1979
  609DPPI   C3B 9705  15.156  15.056   8.989  0.1994  0.1692  0.0099
  609DPPI   C4B 9706  15.133  15.086   8.584  0.2335  0.0643 -0.1471
  610DPPI    C1 9707   2.387  15.678  10.717 -0.2288  0.1546  0.0078
  610DPPI    C2 9708   2.512  15.991  10.502  0.0078  0.1533  0.1392
  610DPPI    C3 9709   2.638  15.945  10.879  0.1699 -0.2289  0.0436
  610DPPI   PO4 9710   2.405  15.413  10.426 -0.0817 -0.1283 -0.0368
  610DPPI   GL1 9711   2.179  15.408  10.025  0.2144  0.0010  0.1742
  610DPPI   GL2 9712   2.167  15.082   9.943 -0.0453 -0.1811 -0.2116
  610DPPI   C1A 9713   2.009  15.402   9.555  0.1265  0.1904  0.0614
  610DPPI   C2A 9714   1.974  15.420   9.115  0.3098  0.1633  0.0176
  610DPPI   C3A 9715   1.867  15.493   8.701 -0.0366  0.2090  0.1167
  610DPPI   C4A 9716   1.965  15.749   8.246 -0.3383  0.1162 -0.3071
  610DPPI   C1B 9717   2.313  14.968   9.528  0.2176 -0.0515  0.1097
  610DPPI   C2B 9718   2.281  14.944   9.104  0.0458 -0.0024  0.0642
  610DPPI   C3B 9719   2.053  15.003   8.708  0.2169 -0.0351 -0.2969
  610DPPI   C4B 9720   1.930  15.199   8.331  0.2062 -0.3005  0.4848
  611DPPI    C1 9721   3.460  17.734  11.036  0.0294 -0.0039  0.0896
  611DPPI    C2 9722   3.704  17.418  11.014 -0.1077 -0.1022 -0.0489
  611DPPI    C3 9723   3.460  17.460  11.328  0.0200 -0.0520  0.0448
  611DPPI   PO4 9724   3.443  17.782  10.788  0.1967  0.1124  0.0369
  611DPPI   GL1 9725   3.324  17.866  10.412  0.3074 -0.2986  0.1498
  611DPPI   GL2 9726   3.376  18.174  10.238 -0.1947  0.1461  0.0495
  611DPPI   C1A 9727   3.163  17.798  10.027  0.1040  0.0328 -0.1673
  611DPPI   C2A 9728   3.096  17.838   9.539 -0.1555  0.1098  0.1395
  611DPPI   C3A 9729   3.097  17.830   9.049  0.2460 -0.0439 -0.0834
  611DPPI   C4A 9730   2.941  17.924   8.630 -0.0450  0.0003 -0.0617
  611DPPI   C1B 9731   3.222  18.269   9.909 -0.1315 -0.1189  0.0665
  611DPPI   C2B 9732   3.185  18.386   9.396 -0.0244 -0.1819 -0.2659
  611DPPI   C3B 9733   3.284  18.351   9.013  0.0146  0.2036 -0.1940
  611DPPI   C4B 9734   3.247  18.350   8.565  0.0945  0.2559 -0.1688
  612DPPI    C1 9735   3.420  16.633  10.699  0.0002 -0.2687 -0.0308
  612DPPI    C2 9736   3.787  16.588  10.852 -0.0764 -0.0915  0.2113
  612DPPI    C3 9737   3.514  16.299  10.898  0.0443 -0.2432 -0.0085
  612DPPI   PO4 9738   3.510  16.756  10.452 -0.0976 -0.4877 -0.0945
  612DPPI   GL1 9739   3.615  16.696  10.027 -0.0608 -0.1963 -0.0800
  612DPPI   GL2 9740   3.532  16.498   9.902  0.2369  0.2547 -0.0803
  612DPPI   C1A 9741   3.674  17.001   9.745 -0.1195 -0.0644 -0.2800
  612DPPI   C2A 9742   3.670  17.069   9.316 -0.1054  0.0904  0.0037
  612DPPI   C3A 9743   3.918  17.014   8.957 -0.0766  0.3016  0.2409
  612DPPI   C4A 9744   4.208  17.001   8.796  0.0813  0.3683  0.1650
  612DPPI   C1B 9745   3.502  16.607   9.454 -0.1983  0.2578 -0.0244
  612DPPI   C2B 9746   3.501  16.585   9.063 -0.3410 -0.2120  0.3095
  612DPPI   C3B 9747   3.712  16.763   8.578 -0.1867  0.0528  0.0634
  612DPPI   C4B 9748   4.013  16.915   8.383 -0.0657  0.3802 -0.0526
  613DPPI    C1 9749  10.523   1.525  11.210 -0.0466  0.0802  0.0561
  613DPPI    C2 9750  10.655   1.788  11.480 -0.0314  0.1338 -0.0035
  613DPPI    C3 9751  10.541   1.423  11.596  0.3043  0.0361  0.0315
  613DPPI   PO4 9752  10.438   1.681  11.080 -0.0839 -0.0998 -0.0079
  613DPPI   GL1 9753  10.571   1.648  10.710  0.2804 -0.2439  0.0738
  613DPPI   GL2 9754  10.886   1.583  10.604  0.0919 -0.2845  0.1422
  613DPPI   C1A 9755  10.311   1.548  10.255  0.2396 -0.4005  0.1375
  613DPPI   C2A 9756  10.295   1.526   9.849  0.0998  0.3698  0.0647
  613DPPI   C3A 9757  10.284   1.633   9.415  0.0392 -0.2687 -0.0270
  613DPPI   C4A 9758  10.289   1.645   8.964 -0.2157 -0.0071  0.0372
  613DPPI   C1B 9759  10.807   1.634  10.171 -0.0220 -0.0691 -0.1345
  613DPPI   C2B 9760  10.788   1.625   9.698  0.0340 -0.2296  0.0475
  613DPPI   C3B 9761  10.768   1.640   9.239 -0.2540  0.0325 -0.0646
  613DPPI   C4B 9762  10.870   1.681   8.850  0.1066 -0.0179  0.0400
  614DPPI    C1 9763  16.427   8.520  10.861  0.0476 -0.1005  0.1050
  614DPPI    C2 9764  16.725   8.779  10.794 -0.0889  0.0048 -0.1051
  614DPPI    C3 9765  16.345   8.894  10.744 -0.1862 -0.0186  0.5118
  614DPPI   PO4 9766  16.474   8.353  10.783 -0.0073  0.2037 -0.2611
  614DPPI   GL1 9767  16.452   8.101  10.434  0.0252 -0.4288  0.0087
  614DPPI   GL2 9768  16.193   8.007  10.266 -0.0545  0.1106 -0.0709
  614DPPI   C1A 9769  16.789   8.107  10.108  0.0431  0.0137  0.1948
  614DPPI   C2A 9770  16.867   8.048   9.632  0.1086 -0.3759  0.1876
  614DPPI   C3A 9771  16.868   8.081   9.205  0.0725 -0.2094  0.1628
  614DPPI   C4A 9772  16.878   8.007   8.786  0.1002  0.2641 -0.1276
  614DPPI   C1B 9773  16.301   7.979   9.911 -0.0598  0.1909 -0.1207
  614DPPI   C2B 9774  16.267   8.008   9.435 -0.3522  0.0508 -0.1278
  614DPPI   C3B 9775  16.336   8.060   8.998 -0.1794  0.0321  0.0387
  614DPPI   C4B 9776  16.157   8.263   8.721 -0.0511 -0.0662  0.0409
  615DPPI    C1 9777  15.395  12.814  10.955 -0.2873 -0.1452 -0.0731
  615DPPI    C2 9778  15.160  12.636  11.226 -0.1689 -0.0043  0.1248
  615DPPI    C3 9779  15.489  12.831  11.344 -0.0770 -0.0026 -0.1286
  615DPPI   PO4 9780  15.287  12.956  10.842 -0.1896  0.2759  0.2003
  615DPPI   GL1 9781  15.111  12.878  10.500 -0.0484  0.0436 -0.1457
  615DPPI   GL2 9782  15.290  13.192  10.400 -0.0670  0.4868 -0.0820
  615DPPI   C1A 9783  15.057  12.831  10.093  0.1024  0.1099 -0.0570
  615DPPI   C2A 9784  14.936  12.835   9.679 -0.0934  0.2252 -0.0934
  615DPPI   C3A 9785  15.084  12.802   9.335 -0.3936  0.1160  0.1573
  615DPPI   C4A 9786  15.143  12.850   8.866 -0.2103 -0.2562 -0.2580
  615DPPI   C1B 9787  15.140  13.302   9.987 -0.2666  0.2409  0.3221
  615DPPI   C2B 9788  15.092  13.354   9.533  0.0690 -0.1157 -0.2033
  615DPPI   C3B 9789  15.216  13.298   9.203  0.1864 -0.1811 -0.0145
  615DPPI   C4B 9790  15.212  13.285   8.686  0.3233 -0.0536  0.1949
  616PYPI    C1 9791   1.475  13.667  10.835 -0.1148  0.0760 -0.1873
  616PYPI    C2 9792   1.312  13.892  11.124 -0.2776  0.1714 -0.3514
  616PYPI    C3 9793   1.690  13.956  11.009 -0.1564  0.0233 -0.0465
  616PYPI   PO4 9794   1.387  13.705  10.559  0.1681 -0.0998  0.1055
  616PYPI   GL1 9795   1.035  13.709  10.331 -0.0625 -0.1982  0.0203
  616PYPI   GL2 9796   0.757  13.952  10.231  0.1341  0.0291 -0.2250
  616PYPI   C1A 9797   0.944  13.581   9.890  0.0277  0.1033 -0.1951
  616PYPI   C2A 9798   0.877  13.639   9.510  0.0874 -0.1490 -0.2184
  616PYPI   D3A 9799   0.863  13.637   9.169 -0.2015  0.1499  0.3083
  616PYPI   C4A 9800   0.989  13.578   8.767  0.1230  0.1308  0.2620
  616PYPI   C1B 9801   0.601  14.017   9.731  0.6390 -0.2763 -0.0078
  616PYPI   C2B 9802   0.566  14.038   9.282  0.0963 -0.2353  0.1020
  616PYPI   C3B 9803   0.647  13.996   8.834 -0.0599 -0.4297 -0.0368
  616PYPI   C4B 9804   0.579  13.991   8.346 -0.0962 -0.2243  0.1442
  617PYPI    C1 9805  15.712   9.801  11.036  0.0208 -0.1792 -0.2593
  617PYPI    C2 9806  15.751   9.415  11.136  0.0658 -0.1183 -0.0345
  617PYPI    C3 9807  15.792   9.699  11.415  0.1661  0.0567 -0.2246
  617PYPI   PO4 9808  15.806   9.806  10.815  0.0626  0.1065 -0.1409
  617PYPI   GL1 9809  15.855  10.126  10.404  0.1289 -0.1258  0.3693
  617PYPI   GL2 9810  15.525  10.059  10.357 -0.1483  0.0142  0.1709
  617PYPI   C1A 9811  15.741  10.217   9.940 -0.0411  0.0081 -0.0769
  617PYPI   C2A 9812  15.811  10.241   9.449  0.1363  0.1232  0.1225
  617PYPI   D3A 9813  15.982  10.211   8.990  0.1813 -0.3615  0.3720
  617PYPI   C4A 9814  15.975  10.261   8.468  0.3068  0.1308 -0.0847
  617PYPI   C1B 9815  15.593   9.762   9.968  0.0629 -0.0051 -0.0342
  617PYPI   C2B 9816  15.714   9.736   9.525  0.2096  0.0230  0.2063
  617PYPI   C3B 9817  15.595   9.712   9.166 -0.3161 -0.0488 -0.0588
  617PYPI   C4B 9818  15.434   9.424   8.854  0.0152  0.0791  0.2429
  618PYPI    C1 9819  10.069  12.004  10.996  0.0978  0.1338 -0.2056
  618PYPI    C2 9820  10.088  11.665  10.784 -0.1164 -0.0922  0.1253
  618PYPI    C3 9821  10.376  11.753  11.048 -0.1937 -0.1486  0.2293
  618PYPI   PO4 9822  10.043  12.174  10.740 -0.2375 -0.1268 -0.5042
  618PYPI   GL1 9823   9.956  12.155  10.362 -0.3147  0.1769 -0.0320
  618PYPI   GL2 9824  10.123  11.904  10.221 -0.1064 -0.0859 -0.2144
  618PYPI   C1A 9825   9.916  12.375   9.850 -0.0190 -0.1857  0.4413
  618PYPI   C2A 9826   9.961  12.377   9.453 -0.1049  0.2159  0.0494
  618PYPI   D3A 9827   9.799  12.330   9.060 -0.3033 -0.0082  0.2784
  618PYPI   C4A 9828   9.946  12.445   8.710 -0.1930 -0.2001  0.0092
  618PYPI   C1B 9829  10.146  11.923   9.747 -0.0191  0.2069 -0.1385
  618PYPI   C2B 9830  10.196  11.895   9.280 -0.0921 -0.1724  0.1847
  618PYPI   C3B 9831  10.080  11.976   8.816 -0.1049  0.1172  0.0793
  618PYPI   C4B 9832  10.342  12.071   8.432  0.0761  0.0440 -0.3823
  619PYPI    C1 9833  17.726   8.959  11.129  0.1165  0.2609 -0.1248
  619PYPI    C2 9834  17.999   9.001  11.418  0.0478  0.2975 -0.0651
  619PYPI    C3 9835  18.088   9.104  11.043  0.2322 -0.0126 -0.1102
  619PYPI   PO4 9836  17.685   8.707  11.044  0.1115  0.1987 -0.0746
  619PYPI   GL1 9837  17.565   8.660  10.620 -0.2125 -0.1589 -0.1156
  619PYPI   GL2 9838  17.261   8.769  10.561 -0.1734 -0.1915  0.1638
  619PYPI   C1A 9839  17.504   8.540  10.125 -0.0394  0.2924 -0.1292
  619PYPI   C2A 9840  17.619   8.553   9.739  0.0014 -0.3376 -0.1626
  619PYPI   D3A 9841  17.512   8.639   9.335 -0.2536  0.1707 -0.1026
  619PYPI   C4A 9842  17.577   8.444   9.015 -0.0804  0.1294  0.3743
  619PYPI   C1B 9843  17.017   8.589  10.267 -0.1332  0.0002  0.1171
  619PYPI   C2B 9844  17.107   8.584   9.812  0.0628 -0.2355  0.0649
  619PYPI   C3B 9845  17.074   8.483   9.348  0.3042  0.2510 -0.1268
  619PYPI   C4B 9846  17.070   8.487   8.909 -0.1905 -0.0325  0.1243
  620PYPI    C1 9847   9.179  15.990  10.154  0.3018 -0.2108 -0.0436
  620PYPI    C2 9848   9.540  16.024  10.324  0.2121 -0.0772  0.1236
  620PYPI    C3 9849   9.210  16.088  10.541  0.0931  0.0222 -0.0835
  620PYPI   PO4 9850   9.223  16.037   9.927 -0.0033 -0.0371 -0.3754
  620PYPI   GL1 9851   8.791  16.226   9.824 -0.0735  0.0642 -0.3423
  620PYPI   GL2 9852   9.006  16.474   9.885  0.1125 -0.2532 -0.0307
  620PYPI   C1A 9853   8.841  16.055   9.367  0.1782 -0.0830 -0.1120
  620PYPI   C2A 9854   8.884  16.223   9.001 -0.0271  0.0726  0.0380
  620PYPI   D3A 9855   9.079  16.320   8.621  0.0722 -0.3691  0.1920
  620PYPI   C4A 9856   9.123  16.616   8.363  0.1561 -0.3864  0.0307
  620PYPI   C1B 9857   8.958  16.536   9.410  0.1339  0.2846 -0.0465
  620PYPI   C2B 9858   9.024  16.843   9.192  0.1528  0.0464  0.0970
  620PYPI   C3B 9859   8.834  16.907   8.819 -0.2960  0.1317 -0.0285
  620PYPI   C4B 9860   8.823  17.078   8.488 -0.0412 -0.0123  0.3446
  621PYPI    C1 9861  10.943   4.599  10.707 -0.0345  0.2162  0.0844
  621PYPI    C2 9862  11.069   4.525  11.080  0.0397  0.2791  0.0719
  621PYPI    C3 9863  10.721   4.713  11.020  0.0953  0.3965  0.1124
  621PYPI   PO4 9864  11.148   4.687  10.555  0.0303  0.1032  0.0997
  621PYPI   GL1 9865  11.119   4.769  10.136 -0.0738 -0.0568  0.0073
  621PYPI   GL2 9866  11.272   4.998  10.149 -0.1409  0.0325  0.3583
  621PYPI   C1A 9867  11.053   4.797   9.669  0.2479 -0.0563  0.3854
  621PYPI   C2A 9868  11.184   4.856   9.162  0.2332 -0.1011 -0.0414
  621PYPI   D3A 9869  11.310   4.820   8.765  0.2212  0.2604 -0.0528
  621PYPI   C4A 9870  11.533   4.995   8.372 -0.0823 -0.0221 -0.1374
  621PYPI   C1B 9871  11.366   5.239   9.733  0.3051  0.2794 -0.0601
  621PYPI   C2B 9872  11.460   5.273   9.313 -0.0702 -0.0360 -0.3149
  621PYPI   C3B 9873  11.445   5.273   8.913  0.1297  0.0759 -0.2207
  621PYPI   C4B 9874  11.430   5.463   8.504 -0.3951 -0.0706 -0.1661
  622ERGO   ROH 9875  14.785  12.470  10.369  0.0514 -0.3664  0.0648
  622ERGO    R1 9876  14.790  12.319  10.130 -0.0167 -0.1316 -0.0881
  622ERGO    R2 9877  14.618  12.369   9.918  0.0518  0.2042 -0.0732
  622ERGO    R3 9878  14.850  12.385   9.777  0.0901  0.1830 -0.0126
  622ERGO    R4 9879  14.644  12.330   9.576  0.1598  0.1165 -0.0551
  622ERGO    R5 9880  14.828  12.218   9.608  0.1553  0.1402  0.0257
  622ERGO    C1 9881  14.877  12.322   9.244  0.2586  0.0456  0.0121
  622ERGO    C2 9882  14.827  12.414   8.891  0.1900  0.1363 -0.3530
  623ERGO   ROH 9883   9.878   7.416  10.442 -0.2220 -0.0235 -0.0804
  623ERGO    R1 9884  10.001   7.400  10.188 -0.1373 -0.0071 -0.0397
  623ERGO    R2 9885   9.939   7.203  10.004 -0.0385 -0.0226 -0.0508
  623ERGO    R3 9886   9.895   7.416   9.840 -0.0261 -0.0392 -0.0771
  623ERGO    R4 9887  10.002   7.208   9.664  0.1955  0.0048 -0.0096
  623ERGO    R5 9888  10.077   7.411   9.685  0.0883  0.0444  0.0474
  623ERGO    C1 9889   9.996   7.409   9.313  0.3433  0.0052 -0.0102
  623ERGO    C2 9890   9.971   7.436   9.001 -0.0487  0.0241 -0.0807
  624ERGO   ROH 9891   7.876  13.570   9.935  0.1970 -0.0134  0.0301
  624ERGO    R1 9892   7.993  13.536   9.680  0.1175 -0.0780  0.0016
  624ERGO    R2 9893   7.859  13.417   9.469  0.0054 -0.0173  0.0371
  624ERGO    R3 9894   7.923  13.647   9.340  0.0882 -0.0511  0.0166
  624ERGO    R4 9895   7.833  13.467   9.128  0.0411 -0.0435  0.0305
  624ERGO    R5 9896   8.021  13.576   9.134  0.0763 -0.1044  0.0296
  624ERGO    C1 9897   7.877  13.712   8.809  0.1395 -0.0905  0.0075
  624ERGO    C2 9898   7.852  13.768   8.495 -0.1261 -0.0998  0.2917
  625ERGO   ROH 9899   0.522  16.285   9.968  0.1383  0.0816 -0.0832
  625ERGO    R1 9900   0.393  16.148   9.757  0.0822  0.1060 -0.0642
  625ERGO    R2 9901   0.202  16.267   9.596  0.1088  0.1512 -0.0563
  625ERGO    R3 9902   0.365  16.184   9.395  0.0661  0.0874 -0.0660
  625ERGO    R4 9903   0.121  16.278   9.260  0.0340  0.0571 -0.0424
  625ERGO    R5 9904   0.216  16.082   9.237  0.0254  0.0439 -0.0049
  625ERGO    C1 9905   0.228  16.206   8.876 -0.0498 -0.0576 -0.0433
  625ERGO    C2 9906   0.265  16.130   8.595  0.0769  0.4177  0.1620
  626ERGO   ROH 9907  16.133   9.138  10.367  0.3018  0.2323  0.1360
  626ERGO    R1 9908  16.190   8.958  10.156  0.1467  0.1482  0.1661
  626ERGO    R2 9909  16.011   8.906   9.951  0.1141  0.2889  0.1681
  626ERGO    R3 9910  16.221   8.976   9.794  0.1901  0.0633  0.1629
  626ERGO    R4 9911  16.032   8.846   9.612 -0.1054  0.5117  0.1109
  626ERGO    R5 9912  16.242   8.795   9.639 -0.1676  0.1338  0.0120
  626ERGO    C1 9913  16.242   8.876   9.266 -0.1619  0.4297  0.0727
  626ERGO    C2 9914  16.366   8.863   8.864 -0.2580  0.0413 -0.0013
  627ERGO   ROH 9915  10.986  13.783  10.064  0.1003  0.1061 -0.0425
  627ERGO    R1 9916  10.995  13.698   9.794  0.0156  0.1358 -0.0549
  627ERGO    R2 9917  10.799  13.764   9.610  0.0279  0.2705 -0.0190
  627ERGO    R3 9918  11.010  13.858   9.467  0.0614  0.1697 -0.0369
  627ERGO    R4 9919  10.821  13.762   9.265  0.0478  0.1454 -0.0174
  627ERGO    R5 9920  11.031  13.706   9.284  0.0347  0.0994  0.0163
  627ERGO    C1 9921  11.032  13.849   8.930  0.0908 -0.0221 -0.0333
  627ERGO    C2 9922  11.111  13.822   8.667  0.0380  0.1108 -0.1271
  628ERGO   ROH 9923  12.508   6.392  10.307  0.0802 -0.3195 -0.1692
  628ERGO    R1 9924  12.489   6.272  10.051 -0.1972 -0.1580 -0.2292
  628ERGO    R2 9925  12.290   6.337   9.871 -0.1295  0.2975 -0.1569
  628ERGO    R3 9926  12.501   6.383   9.705 -0.0749  0.0037 -0.1728
  628ERGO    R4 9927  12.283   6.305   9.527 -0.1144  0.0545 -0.1355
  628ERGO    R5 9928  12.481   6.216   9.535 -0.1913 -0.1015 -0.0533
  628ERGO    C1 9929  12.476   6.329   9.171 -0.0544 -0.3629 -0.1378
  628ERGO    C2 9930  12.440   6.302   8.820 -0.1888 -0.2478  0.0660
  629ERGO   ROH 9931   0.644  14.844  10.185  0.0563 -0.2731  0.0774
  629ERGO    R1 9932   0.624  14.972   9.932 -0.0255 -0.1050  0.1667
  629ERGO    R2 9933   0.772  14.891   9.713 -0.0206  0.1045  0.0899
  629ERGO    R3 9934   0.527  14.876   9.595 -0.0301  0.0901  0.1118
  629ERGO    R4 9935   0.719  14.848   9.374 -0.0495 -0.1804  0.1283
  629ERGO    R5 9936   0.555  14.992   9.387  0.0056 -0.1070  0.0058
  629ERGO    C1 9937   0.459  14.809   9.066 -0.0753 -0.3598  0.1712
  629ERGO    C2 9938   0.510  14.874   8.756 -0.0941  0.1301  0.1496
  630ERGO   ROH 9939   9.471   9.144  10.507 -0.3328 -0.2410  0.1485
  630ERGO    R1 9940   9.388   9.072  10.246 -0.3423 -0.0976  0.1109
  630ERGO    R2 9941   9.218   9.229  10.095 -0.0956  0.1469  0.0779
  630ERGO    R3 9942   9.418   9.212   9.912 -0.0531 -0.0818  0.1400
  630ERGO    R4 9943   9.173   9.237   9.753  0.0286  0.3187  0.0640
  630ERGO    R5 9944   9.324   9.081   9.734 -0.1834  0.1035  0.0684
  630ERGO    C1 9945   9.333   9.225   9.381  0.1408  0.2040  0.1142
  630ERGO    C2 9946   9.379   9.132   9.105  0.0102 -0.0965  0.0392
  631ERGO   ROH 9947  12.402  12.604  10.469  0.1890  0.1061 -0.1889
  631ERGO    R1 9948  12.308  12.603  10.202  0.1116  0.2177 -0.1643
  631ERGO    R2 9949  12.391  12.789  10.014  0.3420  0.0772 -0.2117
  631ERGO    R3 9950  12.453  12.566   9.871 -0.0301 -0.0398 -0.1998
  631ERGO    R4 9951  12.397  12.771   9.669  0.2281  0.0249 -0.2098
  631ERGO    R5 9952  12.306  12.574   9.682 -0.0693  0.1605 -0.1624
  631ERGO    C1 9953  12.460  12.552   9.334 -0.1875 -0.1153 -0.1975
  631ERGO    C2 9954  12.524  12.540   8.971 -0.0757 -0.2223  0.0410
  632ERGO   ROH 9955   3.996  10.580  10.357 -0.0839  0.1405 -0.1069
  632ERGO    R1 9956   4.066  10.453  10.114  0.0669  0.1807 -0.0861
  632ERGO    R2 9957   3.878  10.369   9.930  0.1543 -0.1615 -0.0306
  632ERGO    R3 9958   4.025  10.520   9.759 -0.1078  0.0256 -0.0958
  632ERGO    R4 9959   3.858  10.353   9.585  0.0256 -0.1815 -0.0220
  632ERGO    R5 9960   4.075  10.373   9.577 -0.0016  0.0899 -0.1169
  632ERGO    C1 9961   3.984  10.486   9.224 -0.2954 -0.0176 -0.0782
  632ERGO    C2 9962   4.005  10.410   8.838 -0.0072 -0.1511 -0.1493
  633ERGO   ROH 9963  15.283   8.400  10.354  0.1228  0.1282  0.0267
  633ERGO    R1 9964  15.161   8.295  10.121  0.0346  0.1444  0.0650
  633ERGO    R2 9965  14.951   8.422   9.993  0.1393  0.2719  0.0194
  633ERGO    R3 9966  15.114   8.401   9.776  0.1214  0.0575  0.0253
  633ERGO    R4 9967  14.843   8.372   9.669  0.0915  0.1581  0.0534
  633ERGO    R5 9968  15.010   8.235   9.640  0.0135  0.0409  0.1218
  633ERGO    C1 9969  14.933   8.323   9.277  0.0468 -0.1094  0.0787
  633ERGO    C2 9970  15.033   8.344   8.995  0.0572  0.5430  0.0866
  634ERGO   ROH 9971   0.372   1.493  10.218  0.0139  0.0972  0.0304
  634ERGO    R1 9972   0.346   1.371   9.964  0.1335 -0.0416  0.0824
  634ERGO    R2 9973   0.174   1.467   9.770 -0.0602 -0.3683  0.0806
  634ERGO    R3 9974   0.399   1.469   9.617 -0.0925 -0.0912  0.0338
  634ERGO    R4 9975   0.177   1.479   9.425 -0.1400 -0.3686  0.0803
  634ERGO    R5 9976   0.342   1.336   9.426  0.0373 -0.1633  0.0484
  634ERGO    C1 9977   0.390   1.489   9.080 -0.2169 -0.1086  0.0361
  634ERGO    C2 9978   0.321   1.490   8.740 -0.1662  0.1515  0.2313
  635ERGO   ROH 9979  14.175   0.153  10.061 -0.1204 -0.1770 -0.0848
  635ERGO    R1 9980  14.069   0.123   9.800 -0.0950 -0.0402 -0.1122
  635ERGO    R2 9981  13.995   0.338   9.643 -0.0311  0.0454 -0.0277
  635ERGO    R3 9982  14.163   0.223   9.464 -0.0325  0.0892 -0.0567
  635ERGO    R4 9983  13.952   0.341   9.300 -0.1794 -0.1064 -0.0114
  635ERGO    R5 9984  14.019   0.135   9.294 -0.0484 -0.0655  0.0357
  635ERGO    C1 9985  14.085   0.235   8.932 -0.2669 -0.1536 -0.0295
  635ERGO    C2 9986  14.203   0.276   8.541  0.0537  0.0908  0.0429
  636ERGO   ROH 9987   6.792   5.586  10.692  0.0762  0.0036  0.1718
  636ERGO    R1 9988   6.678   5.690  10.455 -0.1190 -0.2419  0.1551
  636ERGO    R2 9989   6.823   5.841  10.273 -0.4381  0.1688  0.2358
  636ERGO    R3 9990   6.734   5.654  10.097  0.0938 -0.0365  0.1632
  636ERGO    R4 9991   6.819   5.880   9.930 -0.5007  0.2855  0.2484
  636ERGO    R5 9992   6.624   5.781   9.926 -0.2488 -0.2645  0.1957
  636ERGO    C1 9993   6.733   5.727   9.564 -0.0378  0.1607  0.1876
  636ERGO    C2 9994   6.781   5.767   9.206  0.3417 -0.1766 -0.3487
  637ERGO   ROH 9995   1.687  17.535  10.388  0.0440  0.0825 -0.0280
  637ERGO    R1 9996   1.594  17.477  10.127 -0.0531  0.0768  0.0072
  637ERGO    R2 9997   1.362  17.586  10.024 -0.0625  0.1172  0.0718
  637ERGO    R3 9998   1.526  17.666   9.823 -0.1103  0.0614  0.0100
  637ERGO    R4 9999   1.282  17.577   9.688 -0.1447  0.0219  0.0936
  637ERGO    R510000   1.485  17.509   9.647 -0.1534  0.0105  0.0638
  637ERGO    C110001   1.390  17.646   9.304 -0.2375 -0.0860  0.0483
  637ERGO    C210002   1.363  17.617   8.915  0.1828 -0.2263 -0.1972
  638ERGO   ROH10003  12.670  16.307  10.242 -0.1062  0.0996 -0.0742
  638ERGO    R110004  12.652  16.173   9.994 -0.1636  0.0560 -0.0466
  638ERGO    R210005  12.488  16.259   9.789  0.0141  0.1951 -0.1320
  638ERGO    R310006  12.718  16.253   9.645  0.0655 -0.1064 -0.0432
  638ERGO    R410007  12.506  16.249   9.444  0.1313  0.2052 -0.1267
  638ERGO    R510008  12.670  16.108   9.461 -0.0654 -0.0254 -0.0755
  638ERGO    C110009  12.733  16.238   9.108  0.2478 -0.0721 -0.0402
  638ERGO    C210010  12.777  16.296   8.791  0.1187 -0.0185 -0.1665
  639ERGO   ROH10011  13.071   2.403  10.362  0.1334  0.4429 -0.0292
  639ERGO    R110012  13.063   2.276  10.109 -0.0428  0.3350  0.0288
  639ERGO    R210013  12.915   2.373   9.898 -0.0120  0.3724  0.0219
  639ERGO    R310014  13.153   2.361   9.767 -0.0525  0.1044 -0.0321
  639ERGO    R410015  12.953   2.402   9.555 -0.0482  0.3442  0.0153
  639ERGO    R510016  13.103   2.243   9.564 -0.2293  0.1718 -0.0265
  639ERGO    C110017  13.199   2.407   9.233 -0.1072  0.0763 -0.0391
  639ERGO    C210018  13.255   2.464   8.890  0.0137 -0.1206 -0.0314
  640ERGO   ROH10019   0.035  17.458  10.062  0.0278 -0.0966 -0.2298
  640ERGO    R110020  -0.091  17.444   9.809  0.0483  0.0090 -0.2452
  640ERGO    R210021  -0.116  17.664   9.643  0.0300  0.0851 -0.1385
  640ERGO    R310022   0.005  17.500   9.463  0.0642  0.1902 -0.2132
  640ERGO    R410023  -0.192  17.651   9.306 -0.0287  0.1616 -0.1293
  640ERGO    R510024  -0.171  17.434   9.315  0.0615  0.1649 -0.2008
  640ERGO    C110025  -0.122  17.490   8.941 -0.0312  0.3048 -0.1939
  640ERGO    C210026  -0.183  17.617   8.621 -0.2225  0.0830  0.2157
  641ERGO   ROH10027   2.968   7.283  10.487  0.1168 -0.1924  0.0537
  641ERGO    R110028   3.049   7.197  10.230 -0.0001 -0.2737  0.0430
  641ERGO    R210029   2.883   7.054  10.061 -0.1986 -0.0329  0.0270
  641ERGO    R310030   2.942   7.254   9.887  0.0702 -0.0883  0.0507
  641ERGO    R410031   2.908   7.016   9.719 -0.2540 -0.0252  0.0221
  641ERGO    R510032   3.080   7.149   9.722 -0.0710 -0.2565  0.0365
  641ERGO    C110033   2.978   7.181   9.356 -0.0339 -0.0728  0.0414
  641ERGO    C210034   3.068   7.093   9.134 -0.2835  0.0905  0.0134
  642ERGO   ROH10035   4.592  11.713  10.511  0.0401  0.0601  0.1206
  642ERGO    R110036   4.588  11.581  10.261  0.1434  0.2025  0.0422
  642ERGO    R210037   4.361  11.462  10.159  0.3073 -0.1995  0.1275
  642ERGO    R310038   4.414  11.619   9.944 -0.1528  0.0488  0.1823
  642ERGO    R410039   4.317  11.367   9.830  0.3871 -0.1340  0.0975
  642ERGO    R510040   4.504  11.468   9.781  0.1381  0.3374  0.0642
  642ERGO    C110041   4.341  11.460   9.436  0.0015  0.1370  0.1316
  642ERGO    C210042   4.339  11.355   9.068  0.0492  0.0035  0.0762
  643ERGO   ROH10043  16.947   0.802  10.401 -0.2060  0.3761  0.0598
  643ERGO    R110044  16.974   0.765  10.122 -0.1215  0.2573  0.0834
  643ERGO    R210045  16.767   0.675   9.963 -0.0574  0.1412  0.0672
  643ERGO    R310046  16.821   0.901   9.821 -0.0688  0.0896 -0.0209
  643ERGO    R410047  16.779   0.693   9.618  0.0232 -0.0123  0.0607
  643ERGO    R510048  16.952   0.824   9.636 -0.0071  0.0319  0.0449
  643ERGO    C110049  16.836   0.915   9.284  0.0594 -0.1501 -0.0260
  643ERGO    C210050  16.820   0.907   8.954 -0.2688 -0.0413  0.0405
  644ERGO   ROH10051  14.214   7.973  10.262  0.0728  0.1717 -0.0151
  644ERGO    R110052  14.278   7.843  10.019  0.1257  0.1166  0.0288
  644ERGO    R210053  14.085   7.757   9.840  0.1595 -0.0623  0.0802
  644ERGO    R310054  14.230   7.906   9.664  0.0573 -0.0473  0.0073
  644ERGO    R410055  14.056   7.741   9.496 -0.0177 -0.0669  0.0945
  644ERGO    R510056  14.272   7.758   9.481 -0.0230 -0.0465 -0.0154
  644ERGO    C110057  14.174   7.871   9.130 -0.2170 -0.0555  0.0345
  644ERGO    C210058  14.344   7.776   8.827 -0.0217  0.0785  0.3285
  645ERGO   ROH10059   9.779   5.351  10.439  0.0962  0.1201  0.0260
  645ERGO    R110060   9.940   5.217  10.248 -0.0914 -0.0406 -0.0226
  645ERGO    R210061   9.833   5.071  10.039 -0.3049  0.3033 -0.1596
  645ERGO    R310062   9.992   5.232   9.888  0.0391  0.1280  0.0009
  645ERGO    R410063   9.870   5.047   9.697  0.1044  0.1931 -0.1140
  645ERGO    R510064  10.083   5.087   9.721  0.1187  0.0027  0.1468
  645ERGO    C110065  10.040   5.185   9.355  0.6658 -0.0356  0.0633
  645ERGO    C210066   9.952   5.262   9.042  0.0690  0.0735 -0.2916
  646ERGO   ROH10067   9.106  10.660  10.370 -0.0448 -0.0276 -0.0464
  646ERGO    R110068   9.053  10.529  10.125  0.1294 -0.0868 -0.0530
  646ERGO    R210069   8.899  10.642   9.925 -0.0409 -0.2864 -0.0375
  646ERGO    R310070   9.118  10.591   9.773  0.0296  0.0308 -0.0512
  646ERGO    R410071   8.894  10.589   9.584  0.0564 -0.0478 -0.0787
  646ERGO    R510072   9.042  10.432   9.611  0.2030  0.0721 -0.1757
  646ERGO    C110073   9.096  10.510   9.242  0.1791  0.3888 -0.1157
  646ERGO    C210074   8.925  10.485   9.002  0.0926 -0.1873  0.2398
  647ERGO   ROH10075  16.823  17.349  10.137 -0.1415  0.0055  0.0001
  647ERGO    R110076  16.696  17.424   9.895 -0.0922  0.0112 -0.0242
  647ERGO    R210077  16.829  17.557   9.693 -0.0237 -0.0757 -0.0370
  647ERGO    R310078  16.737  17.351   9.541 -0.0897 -0.0679 -0.0077
  647ERGO    R410079  16.817  17.556   9.347  0.1877 -0.2067 -0.0461
  647ERGO    R510080  16.623  17.457   9.359  0.1022 -0.0526 -0.1224
  647ERGO    C110081  16.723  17.362   9.004  0.2484 -0.2757 -0.0240
  647ERGO    C210082  16.705  17.411   8.642 -0.0317  0.2873 -0.2502
  648ERGO   ROH10083   4.514   0.856  10.024  0.1069  0.1255 -0.0283
  648ERGO    R110084   4.532   1.019   9.793  0.3144  0.0873 -0.0438
  648ERGO    R210085   4.693   0.955   9.578  0.1171 -0.2246 -0.1203
  648ERGO    R310086   4.461   0.985   9.438  0.0974  0.1919 -0.0085
  648ERGO    R410087   4.669   0.953   9.233 -0.0869 -0.2637 -0.1055
  648ERGO    R510088   4.524   1.115   9.247  0.2408  0.0188 -0.0697
  648ERGO    C110089   4.438   0.979   8.901 -0.2240  0.1045  0.0082
  648ERGO    C210090   4.544   0.954   8.551 -0.0049  0.0294 -0.1814
  649ERGO   ROH10091   4.198  10.155  10.514 -0.0367  0.1387 -0.0740
  649ERGO    R110092   4.259  10.025  10.271 -0.0902  0.0478 -0.0371
  649ERGO    R210093   4.073   9.989  10.070 -0.0794  0.1403 -0.0506
  649ERGO    R310094   4.262  10.112   9.917  0.0294 -0.0283 -0.0585
  649ERGO    R410095   4.096   9.964   9.726 -0.2635  0.2815 -0.0767
  649ERGO    R510096   4.313   9.952   9.746 -0.2565 -0.0215 -0.1661
  649ERGO    C110097   4.287  10.064   9.383 -0.2685  0.2053 -0.0995
  649ERGO    C210098   4.279  10.094   9.131 -0.4956  0.1781  0.0409
  650ERGO   ROH10099  16.567  11.484  10.429  0.0125  0.2198  0.0084
  650ERGO    R110100  16.513  11.402  10.163  0.0607  0.0453  0.0506
  650ERGO    R210101  16.364  11.554   9.987 -0.1158 -0.1797 -0.0039
  650ERGO    R310102  16.583  11.527   9.828 -0.1041 -0.0335 -0.0131
  650ERGO    R410103  16.361  11.577   9.643 -0.1440 -0.2090 -0.0054
  650ERGO    R510104  16.502  11.411   9.635 -0.0256 -0.1058  0.0003
  650ERGO    C110105  16.565  11.566   9.293 -0.1495 -0.0889 -0.0148
  650ERGO    C210106  16.532  11.583   8.938 -0.0514 -0.0055 -0.1155
  651ERGO   ROH10107  17.667   0.529  10.065 -0.1666 -0.0598 -0.0705
  651ERGO    R110108  17.763   0.523   9.799 -0.1538  0.1265 -0.0720
  651ERGO    R210109  17.778   0.289   9.651  0.1291  0.1786 -0.1352
  651ERGO    R310110  17.631   0.432   9.472 -0.0425  0.0527 -0.0965
  651ERGO    R410111  17.776   0.235   9.310 -0.0429  0.0746 -0.1183
  651ERGO    R510112  17.773   0.451   9.281 -0.1635  0.0632 -0.1844
  651ERGO    C110113  17.636   0.337   8.944 -0.3040 -0.1043 -0.0720
  651ERGO    C210114  17.513   0.120   8.786 -0.0422 -0.1219 -0.0360
  652ERGO   ROH10115  15.250   6.995  10.295 -0.3152  0.0483 -0.1140
  652ERGO    R110116  15.302   7.123  10.048 -0.1201 -0.0255 -0.1127
  652ERGO    R210117  15.476   7.019   9.861 -0.1252 -0.1867 -0.0302
  652ERGO    R310118  15.262   7.042   9.695 -0.0443 -0.0448 -0.1168
  652ERGO    R410119  15.490   6.990   9.516 -0.0292 -0.3182 -0.0165
  652ERGO    R510120  15.349   7.157   9.503  0.1300 -0.1916 -0.1262
  652ERGO    C110121  15.297   6.996   9.161  0.1025 -0.2616 -0.0899
  652ERGO    C210122  15.322   6.996   8.889 -0.0734  0.1591 -0.0623
  653ERGO   ROH10123   6.863  10.558  10.358 -0.0566  0.1229 -0.1100
  653ERGO    R110124   6.929  10.408  10.127 -0.0801  0.0346 -0.0611
  653ERGO    R210125   6.739  10.276   9.976 -0.1116  0.0691 -0.0580
  653ERGO    R310126   6.847  10.420   9.773 -0.0216 -0.0250 -0.0759
  653ERGO    R410127   6.737  10.182   9.644  0.0720 -0.0998 -0.0119
  653ERGO    R510128   6.941  10.256   9.627  0.0713 -0.0886  0.0560
  653ERGO    C110129   6.838  10.262   9.259  0.2633 -0.2863 -0.0021
  653ERGO    C210130   6.874  10.310   8.912  0.0117 -0.0897  0.4041
  654PSPI    C110131  16.858  12.515   5.825  0.0610  0.2464 -0.3593
  654PSPI    C210132  16.910  12.206   5.578  0.1367  0.0642 -0.1195
  654PSPI    C310133  16.541  12.312   5.690  0.1122  0.0412 -0.1775
  654PSPI   PO410134  17.122  12.493   6.042  0.0525  0.0301  0.1058
  654PSPI   GL110135  17.081  12.370   6.521  0.1926  0.1087 -0.1027
  654PSPI   GL210136  16.803  12.457   6.435  0.4255 -0.0004  0.0507
  654PSPI   C1A10137  16.847  12.327   6.879 -0.1796 -0.1965  0.1111
  654PSPI   C2A10138  16.782  12.318   7.308  0.2201  0.1480 -0.2417
  654PSPI   C3A10139  16.971  12.179   7.753  0.0983 -0.0066 -0.2569
  654PSPI   C4A10140  17.279  12.035   7.968 -0.1754 -0.1256 -0.0431
  654PSPI   C1B10141  16.408  12.379   6.610  0.1381 -0.1370 -0.0842
  654PSPI   C2B10142  16.284  12.366   7.053  0.2467 -0.0266 -0.0327
  654PSPI   C3B10143  16.303  12.261   7.489  0.0033 -0.1430 -0.1774
  654PSPI   C4B10144  16.434  12.418   7.773  0.0828  0.1249 -0.0604
  655PSPI    C110145   8.320  12.040   6.172  0.0300  0.3050  0.0464
  655PSPI    C210146   8.077  11.901   6.457  0.0004  0.1500 -0.0532
  655PSPI    C310147   8.006  12.257   6.290 -0.0639  0.1777  0.0327
  655PSPI   PO410148   8.424  11.752   6.112  0.1875  0.1204  0.3206
  655PSPI   GL110149   8.609  11.527   6.534 -0.1540  0.2711  0.0795
  655PSPI   GL210150   8.679  11.065   6.643 -0.1317 -0.0141  0.2365
  655PSPI   C1A10151   8.594  11.871   6.848  0.2685  0.3129  0.1573
  655PSPI   C2A10152   8.583  12.108   7.274  0.1247  0.2830 -0.4959
  655PSPI   C3A10153   8.332  12.119   7.694 -0.1789 -0.1286  0.0244
  655PSPI   C4A10154   8.248  11.911   8.157 -0.0870 -0.0403  0.1080
  655PSPI   C1B10155   8.728  10.964   7.143  0.0451 -0.5964  0.0623
  655PSPI   C2B10156   8.814  11.113   7.574  0.2548  0.1456  0.2529
  655PSPI   C3B10157   8.963  11.310   7.922  0.0940 -0.0986  0.0984
  655PSPI   C4B10158   9.262  11.528   8.208 -0.1226 -0.1391  0.1962
  656PSPI    C110159   8.315   5.914   6.194  0.0190 -0.2144  0.0772
  656PSPI    C210160   8.474   6.198   5.962  0.1126 -0.4237 -0.1187
  656PSPI    C310161   8.104   6.065   5.890 -0.0424 -0.1504  0.1513
  656PSPI   PO410162   8.505   5.990   6.463  0.1432 -0.1294  0.1246
  656PSPI   GL110163   8.872   5.910   6.635  0.1027  0.0785 -0.0172
  656PSPI   GL210164   9.121   5.715   6.620 -0.0310 -0.1601  0.2299
  656PSPI   C1A10165   8.835   5.988   7.047 -0.3253  0.2004  0.3983
  656PSPI   C2A10166   8.993   6.262   7.325 -0.0411  0.0394 -0.1048
  656PSPI   C3A10167   8.879   6.408   7.714 -0.0298 -0.1136  0.1180
  656PSPI   C4A10168   9.194   6.596   7.937  0.0470 -0.0136  0.4236
  656PSPI   C1B10169   9.132   5.594   7.055  0.2619  0.2382  0.1837
  656PSPI   C2B10170   9.033   5.788   7.473 -0.2285  0.0335 -0.0315
  656PSPI   C3B10171   9.179   5.790   7.899  0.1839  0.1353 -0.0316
  656PSPI   C4B10172   9.378   5.823   8.347  0.2530  0.3907 -0.3178
  657PSPI    C110173  14.224  12.669   5.881  0.0217  0.0298  0.1043
  657PSPI    C210174  13.895  12.844   5.736  0.1073 -0.2055 -0.3974
  657PSPI    C310175  14.255  13.000   5.660  0.1315 -0.0853 -0.0553
  657PSPI   PO410176  14.062  12.603   6.175  0.3049 -0.2229  0.0846
  657PSPI   GL110177  14.103  12.551   6.567  0.1182 -0.0686 -0.0853
  657PSPI   GL210178  13.813  12.858   6.610 -0.0920  0.2644  0.1529
  657PSPI   C1A10179  14.062  12.562   6.945 -0.3668  0.1649  0.1541
  657PSPI   C2A10180  14.046  12.569   7.301 -0.1643  0.2277  0.1708
  657PSPI   C3A10181  13.855  12.553   7.641  0.1106 -0.0675  0.0233
  657PSPI   C4A10182  13.623  12.680   7.969 -0.1126  0.0952  0.0897
  657PSPI   C1B10183  13.860  13.017   7.096 -0.0568 -0.0882  0.0485
  657PSPI   C2B10184  13.974  13.015   7.495 -0.1258  0.0432  0.0188
  657PSPI   C3B10185  14.036  12.963   7.937  0.1798 -0.3066 -0.2506
  657PSPI   C4B10186  14.154  12.876   8.398  0.1279 -0.0952 -0.3525
  658PSPI    C110187   5.505   4.850   6.148  0.0347 -0.1123 -0.0457
  658PSPI    C210188   5.725   5.184   6.158 -0.0845 -0.0351  0.0227
  658PSPI    C310189   5.844   4.873   5.937 -0.0243  0.0888 -0.1211
  658PSPI   PO410190   5.547   4.758   6.479 -0.1437  0.0160  0.0788
  658PSPI   GL110191   5.526   4.931   6.838 -0.1207 -0.1257  0.2188
  658PSPI   GL210192   5.715   5.211   7.004 -0.1253 -0.0255 -0.0388
  658PSPI   C1A10193   5.261   4.728   7.184 -0.0337 -0.0427  0.0394
  658PSPI   C2A10194   5.322   4.459   7.544 -0.0069  0.1232  0.2715
  658PSPI   C3A10195   5.053   4.122   7.589 -0.0412 -0.1153  0.1258
  658PSPI   C4A10196   5.039   3.804   7.985 -0.0076 -0.2624  0.0443
  658PSPI   C1B10197   5.708   5.220   7.464  0.3606 -0.0692  0.0742
  658PSPI   C2B10198   5.638   5.205   7.914  0.0517  0.0280 -0.0038
  658PSPI   C3B10199   5.924   5.360   8.270  0.4042  0.2290  0.2827
  658PSPI   C4B10200   5.804   5.733   8.569  0.4072  0.0203  0.0295
  659PSPI    C110201   2.390   4.225   6.003  0.0268  0.2065 -0.0355
  659PSPI    C210202   2.676   4.258   5.726 -0.0392 -0.0334 -0.1353
  659PSPI    C310203   2.605   3.904   5.898 -0.3312  0.0047 -0.1721
  659PSPI   PO410204   2.407   4.341   6.197 -0.3939  0.1668 -0.2499
  659PSPI   GL110205   2.529   4.500   6.563  0.2819  0.2250  0.5841
  659PSPI   GL210206   2.554   4.852   6.656 -0.1769  0.0445  0.2085
  659PSPI   C1A10207   2.547   4.390   6.992  0.1540  0.2251 -0.0497
  659PSPI   C2A10208   2.641   4.500   7.370  0.2577  0.0933  0.1811
  659PSPI   C3A10209   2.548   4.497   7.787  0.1636 -0.0458 -0.2089
  659PSPI   C4A10210   2.568   4.639   8.199 -0.0329  0.1521 -0.1559
  659PSPI   C1B10211   2.644   4.950   7.160  0.1554  0.1613  0.1017
  659PSPI   C2B10212   2.728   4.894   7.612  0.2544  0.2375 -0.0519
  659PSPI   C3B10213   2.881   5.132   7.943 -0.1492 -0.1877 -0.0830
  659PSPI   C4B10214   3.057   5.495   8.247 -0.1827  0.1851 -0.0682
  660PSPI    C110215   7.778   1.258   5.900 -0.1767  0.0334  0.0689
  660PSPI    C210216   7.387   1.264   5.814 -0.0723  0.0431 -0.4338
  660PSPI    C310217   7.633   1.020   5.614  0.1828  0.0376 -0.1224
  660PSPI   PO410218   7.772   1.288   6.247  0.1489  0.4776  0.3236
  660PSPI   GL110219   7.782   0.927   6.602 -0.1009 -0.0737 -0.1225
  660PSPI   GL210220   7.988   0.715   6.569  0.3460 -0.2596  0.3587
  660PSPI   C1A10221   7.633   0.814   7.117  0.1636  0.1067  0.1631
  660PSPI   C2A10222   7.500   0.813   7.601 -0.0391  0.2293  0.0142
  660PSPI   C3A10223   7.253   0.638   7.955  0.1107 -0.0464  0.0142
  660PSPI   C4A10224   7.047   0.276   8.149  0.0112  0.3924 -0.2280
  660PSPI   C1B10225   8.253   0.609   6.810  0.2777  0.3794 -0.1005
  660PSPI   C2B10226   8.593   0.585   7.033 -0.0785  0.0820 -0.2920
  660PSPI   C3B10227   8.708   0.650   7.399 -0.2085 -0.1287  0.1974
  660PSPI   C4B10228   8.819   0.733   7.777  0.2833  0.0083  0.0864
  661PSPI    C110229  16.829   3.742   5.985 -0.0714  0.0214  0.1884
  661PSPI    C210230  16.867   4.014   6.276  0.4341 -0.0446  0.1940
  661PSPI    C310231  16.938   4.116   5.896 -0.1457  0.0208  0.0936
  661PSPI   PO410232  16.899   3.532   6.190  0.2420 -0.0128  0.3355
  661PSPI   GL110233  16.930   3.164   6.439 -0.1250 -0.3367  0.0131
  661PSPI   GL210234  16.695   3.332   6.665  0.0942 -0.3512 -0.1562
  661PSPI   C1A10235  17.082   3.098   6.935 -0.1225  0.2014  0.4188
  661PSPI   C2A10236  17.086   3.117   7.327 -0.0516 -0.0478  0.1648
  661PSPI   C3A10237  16.973   3.098   7.632 -0.0297 -0.0708 -0.0085
  661PSPI   C4A10238  17.058   3.302   8.009  0.2164 -0.2279 -0.1513
  661PSPI   C1B10239  16.758   3.438   7.069  0.2945 -0.0459 -0.0890
  661PSPI   C2B10240  16.668   3.436   7.431  0.1284 -0.1660  0.0442
  661PSPI   C3B10241  16.723   3.559   7.738 -0.1125 -0.0299  0.1691
  661PSPI   C4B10242  16.537   3.526   8.087 -0.2952  0.2836 -0.0809
  662PSPI    C110243   5.936   2.335   5.814 -0.0971  0.0611 -0.1155
  662PSPI    C210244   5.705   2.458   5.511  0.0001  0.1150 -0.1683
  662PSPI    C310245   5.756   2.067   5.578 -0.1295  0.1028 -0.1383
  662PSPI   PO410246   5.912   2.482   5.991  0.3377 -0.0683 -0.2079
  662PSPI   GL110247   5.561   2.505   6.373 -0.0171 -0.0456 -0.1604
  662PSPI   GL210248   5.763   2.238   6.416 -0.0024  0.1032 -0.0433
  662PSPI   C1A10249   5.288   2.473   6.759 -0.0842 -0.0305 -0.0121
  662PSPI   C2A10250   5.153   2.561   7.179 -0.0696  0.1353 -0.1619
  662PSPI   C3A10251   5.085   2.691   7.525  0.0021 -0.0012 -0.0317
  662PSPI   C4A10252   5.240   2.744   7.958 -0.1420 -0.2044 -0.0622
  662PSPI   C1B10253   5.793   2.319   6.814 -0.1284 -0.2903  0.5302
  662PSPI   C2B10254   5.962   2.370   7.307  0.1072 -0.0473 -0.2021
  662PSPI   C3B10255   5.980   2.681   7.713  0.0718 -0.1593 -0.1892
  662PSPI   C4B10256   6.232   2.776   8.033 -0.1988 -0.0184 -0.0823
  663PSPI    C110257   4.511   4.238   6.261 -0.0809 -0.1332  0.2027
  663PSPI    C210258   4.294   3.904   6.300 -0.0536 -0.1626  0.1046
  663PSPI    C310259   4.693   3.883   6.291 -0.0517 -0.1268  0.1043
  663PSPI   PO410260   4.427   4.410   6.402  0.1448 -0.1178 -0.0337
  663PSPI   GL110261   4.152   4.289   6.790 -0.0448 -0.0024  0.2242
  663PSPI   GL210262   4.119   4.625   6.693 -0.0411  0.1379  0.5111
  663PSPI   C1A10263   4.065   4.022   7.220 -0.0450 -0.1546  0.2837
  663PSPI   C2A10264   3.821   3.876   7.474 -0.2915  0.1032 -0.1858
  663PSPI   C3A10265   3.702   3.950   7.834 -0.1170 -0.2249  0.3820
  663PSPI   C4A10266   3.851   3.987   8.247 -0.1224 -0.2625  0.0365
  663PSPI   C1B10267   4.160   4.554   7.269  0.0287  0.1788 -0.3862
  663PSPI   C2B10268   3.915   4.391   7.602  0.1689  0.2629 -0.1852
  663PSPI   C3B10269   3.735   4.497   7.885 -0.2108  0.2548  0.2556
  663PSPI   C4B10270   3.384   4.349   8.102  0.1927 -0.0469 -0.0334
  664PSPI    C110271   8.352  11.352   5.719 -0.0197  0.1056  0.0265
  664PSPI    C210272   8.059  11.516   5.503 -0.0339 -0.0383 -0.0651
  664PSPI    C310273   8.432  11.508   5.360  0.0582  0.3325  0.1402
  664PSPI   PO410274   8.083  11.273   5.969 -0.2148  0.0207 -0.0684
  664PSPI   GL110275   8.075  11.352   6.416  0.0198 -0.0293 -0.2394
  664PSPI   GL210276   8.171  11.005   6.535 -0.1523  0.1231  0.0131
  664PSPI   C1A10277   8.072  11.558   6.784 -0.0705  0.1265 -0.0768
  664PSPI   C2A10278   8.388  11.479   7.074  0.3436  0.1534 -0.0599
  664PSPI   C3A10279   8.509  11.534   7.565  0.0827 -0.4622  0.0852
  664PSPI   C4A10280   8.578  11.623   8.009 -0.1683  0.0007 -0.0966
  664PSPI   C1B10281   8.280  11.020   6.972  0.2800  0.0555  0.3420
  664PSPI   C2B10282   8.266  11.045   7.460  0.1402  0.2967 -0.0556
  664PSPI   C3B10283   8.048  10.834   7.784 -0.0103  0.0640 -0.0551
  664PSPI   C4B10284   8.037  10.457   7.947 -0.2058  0.1618  0.0696
  665PSPI    C110285   5.595  16.345   5.772  0.1474  0.0163 -0.1086
  665PSPI    C210286   5.619  16.326   5.373 -0.2811  0.0856 -0.1425
  665PSPI    C310287   5.681  16.673   5.561  0.5878 -0.0789 -0.0857
  665PSPI   PO410288   5.704  16.088   5.822 -0.2340  0.0171 -0.0722
  665PSPI   GL110289   5.653  15.878   6.131 -0.3014  0.0590  0.0775
  665PSPI   GL210290   6.017  15.829   6.126  0.1231 -0.2221  0.0030
  665PSPI   C1A10291   5.665  15.817   6.599  0.0238  0.0982  0.0530
  665PSPI   C2A10292   5.471  15.794   7.028 -0.0310 -0.2254 -0.0767
  665PSPI   C3A10293   5.278  15.667   7.410 -0.4709  0.1298  0.1601
  665PSPI   C4A10294   5.566  15.482   7.790 -0.2014 -0.1293  0.1648
  665PSPI   C1B10295   6.151  15.837   6.504 -0.0369  0.2225 -0.2784
  665PSPI   C2B10296   6.066  15.887   6.841 -0.1127  0.1480 -0.1006
  665PSPI   C3B10297   6.279  15.793   7.300  0.0693 -0.1464 -0.1126
  665PSPI   C4B10298   6.210  15.936   7.692 -0.0701  0.2326 -0.1431
  666PSPI    C110299  13.158  13.948   5.763 -0.1917 -0.1409  0.0634
  666PSPI    C210300  12.857  14.164   5.611 -0.1073  0.0630  0.1820
  666PSPI    C310301  13.026  13.874   5.393 -0.0391  0.2994 -0.0860
  666PSPI   PO410302  13.077  14.003   6.075  0.0561  0.2813 -0.0153
  666PSPI   GL110303  12.991  13.933   6.536 -0.2564 -0.0106  0.0713
  666PSPI   GL210304  12.822  14.211   6.462  0.0725 -0.1216  0.2705
  666PSPI   C1A10305  12.748  13.917   6.900 -0.1565 -0.0114  0.0725
  666PSPI   C2A10306  12.807  14.033   7.319 -0.2770 -0.1436 -0.1266
  666PSPI   C3A10307  12.919  13.697   7.505  0.0185  0.3603  0.0846
  666PSPI   C4A10308  12.566  13.440   7.584  0.1284  0.0298 -0.1460
  666PSPI   C1B10309  12.525  14.384   6.746 -0.1804 -0.2560  0.0869
  666PSPI   C2B10310  12.426  14.262   7.087 -0.2005 -0.1839 -0.0254
  666PSPI   C3B10311  12.441  14.329   7.556  0.2303 -0.0532  0.0137
  666PSPI   C4B10312  12.927  14.421   7.583 -0.0244 -0.0686  0.0631
  667PSPI    C110313  17.449   1.614   5.938 -0.1067 -0.3118 -0.1035
  667PSPI    C210314  17.799   1.642   6.130 -0.1102 -0.0408 -0.1337
  667PSPI    C310315  17.767   1.412   5.804  0.0172 -0.1316 -0.0828
  667PSPI   PO410316  17.297   1.748   6.233  0.0296  0.0208 -0.2248
  667PSPI   GL110317  17.070   1.650   6.541 -0.0468 -0.0919 -0.0938
  667PSPI   GL210318  16.732   1.798   6.540 -0.0618  0.2932 -0.1451
  667PSPI   C1A10319  17.056   1.736   6.997  0.0428  0.0042  0.0650
  667PSPI   C2A10320  16.929   1.649   7.382 -0.1176  0.2745  0.0349
  667PSPI   C3A10321  16.855   1.428   7.756 -0.1129  0.1106  0.0681
  667PSPI   C4A10322  16.958   1.365   8.200 -0.0760 -0.2268 -0.0719
  667PSPI   C1B10323  16.694   1.431   6.940  0.0389 -0.1505 -0.1183
  667PSPI   C2B10324  16.458   1.173   7.187  0.2306 -0.1519 -0.3386
  667PSPI   C3B10325  16.212   1.055   7.549  0.0475 -0.0509  0.1006
  667PSPI   C4B10326  16.106   0.672   7.769 -0.1311  0.1619 -0.1125
  668PSPI    C110327  14.579   7.085   5.894 -0.0163 -0.0325  0.0080
  668PSPI    C210328  14.958   7.185   5.973  0.0651 -0.0713 -0.3217
  668PSPI    C310329  14.877   6.925   5.680 -0.2035 -0.2420 -0.0994
  668PSPI   PO410330  14.375   7.171   6.116 -0.0724  0.0486 -0.2936
  668PSPI   GL110331  14.549   7.123   6.481  0.1847 -0.0516 -0.1717
  668PSPI   GL210332  14.800   7.099   6.460  0.1292 -0.3327  0.1093
  668PSPI   C1A10333  14.468   7.012   6.975  0.1396  0.2083  0.0056
  668PSPI   C2A10334  14.432   7.003   7.322  0.0614  0.1491 -0.2439
  668PSPI   C3A10335  14.447   6.917   7.737 -0.1995  0.1163  0.3084
  668PSPI   C4A10336  14.510   7.135   8.153 -0.4211 -0.3954  0.2070
  668PSPI   C1B10337  14.973   7.287   6.845  0.0107 -0.3662  0.1600
  668PSPI   C2B10338  14.864   7.285   7.254  0.0672  0.0726 -0.0844
  668PSPI   C3B10339  14.840   7.182   7.640 -0.1316  0.0795 -0.1460
  668PSPI   C4B10340  15.124   7.117   7.870 -0.0961  0.0765  0.1280
  669PSPI    C110341   2.423   0.426   5.789  0.0282  0.0474  0.0975
  669PSPI    C210342   2.611   0.333   5.448 -0.0393  0.2629 -0.0002
  669PSPI    C310343   2.681   0.121   5.780  0.0063  0.0344 -0.1537
  669PSPI   PO410344   2.485   0.668   5.923 -0.2585 -0.0593  0.0347
  669PSPI   GL110345   2.487   0.689   6.357 -0.1702  0.0845 -0.1194
  669PSPI   GL210346   2.672   0.910   6.290  0.0357 -0.1239 -0.2903
  669PSPI   C1A10347   2.420   0.766   6.784 -0.1619  0.0471  0.0215
  669PSPI   C2A10348   2.400   0.836   7.235 -0.1542  0.3634 -0.2044
  669PSPI   C3A10349   2.488   0.547   7.580 -0.0457 -0.2158 -0.0022
  669PSPI   C4A10350   2.293   0.397   7.911  0.0645 -0.2218 -0.1020
  669PSPI   C1B10351   2.715   1.117   6.660  0.0204 -0.0121  0.0297
  669PSPI   C2B10352   2.920   0.995   7.024  0.1025 -0.0382  0.1281
  669PSPI   C3B10353   2.912   0.920   7.438  0.0038 -0.0661  0.0489
  669PSPI   C4B10354   2.799   0.809   7.833 -0.2483 -0.0929 -0.0812
  670PSPI    C110355  14.724   8.037   6.123 -0.1442  0.0926  0.2689
  670PSPI    C210356  14.815   8.421   6.058  0.0163  0.0259  0.0910
  670PSPI    C310357  14.855   8.153   5.763  0.0813 -0.1600  0.2665
  670PSPI   PO410358  14.529   7.970   6.216 -0.0064  0.0298  0.0357
  670PSPI   GL110359  14.303   8.089   6.624 -0.1853 -0.0059 -0.1016
  670PSPI   GL210360  13.914   8.015   6.544  0.1302 -0.1782 -0.0559
  670PSPI   C1A10361  14.284   8.073   7.034 -0.0986  0.2473  0.1211
  670PSPI   C2A10362  14.334   8.151   7.435 -0.2980  0.0466 -0.0068
  670PSPI   C3A10363  14.556   8.090   7.676  0.4751 -0.0414  0.2376
  670PSPI   C4A10364  14.716   8.006   8.195  0.2869 -0.0256  0.1662
  670PSPI   C1B10365  13.864   7.813   7.053 -0.0818  0.0462 -0.0036
  670PSPI   C2B10366  13.774   7.687   7.539 -0.1992  0.2249 -0.0295
  670PSPI   C3B10367  13.921   7.382   7.886 -0.1440  0.1231  0.2121
  670PSPI   C4B10368  14.020   7.174   8.239  0.2599 -0.3476 -0.1513
  671PSPI    C110369   3.910  12.626   5.775  0.1931 -0.0677 -0.0954
  671PSPI    C210370   4.218  12.752   5.553  0.0266  0.1386 -0.2122
  671PSPI    C310371   3.904  12.576   5.378  0.0563 -0.0298 -0.0983
  671PSPI   PO410372   3.878  12.784   5.985 -0.0149  0.1724 -0.2700
  671PSPI   GL110373   3.875  12.758   6.434  0.0990  0.2385  0.0301
  671PSPI   GL210374   3.951  12.451   6.524 -0.0335 -0.2118 -0.2823
  671PSPI   C1A10375   4.146  12.967   6.733 -0.0603  0.2900 -0.1018
  671PSPI   C2A10376   4.345  12.980   7.084  0.0038  0.1407 -0.4747
  671PSPI   C3A10377   4.693  13.115   7.369  0.0046  0.1330  0.1057
  671PSPI   C4A10378   5.121  13.226   7.510  0.1230 -0.0493 -0.2758
  671PSPI   C1B10379   3.723  12.684   6.943 -0.0352  0.1353  0.2556
  671PSPI   C2B10380   3.434  12.710   7.330 -0.1846 -0.1759 -0.2798
  671PSPI   C3B10381   3.094  12.618   7.485  0.2642 -0.0649 -0.3652
  671PSPI   C4B10382   3.059  12.674   7.937 -0.2386  0.0773 -0.2120
  672PSPI    C110383   5.838   7.312   6.079 -0.1154 -0.1470 -0.1702
  672PSPI    C210384   5.570   7.592   5.981 -0.1866 -0.2200 -0.1850
  672PSPI    C310385   5.896   7.540   5.756 -0.0230  0.0507 -0.0167
  672PSPI   PO410386   5.860   7.365   6.386 -0.1117 -0.0901 -0.0962
  672PSPI   GL110387   5.624   7.510   6.741  0.1704  0.1724 -0.0111
  672PSPI   GL210388   5.496   7.840   6.814 -0.2202  0.1640 -0.2025
  672PSPI   C1A10389   5.404   7.383   7.162 -0.0083  0.2297  0.1325
  672PSPI   C2A10390   5.318   7.459   7.488 -0.1841  0.1390 -0.2020
  672PSPI   C3A10391   5.407   7.244   7.925 -0.3237 -0.1621  0.2524
  672PSPI   C4A10392   5.506   6.944   8.301 -0.3182  0.1702  0.1042
  672PSPI   C1B10393   5.612   7.804   7.197  0.1771  0.4448  0.1661
  672PSPI   C2B10394   5.657   7.869   7.570  0.2990 -0.0868  0.2562
  672PSPI   C3B10395   5.390   7.757   7.909 -0.0580 -0.2005  0.2501
  672PSPI   C4B10396   5.447   7.795   8.253 -0.0371  0.1276 -0.1657
  673PSPI    C110397  16.952   5.445   5.852 -0.1672  0.2161  0.0846
  673PSPI    C210398  17.309   5.539   6.006 -0.0853 -0.1707  0.1405
  673PSPI    C310399  17.277   5.442   5.619 -0.1459 -0.0526  0.1153
  673PSPI   PO410400  16.770   5.393   6.072  0.0109  0.0941 -0.3141
  673PSPI   GL110401  16.668   5.480   6.469  0.2097  0.0640 -0.2234
  673PSPI   GL210402  16.869   5.322   6.807  0.1613  0.0352  0.1730
  673PSPI   C1A10403  16.448   5.699   6.763 -0.0137 -0.0126 -0.0422
  673PSPI   C2A10404  16.421   5.794   7.197 -0.0488 -0.0991 -0.2216
  673PSPI   C3A10405  16.705   6.011   7.503 -0.0323 -0.1243 -0.0095
  673PSPI   C4A10406  16.985   6.180   7.804 -0.2492  0.0274  0.3437
  673PSPI   C1B10407  16.890   5.785   6.973  0.1325 -0.1743  0.0749
  673PSPI   C2B10408  16.919   6.238   7.067 -0.0143 -0.0566  0.1250
  673PSPI   C3B10409  16.931   6.541   7.484 -0.2809 -0.1170 -0.2132
  673PSPI   C4B10410  16.983   6.731   7.752  0.1938  0.0788  0.2572
  674POPI    C110411  10.756   7.567   6.055 -0.0098  0.0207 -0.1907
  674POPI    C210412  10.593   7.288   5.820  0.0316 -0.1734  0.0078
  674POPI    C310413  10.593   7.671   5.705  0.1346 -0.2769 -0.3499
  674POPI   PO410414  10.800   7.408   6.233 -0.1235  0.1587  0.1237
  674POPI   GL110415  10.730   7.486   6.619 -0.1975  0.0649 -0.3289
  674POPI   GL210416  10.592   7.662   6.840 -0.2682 -0.1774  0.0453
  674POPI   C1A10417  10.896   7.283   7.082  0.2110 -0.1025  0.2451
  674POPI   D2A10418  11.017   7.229   7.378 -0.1636 -0.1236 -0.0059
  674POPI   C3A10419  11.112   6.787   7.474  0.1230  0.0377 -0.2171
  674POPI   C4A10420  11.519   6.600   7.636  0.1131  0.3189 -0.0081
  674POPI   C1B10421  10.602   7.836   7.232  0.0991 -0.1908 -0.1518
  674POPI   C2B10422  10.713   7.548   7.612 -0.0513  0.0454 -0.1372
  674POPI   C3B10423  11.026   7.323   7.957  0.3670 -0.0858 -0.3334
  674POPI   C4B10424  11.240   7.165   8.374 -0.3163 -0.0832 -0.3287
  675POPI    C110425  12.099  14.201   5.849 -0.0394 -0.1086  0.0367
  675POPI    C210426  12.020  13.975   5.529  0.1383  0.0704 -0.1361
  675POPI    C310427  12.335  14.222   5.527  0.0145  0.2339  0.0948
  675POPI   PO410428  11.864  14.097   6.127 -0.1699 -0.2600 -0.2723
  675POPI   GL110429  11.901  14.129   6.561 -0.1424 -0.2932  0.1545
  675POPI   GL210430  11.536  14.257   6.543 -0.1127  0.0602 -0.1321
  675POPI   C1A10431  11.959  14.070   7.032  0.0036 -0.5137  0.3583
  675POPI   D2A10432  11.885  14.130   7.443 -0.2104  0.1587 -0.0913
  675POPI   C3A10433  11.852  13.914   7.896  0.0861  0.0489 -0.2267
  675POPI   C4A10434  11.797  13.502   8.205  0.1876  0.0595 -0.0928
  675POPI   C1B10435  11.583  14.407   7.082  0.3918  0.0379 -0.2500
  675POPI   C2B10436  11.627  14.565   7.540  0.1758  0.1776 -0.0529
  675POPI   C3B10437  11.781  14.479   7.920 -0.4570  0.1308  0.0477
  675POPI   C4B10438  11.810  14.515   8.302 -0.2119 -0.0291 -0.1989
  676POPI    C110439  12.196  10.028   5.940 -0.2089  0.3566  0.1837
  676POPI    C210440  12.531   9.984   5.726 -0.0592  0.0961  0.4648
  676POPI    C310441  12.181  10.032   5.540  0.1043  0.1589  0.1661
  676POPI   PO410442  12.214  10.193   6.145 -0.0793 -0.1828 -0.1476
  676POPI   GL110443  11.975  10.283   6.535  0.1546 -0.0745  0.1668
  676POPI   GL210444  11.783  10.561   6.598 -0.4133 -0.1519 -0.1495
  676POPI   C1A10445  11.668  10.121   6.809 -0.0568  0.0054  0.2132
  676POPI   D2A10446  11.538  10.092   7.331  0.1645  0.2030  0.1065
  676POPI   C3A10447  11.595   9.697   7.677  0.0716  0.0110  0.0582
  676POPI   C4A10448  11.899   9.515   7.693  0.1851 -0.3642  0.0111
  676POPI   C1B10449  11.590  10.544   7.019 -0.0339 -0.2229 -0.1789
  676POPI   C2B10450  11.404  10.564   7.436 -0.3119 -0.2596 -0.0782
  676POPI   C3B10451  11.132  10.611   7.673  0.0759 -0.0594  0.1163
  676POPI   C4B10452  10.791  10.397   7.938 -0.2594 -0.1433 -0.0335
  677POPI    C110453   3.275  13.907   6.050  0.2647  0.1570 -0.0823
  677POPI    C210454   3.476  13.997   5.717  0.1391  0.1264 -0.1674
  677POPI    C310455   3.149  13.769   5.697  0.2932 -0.1157  0.0115
  677POPI   PO410456   3.140  14.137   6.177 -0.0964 -0.0863 -0.0293
  677POPI   GL110457   3.044  14.246   6.516 -0.1652  0.1643  0.0671
  677POPI   GL210458   3.404  14.380   6.583  0.2142  0.1142  0.3779
  677POPI   C1A10459   3.210  13.950   6.914  0.1382 -0.1713 -0.2391
  677POPI   D2A10460   3.247  13.828   7.316 -0.1383 -0.0011 -0.0006
  677POPI   C3A10461   3.089  14.018   7.706  0.3331 -0.4852 -0.0125
  677POPI   C4A10462   2.909  13.901   8.179  0.1455  0.1138  0.2193
  677POPI   C1B10463   3.144  14.436   6.960  0.1354  0.2702  0.2043
  677POPI   C2B10464   2.825  14.544   7.086 -0.0278  0.4097 -0.1350
  677POPI   C3B10465   2.453  14.390   7.209  0.0056  0.1748  0.0063
  677POPI   C4B10466   2.282  14.230   7.560 -0.1827 -0.2544 -0.0261
  678POPI    C110467   3.443  12.646   5.573 -0.3143 -0.0799  0.3355
  678POPI    C210468   3.120  12.575   5.349 -0.0745 -0.1458  0.0029
  678POPI    C310469   3.236  12.951   5.420  0.0783 -0.1266 -0.3286
  678POPI   PO410470   3.410  12.496   5.734  0.1609 -0.1648  0.1267
  678POPI   GL110471   3.426  12.564   6.136  0.1019 -0.0276 -0.1015
  678POPI   GL210472   3.238  12.382   6.243 -0.1381 -0.3156  0.2745
  678POPI   C1A10473   3.393  12.699   6.558  0.1499 -0.0120  0.0854
  678POPI   D2A10474   3.138  12.611   6.931  0.0480 -0.2035  0.0935
  678POPI   C3A10475   2.824  12.936   6.990  0.1786  0.0607  0.3541
  678POPI   C4A10476   2.523  13.198   6.589  0.0680 -0.2642  0.1312
  678POPI   C1B10477   3.077  12.183   6.526  0.0883 -0.1079 -0.1193
  678POPI   C2B10478   3.216  11.763   6.756 -0.1868 -0.1596 -0.0260
  678POPI   C3B10479   3.502  11.658   7.114 -0.3540  0.1897 -0.0584
  678POPI   C4B10480   3.498  11.325   7.400 -0.1410 -0.3257 -0.0485
  679POPI    C110481   3.289  17.744   5.682  0.0148 -0.1251 -0.2287
  679POPI    C210482   3.010  17.843   5.413  0.0879  0.3337 -0.1445
  679POPI    C310483   3.396  17.908   5.334  0.1467  0.0387 -0.1126
  679POPI   PO410484   3.244  17.881   5.903 -0.3816 -0.1150  0.0606
  679POPI   GL110485   3.084  17.850   6.324  0.0763  0.0426  0.3834
  679POPI   GL210486   2.847  17.702   6.283 -0.1131  0.2085  0.0591
  679POPI   C1A10487   3.144  17.999   6.784  0.0065 -0.1441  0.0174
  679POPI   D2A10488   3.187  18.005   7.237  0.0788 -0.1543 -0.0789
  679POPI   C3A10489   3.241  18.344   7.510  0.1610  0.0225 -0.2180
  679POPI   C4A10490   3.276  18.367   8.040  0.0899 -0.0943  0.2807
  679POPI   C1B10491   2.740  17.739   6.684 -0.2222 -0.2255  0.0379
  679POPI   C2B10492   2.801  17.723   7.096  0.1615 -0.0978  0.2654
  679POPI   C3B10493   2.766  17.957   7.435 -0.1008 -0.0944 -0.0462
  679POPI   C4B10494   2.875  18.176   7.772 -0.0540 -0.1879  0.1662
  680POPI    C110495  12.776   8.873   5.938 -0.1751 -0.0119 -0.1787
  680POPI    C210496  12.765   8.861   5.538  0.0489  0.0105 -0.1867
  680POPI    C310497  12.623   9.180   5.733  0.1048  0.0786 -0.2570
  680POPI   PO410498  12.819   8.667   6.114 -0.2505 -0.0585  0.2720
  680POPI   GL110499  12.580   8.722   6.558 -0.0716  0.0363  0.1962
  680POPI   GL210500  12.863   8.661   6.754 -0.1465  0.1995  0.6253
  680POPI   C1A10501  12.384   8.403   6.877 -0.0958  0.0080  0.2463
  680POPI   D2A10502  12.357   8.257   7.351 -0.0469  0.1549 -0.0237
  680POPI   C3A10503  12.530   8.373   7.737  0.2566  0.0593 -0.0133
  680POPI   C4A10504  12.445   8.490   8.186  0.0975  0.4177  0.0823
  680POPI   C1B10505  12.824   8.376   7.104 -0.3481 -0.0102  0.1013
  680POPI   C2B10506  12.853   7.883   7.205 -0.0240 -0.0229 -0.0576
  680POPI   C3B10507  12.722   7.516   7.419  0.0751 -0.0586  0.4715
  680POPI   C4B10508  13.022   7.182   7.556 -0.1048  0.0860 -0.2124
  681POPI    C110509   6.562   8.045   6.602  0.1627  0.1278  0.0400
  681POPI    C210510   6.568   8.162   6.219 -0.0572 -0.0462 -0.0187
  681POPI    C310511   6.392   8.391   6.496  0.0830  0.0694 -0.0239
  681POPI   PO410512   6.661   7.759   6.568 -0.0006 -0.3802  0.0590
  681POPI   GL110513   6.551   7.484   6.907 -0.0782  0.2521  0.0368
  681POPI   GL210514   6.306   7.786   7.075 -0.1193 -0.0849 -0.0868
  681POPI   C1A10515   6.407   7.330   7.344 -0.1602  0.0049  0.0587
  681POPI   D2A10516   6.294   7.418   7.832 -0.2661  0.1342  0.0829
  681POPI   C3A10517   6.457   7.213   8.166 -0.2296  0.0347  0.3947
  681POPI   C4A10518   6.625   7.333   8.604  0.0455 -0.1008  0.0321
  681POPI   C1B10519   6.171   7.817   7.483  0.0350  0.1025  0.0106
  681POPI   C2B10520   6.075   7.976   7.934 -0.1250 -0.2600  0.0140
  681POPI   C3B10521   5.944   7.960   8.344  0.0250 -0.0834  0.0977
  681POPI   C4B10522   5.795   7.836   8.765  0.0101  0.0623  0.2447
  682POPI    C110523   1.353  15.528   5.791 -0.0691  0.2402  0.0832
  682POPI    C210524   1.089  15.627   5.508 -0.0881 -0.0246  0.0054
  682POPI    C310525   1.427  15.437   5.409 -0.0105  0.0412  0.1406
  682POPI   PO410526   1.124  15.511   6.015 -0.0632 -0.2340  0.1589
  682POPI   GL110527   1.220  15.262   6.293  0.3092 -0.0617 -0.0351
  682POPI   GL210528   1.032  14.953   6.339  0.1697 -0.1306 -0.2274
  682POPI   C1A10529   1.329  15.161   6.683 -0.0564 -0.2121 -0.1301
  682POPI   D2A10530   1.709  15.378   6.815  0.3873  0.1419 -0.0642
  682POPI   C3A10531   1.957  15.134   7.067  0.2183 -0.0133 -0.0954
  682POPI   C4A10532   2.121  14.740   7.173  0.2207  0.0514  0.1405
  682POPI   C1B10533   0.945  14.689   6.570  0.2333  0.3168 -0.1255
  682POPI   C2B10534   1.048  14.468   6.877 -0.1418 -0.2626 -0.2158
  682POPI   C3B10535   1.164  14.500   7.305 -0.1678  0.0551  0.1217
  682POPI   C4B10536   1.310  14.491   7.859 -0.4107  0.0404  0.2555
  683POPI    C110537   2.298   9.933   5.993 -0.0125 -0.0301  0.1554
  683POPI    C210538   2.062   9.631   5.878 -0.2294  0.2398 -0.1240
  683POPI    C310539   2.280   9.829   5.607  0.1314  0.1546  0.0975
  683POPI   PO410540   2.198   9.944   6.249 -0.1309  0.1508 -0.0284
  683POPI   GL110541   2.176  10.074   6.662 -0.0607  0.1042 -0.1200
  683POPI   GL210542   1.963   9.842   6.784  0.1573  0.0948  0.0893
  683POPI   C1A10543   2.394  10.234   7.034 -0.3882  0.0519 -0.0319
  683POPI   D2A10544   2.402  10.201   7.446  0.3410  0.2210 -0.0355
  683POPI   C3A10545   2.682  10.008   7.708  0.3406 -0.1280  0.0011
  683POPI   C4A10546   2.915  10.246   8.143 -0.0679 -0.0147 -0.0402
  683POPI   C1B10547   2.080   9.891   7.248  0.0184  0.0852 -0.1104
  683POPI   C2B10548   2.160   9.839   7.761 -0.1669 -0.0600  0.0488
  683POPI   C3B10549   2.091   9.470   8.117  0.2316  0.1044 -0.0006
  683POPI   C4B10550   2.151   9.091   8.150  0.1290  0.2028 -0.1847
  684POPI    C110551  11.684   7.566   5.844 -0.1323  0.3161 -0.0099
  684POPI    C210552  11.992   7.782   5.709  0.0006  0.0725 -0.1035
  684POPI    C310553  11.922   7.418   5.559 -0.2272  0.0533  0.0442
  684POPI   PO410554  11.718   7.611   6.126 -0.0663  0.1495  0.3503
  684POPI   GL110555  11.457   7.597   6.439 -0.1047 -0.0410 -0.2749
  684POPI   GL210556  11.159   7.640   6.459 -0.0212 -0.2836 -0.0413
  684POPI   C1A10557  11.615   7.593   6.760  0.2476  0.0627  0.0138
  684POPI   D2A10558  11.948   7.571   7.051 -0.1253 -0.1087  0.1246
  684POPI   C3A10559  11.968   7.376   7.349  0.0362 -0.2365 -0.0471
  684POPI   C4A10560  11.848   6.951   7.652  0.0780 -0.0486  0.0160
  684POPI   C1B10561  11.101   7.772   6.886 -0.0943 -0.0918 -0.1584
  684POPI   C2B10562  11.087   7.712   7.304 -0.0631  0.0475  0.0743
  684POPI   C3B10563  11.276   7.649   7.663  0.0601 -0.1136  0.1083
  684POPI   C4B10564  11.285   7.677   8.139 -0.0714 -0.1592 -0.3022
  685POPI    C110565  15.631  14.035   5.894 -0.1164 -0.0608 -0.3561
  685POPI    C210566  15.587  13.717   5.655 -0.2550 -0.1312 -0.2390
  685POPI    C310567  15.265  13.916   5.785 -0.1945 -0.2327  0.0737
  685POPI   PO410568  15.890  13.889   6.021  0.0863  0.0560 -0.2210
  685POPI   GL110569  15.932  13.496   6.435  0.1624  0.1729  0.0382
  685POPI   GL210570  15.759  13.778   6.498  0.2400  0.0110  0.1832
  685POPI   C1A10571  16.289  13.582   6.624  0.0936  0.1372 -0.0967
  685POPI   D2A10572  16.686  13.792   6.705 -0.1081  0.3062 -0.3842
  685POPI   C3A10573  16.964  13.973   7.077 -0.1553  0.1147  0.0446
  685POPI   C4A10574  17.032  13.709   7.529  0.2347 -0.2081  0.0665
  685POPI   C1B10575  15.844  13.699   6.888 -0.2622 -0.1805 -0.0004
  685POPI   C2B10576  15.817  13.703   7.413 -0.0010  0.0913  0.5813
  685POPI   C3B10577  15.838  13.794   7.783 -0.1909 -0.0515 -0.3056
  685POPI   C4B10578  16.197  13.900   7.915  0.0027 -0.1367 -0.1007
  686POPI    C110579   5.866   4.364   6.147  0.0347 -0.1940 -0.0967
  686POPI    C210580   5.942   4.047   5.914 -0.2442 -0.1905 -0.1963
  686POPI    C310581   6.042   4.415   5.791  0.1588 -0.2436 -0.0430
  686POPI   PO410582   5.978   4.351   6.426 -0.1184 -0.2002  0.3320
  686POPI   GL110583   5.843   4.412   6.769  0.0437  0.0510 -0.2938
  686POPI   GL210584   6.060   4.600   6.894 -0.0335 -0.2635  0.3886
  686POPI   C1A10585   5.716   3.966   6.893  0.0274  0.0769 -0.1967
  686POPI   D2A10586   5.804   3.716   7.109 -0.3205  0.0988 -0.0795
  686POPI   C3A10587   5.824   3.650   7.549  0.1612  0.1047 -0.1814
  686POPI   C4A10588   6.080   3.600   7.951  0.0712 -0.3060 -0.1658
  686POPI   C1B10589   5.771   4.623   7.258  0.1135 -0.0644 -0.1244
  686POPI   C2B10590   5.754   4.741   7.715  0.0843  0.0707 -0.3009
  686POPI   C3B10591   5.711   4.447   8.091  0.0412  0.2377  0.2106
  686POPI   C4B10592   5.592   4.322   8.519  0.0905  0.2819 -0.0404
  687POPI    C110593   9.279   8.576   6.263  0.1314  0.1122  0.0699
  687POPI    C210594   9.105   8.410   5.943  0.1297 -0.0377  0.1479
  687POPI    C310595   9.124   8.808   5.976  0.0324 -0.0215  0.0143
  687POPI   PO410596   9.085   8.410   6.468 -0.1317 -0.2451 -0.1994
  687POPI   GL110597   8.897   8.104   6.826 -0.2950 -0.0813  0.1717
  687POPI   GL210598   8.782   7.834   6.725 -0.0249 -0.0019 -0.1154
  687POPI   C1A10599   8.870   8.080   7.298 -0.2855 -0.2165  0.0055
  687POPI   D2A10600   9.118   8.382   7.656  0.1292  0.2560  0.0298
  687POPI   C3A10601   9.007   8.613   7.989  0.2521 -0.2191  0.0313
  687POPI   C4A10602   8.786   8.668   8.406 -0.0308 -0.0841  0.0122
  687POPI   C1B10603   9.029   7.628   7.148 -0.1659  0.0882 -0.2323
  687POPI   C2B10604   9.153   7.438   7.561 -0.0484  0.2979 -0.1189
  687POPI   C3B10605   9.463   7.306   7.801 -0.0629 -0.2218  0.0588
  687POPI   C4B10606   9.499   7.536   8.146  0.4767 -0.0010  0.0701
  688POPI    C110607  10.446   2.460   5.929 -0.0245  0.1628  0.0163
  688POPI    C210608  10.544   2.229   5.617 -0.5271  0.0367 -0.0571
  688POPI    C310609  10.469   2.618   5.562 -0.1977  0.1082 -0.0193
  688POPI   PO410610  10.666   2.404   6.136 -0.0647 -0.0738 -0.1871
  688POPI   GL110611  10.705   2.195   6.505  0.0175  0.0741  0.0583
  688POPI   GL210612  10.675   1.807   6.430 -0.1153  0.0738 -0.1716
  688POPI   C1A10613  10.547   2.112   7.003  0.2071  0.2241  0.0799
  688POPI   D2A10614  10.527   2.026   7.451 -0.2080  0.3001 -0.0282
  688POPI   C3A10615  10.840   1.856   7.766  0.0937  0.3317 -0.2922
  688POPI   C4A10616  10.903   1.702   8.256 -0.3181  0.2271 -0.0288
  688POPI   C1B10617  10.860   1.744   6.880 -0.0126 -0.0342 -0.3566
  688POPI   C2B10618  10.874   1.512   7.260  0.0705  0.2435 -0.0875
  688POPI   C3B10619  10.617   1.410   7.673  0.1053  0.3655  0.3113
  688POPI   C4B10620  10.803   1.141   8.079  0.0513  0.0790 -0.2470
  689POPI    C110621  14.841  10.132   5.935 -0.0804  0.0471  0.2250
  689POPI    C210622  15.132  10.407   5.929 -0.0736  0.0368  0.0141
  689POPI    C310623  14.755  10.513   5.850 -0.0702 -0.0152 -0.0734
  689POPI   PO410624  14.835   9.952   6.235 -0.1511  0.1196 -0.0110
  689POPI   GL110625  14.848  10.085   6.691  0.0508  0.0613 -0.1856
  689POPI   GL210626  15.056   9.864   6.817 -0.1968 -0.2011 -0.0832
  689POPI   C1A10627  14.802  10.365   7.055  0.0418  0.0781  0.1196
  689POPI   D2A10628  14.670  10.327   7.502  0.0107 -0.1791 -0.2241
  689POPI   C3A10629  14.818   9.928   7.682  0.1033  0.0378 -0.0756
  689POPI   C4A10630  14.615   9.534   7.849 -0.0378 -0.0064  0.1062
  689POPI   C1B10631  15.105  10.030   7.268 -0.0037 -0.0039 -0.0642
  689POPI   C2B10632  15.166  10.307   7.524 -0.1208 -0.3207  0.0835
  689POPI   C3B10633  15.369  10.531   7.839 -0.1831  0.1905  0.3211
  689POPI   C4B10634  15.331  10.757   8.171 -0.0186  0.0700 -0.0635
  690POPI    C110635   8.666  12.149   5.839 -0.0817 -0.1034 -0.2384
  690POPI    C210636   9.023  12.041   5.695  0.0929  0.3256 -0.1459
  690POPI    C310637   8.718  12.110   5.445  0.0402 -0.1360 -0.2194
  690POPI   PO410638   8.735  12.390   6.049 -0.0076  0.1709  0.3429
  690POPI   GL110639   8.445  12.682   6.254 -0.1260 -0.2135  0.2884
  690POPI   GL210640   8.063  12.745   6.289  0.1876  0.2956  0.3498
  690POPI   C1A10641   8.486  12.761   6.743 -0.3941 -0.0019  0.0797
  690POPI   D2A10642   8.365  12.578   7.127  0.0580 -0.0131 -0.0352
  690POPI   C3A10643   8.682  12.628   7.539 -0.0001  0.0362  0.1460
  690POPI   C4A10644   8.688  12.424   7.876  0.1608 -0.3565 -0.1155
  690POPI   C1B10645   7.976  12.652   6.593  0.2705 -0.2693  0.0664
  690POPI   C2B10646   7.890  12.546   7.088  0.0767 -0.1124 -0.4052
  690POPI   C3B10647   7.910  12.195   7.317  0.1595 -0.0728  0.0508
  690POPI   C4B10648   8.134  11.854   7.287 -0.0454  0.0057 -0.1666
  691POPI    C110649   1.969  10.354   6.066  0.1980  0.0944  0.0825
  691POPI    C210650   1.573  10.367   6.010  0.2199  0.0696 -0.0833
  691POPI    C310651   1.773  10.027   5.944  0.2520  0.0473  0.1212
  691POPI   PO410652   1.979  10.411   6.349 -0.0035 -0.2017 -0.1528
  691POPI   GL110653   1.983  10.730   6.663  0.0625 -0.0651  0.1756
  691POPI   GL210654   1.765  10.880   6.797  0.2565  0.1187 -0.0188
  691POPI   C1A10655   2.307  10.713   6.904  0.0617 -0.1766  0.0139
  691POPI   D2A10656   2.512  10.893   7.255 -0.1695 -0.1594 -0.0389
  691POPI   C3A10657   2.391  10.821   7.619  0.3256 -0.3890  0.0326
  691POPI   C4A10658   2.401  11.142   7.892 -0.0068  0.0501 -0.1711
  691POPI   C1B10659   1.524  10.828   7.174  0.3244  0.1859 -0.2768
  691POPI   C2B10660   1.562  10.735   7.605  0.0078  0.4051 -0.0194
  691POPI   C3B10661   1.584  10.407   8.060 -0.2787 -0.0246 -0.2937
  691POPI   C4B10662   1.936  10.131   8.098 -0.1270 -0.1770 -0.1553
  692POPI    C110663  15.873  16.136   5.556  0.0156  0.0192 -0.0262
  692POPI    C210664  15.519  16.216   5.390 -0.0631  0.0069  0.1339
  692POPI    C310665  15.796  16.016   5.182 -0.1692 -0.0310  0.0269
  692POPI   PO410666  15.906  16.423   5.730 -0.4027  0.2510  0.2507
  692POPI   GL110667  15.892  16.330   6.211  0.2693 -0.1066  0.1700
  692POPI   GL210668  16.168  16.200   6.084 -0.3770 -0.1839  0.2484
  692POPI   C1A10669  16.138  16.176   6.572 -0.1679  0.0139 -0.0437
  692POPI   D2A10670  16.361  16.021   6.906 -0.0421  0.0499 -0.2199
  692POPI   C3A10671  16.652  16.234   7.203  0.0287  0.1815 -0.1511
  692POPI   C4A10672  16.957  15.968   7.500  0.1168  0.0840  0.1775
  692POPI   C1B10673  16.513  15.969   6.312 -0.1105  0.1062  0.3677
  692POPI   C2B10674  16.759  15.643   6.570  0.0307 -0.0758 -0.1563
  692POPI   C3B10675  16.756  15.612   7.063 -0.1307  0.0025 -0.1758
  692POPI   C4B10676  16.601  15.583   7.443  0.0353  0.2652 -0.0301
  693POPI    C110677   9.869  17.817   5.631 -0.0227 -0.0640  0.2290
  693POPI    C210678   9.486  17.875   5.728 -0.1534  0.2037 -0.3983
  693POPI    C310679   9.580  17.642   5.417  0.2030  0.0576 -0.1871
  693POPI   PO410680   9.982  17.683   5.978  0.2277  0.2838  0.1132
  693POPI   GL110681   9.688  17.489   6.383 -0.0661 -0.1105 -0.2876
  693POPI   GL210682   9.524  17.707   6.254  0.1387 -0.0485 -0.2276
  693POPI   C1A10683   9.888  17.575   6.715  0.1146  0.2534 -0.1978
  693POPI   D2A10684  10.050  17.709   7.199 -0.2791 -0.3053 -0.3227
  693POPI   C3A10685   9.875  17.501   7.628  0.1196 -0.1477  0.0179
  693POPI   C4A10686   9.845  17.271   7.930  0.0116  0.2061  0.0932
  693POPI   C1B10687   9.294  17.506   6.642  0.2075 -0.0805  0.1794
  693POPI   C2B10688   9.085  17.451   6.951  0.0262  0.3711  0.1267
  693POPI   C3B10689   9.076  17.096   7.202  0.0736 -0.0668  0.0940
  693POPI   C4B10690   9.057  16.775   7.409  0.0022 -0.1765  0.0995
  694POPI    C110691   1.066  17.470   6.105 -0.2473  0.1756 -0.0013
  694POPI    C210692   1.189  17.097   6.029 -0.0141  0.2501  0.0004
  694POPI    C310693   0.931  17.277   5.782 -0.2348  0.0408  0.0733
  694POPI   PO410694   0.956  17.408   6.383  0.0054  0.2394  0.0171
  694POPI   GL110695   1.192  17.331   6.740  0.0385 -0.1489 -0.3080
  694POPI   GL210696   1.447  17.466   6.928  0.0499  0.2389 -0.0298
  694POPI   C1A10697   1.166  16.935   6.989  0.0049 -0.0669 -0.0726
  694POPI   D2A10698   1.206  16.975   7.421  0.1177 -0.0117  0.2211
  694POPI   C3A10699   1.434  17.339   7.567 -0.2419  0.2485  0.0268
  694POPI   C4A10700   1.587  17.590   7.839 -0.1383 -0.2100  0.1956
  694POPI   C1B10701   1.055  17.392   7.193 -0.0988  0.0396 -0.0577
  694POPI   C2B10702   0.718  17.346   7.263  0.1445  0.0249  0.0135
  694POPI   C3B10703   0.559  17.385   7.676  0.0508 -0.3451  0.0758
  694POPI   C4B10704   0.464  17.165   7.973  0.1138  0.0626  0.1943
  695POPI    C110705   8.837   7.485   6.125  0.1287 -0.2262 -0.2732
  695POPI    C210706   8.835   7.097   6.027 -0.2813 -0.2871 -0.0457
  695POPI    C310707   8.507   7.319   5.973 -0.1000 -0.0090 -0.0236
  695POPI   PO410708   8.938   7.389   6.439 -0.0215 -0.4938  0.0331
  695POPI   GL110709   8.795   7.328   6.807  0.0893 -0.1223  0.1396
  695POPI   GL210710   8.465   7.338   6.837  0.0201 -0.2406 -0.0282
  695POPI   C1A10711   8.764   7.199   7.226  0.2299 -0.0849 -0.2143
  695POPI   D2A10712   8.608   7.393   7.512  0.0019 -0.1100  0.0149
  695POPI   C3A10713   8.869   7.554   7.945  0.1254  0.0421  0.0039
  695POPI   C4A10714   8.831   7.594   8.404 -0.1149  0.2370  0.1620
  695POPI   C1B10715   8.244   7.474   7.214 -0.0931 -0.1333  0.2149
  695POPI   C2B10716   8.166   7.614   7.694  0.1302  0.0355 -0.0157
  695POPI   C3B10717   8.004   7.648   8.126 -0.2724 -0.0520 -0.0680
  695POPI   C4B10718   7.838   7.595   8.530  0.0030  0.2683  0.1512
  696POPI    C110719   2.192   5.321   6.390 -0.1673  0.4168 -0.1976
  696POPI    C210720   2.590   5.356   6.360 -0.0937 -0.0224  0.1657
  696POPI    C310721   2.380   5.192   6.061  0.0339 -0.0482  0.0897
  696POPI   PO410722   2.139   5.187   6.594 -0.1059  0.0948  0.0502
  696POPI   GL110723   1.903   5.416   6.930 -0.2374 -0.1710 -0.1380
  696POPI   GL210724   1.667   5.140   6.968  0.2079  0.2119 -0.2470
  696POPI   C1A10725   1.779   5.618   7.261  0.0557 -0.1058 -0.2059
  696POPI   D2A10726   1.621   5.688   7.679  0.1702 -0.2757 -0.0227
  696POPI   C3A10727   1.916   5.769   7.970  0.2131 -0.0054  0.2529
  696POPI   C4A10728   2.034   6.040   8.335 -0.1870  0.1285 -0.1719
  696POPI   C1B10729   1.821   5.133   7.335  0.1122 -0.0022 -0.1035
  696POPI   C2B10730   1.955   5.288   7.685  0.0422 -0.0715 -0.1068
  696POPI   C3B10731   2.018   5.329   8.141 -0.1362  0.0649 -0.1332
  696POPI   C4B10732   1.761   5.232   8.544 -0.2206 -0.0835  0.0067
  697POPI    C110733  14.684  15.422   5.809 -0.0370 -0.0876  0.2730
  697POPI    C210734  14.683  15.132   5.534  0.0704  0.1392  0.0287
  697POPI    C310735  14.348  15.337   5.609  0.0865  0.2025 -0.0696
  697POPI   PO410736  14.780  15.322   6.051  0.1528 -0.0656  0.2488
  697POPI   GL110737  14.868  15.490   6.457 -0.0616  0.1426 -0.1368
  697POPI   GL210738  15.004  15.791   6.577  0.2199 -0.1330 -0.1661
  697POPI   C1A10739  14.619  15.438   6.799 -0.0272  0.0961  0.0252
  697POPI   D2A10740  14.370  15.326   7.099 -0.3202 -0.0742  0.2759
  697POPI   C3A10741  14.291  15.621   7.343 -0.1333  0.1330  0.1558
  697POPI   C4A10742  14.557  15.895   7.153 -0.2627  0.0606  0.2077
  697POPI   C1B10743  14.567  16.023   6.609  0.0462  0.0101  0.0113
  697POPI   C2B10744  14.207  16.062   6.801 -0.0815 -0.0911  0.0022
  697POPI   C3B10745  14.063  16.074   7.196  0.1492  0.1588 -0.1837
  697POPI   C4B10746  13.849  15.806   7.407 -0.0818  0.2054  0.2670
  698POPI    C110747   0.708   7.927   6.201  0.0277 -0.0624 -0.1051
  698POPI    C210748   0.863   7.987   5.837  0.0051 -0.0468 -0.1122
  698POPI    C310749   0.889   7.626   6.008  0.2499  0.0139 -0.0181
  698POPI   PO410750   0.539   8.160   6.221  0.1184 -0.2164  0.1925
  698POPI   GL110751   0.289   8.372   6.576  0.1571 -0.0331  0.0844
  698POPI   GL210752   0.293   8.775   6.710 -0.0175  0.1868 -0.1251
  698POPI   C1A10753   0.229   8.052   6.962  0.1605 -0.0577  0.1096
  698POPI   D2A10754   0.541   7.717   7.001 -0.1067 -0.0484 -0.0314
  698POPI   C3A10755   0.404   7.267   6.887  0.0866 -0.1866 -0.0571
  698POPI   C4A10756   0.164   7.104   7.199  0.2133 -0.1084 -0.0589
  698POPI   C1B10757   0.117   8.998   7.027  0.1328 -0.3418  0.0991
  698POPI   C2B10758  -0.167   8.958   7.429  0.3216  0.1429 -0.3768
  698POPI   C3B10759  -0.058   8.878   7.833  0.0475 -0.2687 -0.0371
  698POPI   C4B10760  -0.143   9.011   8.257  0.2495 -0.2710 -0.1427
  699POPI    C110761   2.148  16.197   6.275  0.0016 -0.0830 -0.0528
  699POPI    C210762   1.968  16.489   6.069  0.0312 -0.1623 -0.1926
  699POPI    C310763   2.355  16.412   6.008  0.1482  0.0890  0.1956
  699POPI   PO410764   1.913  16.085   6.344 -0.0467 -0.0833 -0.1444
  699POPI   GL110765   1.739  16.311   6.691  0.0120  0.1524 -0.1727
  699POPI   GL210766   1.559  16.066   6.720  0.1285 -0.4711  0.1204
  699POPI   C1A10767   1.832  16.329   7.107 -0.1097 -0.2590  0.1009
  699POPI   D2A10768   1.629  16.153   7.384 -0.1452  0.1727  0.0761
  699POPI   C3A10769   1.233  15.971   7.107 -0.0589 -0.2651 -0.1849
  699POPI   C4A10770   0.781  15.909   6.902 -0.0924  0.0347  0.1386
  699POPI   C1B10771   1.737  15.816   7.022 -0.0634 -0.0668 -0.0759
  699POPI   C2B10772   1.893  15.695   7.318  0.0240 -0.0090 -0.1672
  699POPI   C3B10773   2.029  15.569   7.714 -0.3861 -0.1878  0.0296
  699POPI   C4B10774   2.167  15.296   7.920 -0.2776 -0.2594  0.2333
  700POPI    C110775  10.877   3.876   5.871  0.0421  0.2657 -0.1147
  700POPI    C210776  11.066   3.931   5.523 -0.0498 -0.0284 -0.2131
  700POPI    C310777  10.705   4.092   5.582 -0.0278  0.0340 -0.2482
  700POPI   PO410778  11.069   3.930   6.069 -0.1121  0.1346 -0.1194
  700POPI   GL110779  11.230   3.895   6.496 -0.1291  0.0653 -0.1449
  700POPI   GL210780  10.995   3.988   6.658 -0.1344  0.0773 -0.2931
  700POPI   C1A10781  11.454   3.902   6.843 -0.0980  0.0141  0.0090
  700POPI   D2A10782  11.564   3.948   7.254 -0.0129 -0.1535 -0.0738
  700POPI   C3A10783  11.683   4.235   7.506 -0.0461 -0.0204 -0.0213
  700POPI   C4A10784  11.634   4.566   7.785 -0.1229 -0.0390 -0.0041
  700POPI   C1B10785  10.937   4.128   7.003 -0.0650 -0.0777 -0.0038
  700POPI   C2B10786  11.025   4.264   7.488  0.2702  0.3653 -0.1041
  700POPI   C3B10787  11.124   4.568   7.901 -0.4942  0.0536  0.1978
  700POPI   C4B10788  11.007   4.719   8.321 -0.1145  0.1315  0.1784
  701POPI    C110789  16.162  10.352   5.939  0.0436  0.0720  0.0234
  701POPI    C210790  15.992  10.624   5.700  0.0471  0.0353 -0.0210
  701POPI    C310791  16.121  10.277   5.548  0.2496  0.1021 -0.0052
  701POPI   PO410792  16.358  10.540   6.135  0.0512  0.0139 -0.1319
  701POPI   GL110793  16.229  10.612   6.500  0.3042  0.0047 -0.1216
  701POPI   GL210794  16.494  10.724   6.633  0.1427 -0.0539  0.0249
  701POPI   C1A10795  16.033  10.461   6.830  0.0263 -0.4177  0.0057
  701POPI   D2A10796  16.064  10.595   7.331 -0.1372  0.0182 -0.1893
  701POPI   C3A10797  16.201  10.433   7.711  0.3193  0.0348  0.1783
  701POPI   C4A10798  16.385  10.347   8.124 -0.0352  0.1484  0.2096
  701POPI   C1B10799  16.314  10.840   6.975 -0.2545  0.0147 -0.3178
  701POPI   C2B10800  16.041  11.080   7.413 -0.0112  0.1242 -0.1421
  701POPI   C3B10801  16.034  11.333   7.725 -0.0016 -0.1140 -0.3398
  701POPI   C4B10802  15.729  11.568   7.973 -0.0286 -0.0785 -0.1165
  702POPI    C110803   9.792  15.625   5.864 -0.1062 -0.1189 -0.2264
  702POPI    C210804  10.086  15.810   5.667 -0.0817 -0.0098 -0.0896
  702POPI    C310805   9.742  16.001   5.736 -0.1726 -0.1252 -0.2194
  702POPI   PO410806   9.798  15.569   6.118  0.0515 -0.2075  0.0645
  702POPI   GL110807   9.713  15.691   6.586 -0.3448 -0.2558 -0.2273
  702POPI   GL210808   9.410  15.963   6.709 -0.0854 -0.1392  0.1357
  702POPI   C1A10809   9.585  15.631   6.973  0.1152  0.1929 -0.2886
  702POPI   D2A10810   9.607  15.499   7.402  0.2074  0.0675 -0.1152
  702POPI   C3A10811   9.849  15.156   7.621  0.1088 -0.4320  0.2458
  702POPI   C4A10812   9.992  14.774   7.698 -0.2000  0.1057  0.3024
  702POPI   C1B10813   9.155  15.945   7.076 -0.2858 -0.0374 -0.1580
  702POPI   C2B10814   8.947  16.222   7.446  0.3235  0.1774  0.0118
  702POPI   C3B10815   9.153  16.476   7.823 -0.4038 -0.6861  0.1028
  702POPI   C4B10816   9.486  16.816   7.700  0.0001 -0.0123 -0.1316
  703POPI    C110817  15.883   5.645   6.008 -0.2417  0.1027  0.3551
  703POPI    C210818  15.623   5.713   5.713 -0.0172  0.1249  0.1591
  703POPI    C310819  16.013   5.777   5.654  0.0581 -0.1129  0.3806
  703POPI   PO410820  15.807   5.440   6.092 -0.2234 -0.0182  0.2343
  703POPI   GL110821  15.814   5.300   6.506  0.0466  0.2189 -0.5967
  703POPI   GL210822  15.505   5.306   6.442  0.1125 -0.0254  0.2776
  703POPI   C1A10823  16.209   5.281   6.623 -0.4875 -0.3287 -0.1737
  703POPI   D2A10824  16.431   5.305   7.089 -0.0701 -0.0053 -0.1265
  703POPI   C3A10825  16.374   4.927   7.272  0.0903 -0.1770 -0.1381
  703POPI   C4A10826  16.288   4.663   7.660 -0.1571  0.1927  0.2629
  703POPI   C1B10827  15.495   5.713   6.665  0.0229 -0.2534  0.1522
  703POPI   C2B10828  15.693   6.034   6.907  0.0405  0.0941  0.0958
  703POPI   C3B10829  15.751   6.188   7.283  0.3250  0.2118  0.1737
  703POPI   C4B10830  16.000   6.444   7.665 -0.1937  0.1730  0.0931
  704POPI    C110831   1.309  14.506   5.711 -0.0614  0.0445 -0.0664
  704POPI    C210832   1.146  14.369   6.050  0.0971  0.0576  0.0159
  704POPI    C310833   0.943  14.343   5.707 -0.0400 -0.0106  0.1011
  704POPI   PO410834   1.549  14.370   5.695  0.0576 -0.0749  0.0560
  704POPI   GL110835   1.669  14.239   6.082 -0.0937  0.0410  0.2724
  704POPI   GL210836   1.859  14.306   6.326  0.0007  0.0638  0.0125
  704POPI   C1A10837   1.711  13.781   6.279  0.1753 -0.0231 -0.0004
  704POPI   D2A10838   1.619  13.647   6.586 -0.0732  0.3005  0.1236
  704POPI   C3A10839   1.425  13.902   6.812  0.1766 -0.1207 -0.2511
  704POPI   C4A10840   1.433  13.995   7.355  0.1868  0.0514 -0.0533
  704POPI   C1B10841   1.953  14.423   6.787  0.0568 -0.2557 -0.0663
  704POPI   C2B10842   1.903  14.202   7.151  0.0295 -0.2434  0.1463
  704POPI   C3B10843   1.835  14.095   7.655 -0.4157  0.2803  0.2250
  704POPI   C4B10844   1.524  14.043   7.884  0.0143  0.1683 -0.2095
  705POPI    C110845  10.883  15.430   5.576 -0.1191 -0.1266  0.1274
  705POPI    C210846  10.553  15.649   5.515 -0.1422 -0.1420  0.1962
  705POPI    C310847  10.741  15.478   5.205 -0.0037  0.1483  0.1168
  705POPI   PO410848  10.821  15.479   5.918 -0.2336 -0.1555 -0.1263
  705POPI   GL110849  10.697  15.470   6.375  0.2555 -0.1876  0.0704
  705POPI   GL210850  10.906  15.479   6.513  0.0693  0.3526 -0.0863
  705POPI   C1A10851  10.562  15.688   6.791  0.2426 -0.1157 -0.0324
  705POPI   D2A10852  10.594  16.050   7.044  0.2726  0.1320  0.0636
  705POPI   C3A10853  10.600  16.036   7.539 -0.0112 -0.0491 -0.0287
  705POPI   C4A10854  10.673  16.204   7.891 -0.0528 -0.2354 -0.0448
  705POPI   C1B10855  11.066  15.590   6.943 -0.1438 -0.0986 -0.2045
  705POPI   C2B10856  11.041  15.857   7.312  0.0606  0.0975  0.2667
  705POPI   C3B10857  11.189  15.972   7.771 -0.1815  0.1060  0.0495
  705POPI   C4B10858  11.280  16.074   8.164  0.3762 -0.0520  0.2646
  706POPI    C110859   1.790   5.827   5.972  0.0838  0.2253  0.0829
  706POPI    C210860   1.904   6.211   5.983  0.1414  0.2193 -0.2120
  706POPI    C310861   1.522   6.117   5.911  0.0948  0.2234  0.0233
  706POPI   PO410862   1.977   5.760   6.225  0.1975 -0.1722 -0.0396
  706POPI   GL110863   2.003   5.857   6.662 -0.3969 -0.0202 -0.0216
  706POPI   GL210864   2.295   5.734   6.667  0.2327  0.1037 -0.0736
  706POPI   C1A10865   1.585   5.982   6.940  0.0148 -0.0970 -0.1381
  706POPI   D2A10866   1.365   5.929   7.311  0.1356 -0.1899 -0.1592
  706POPI   C3A10867   0.911   5.927   7.398  0.0683 -0.1727 -0.2562
  706POPI   C4A10868   0.481   5.828   7.196  0.2972 -0.2840 -0.2418
  706POPI   C1B10869   2.269   5.936   7.150 -0.1337  0.0128 -0.1518
  706POPI   C2B10870   2.331   5.997   7.545  0.1841 -0.2892 -0.1101
  706POPI   C3B10871   2.415   5.916   8.009  0.1229 -0.1688  0.1010
  706POPI   C4B10872   2.504   5.977   8.475 -0.5196  0.0109 -0.3845
  707POPI    C110873  12.782  13.586   5.842  0.0330 -0.1490  0.0721
  707POPI    C210874  12.688  13.248   5.650 -0.0160 -0.1498  0.0971
  707POPI    C310875  13.063  13.386   5.640 -0.0661 -0.0276 -0.1901
  707POPI   PO410876  12.744  13.575   6.135  0.0823  0.3090  0.0732
  707POPI   GL110877  12.605  13.441   6.574  0.0051  0.0386  0.1071
  707POPI   GL210878  12.431  13.746   6.501 -0.0186  0.1034 -0.2866
  707POPI   C1A10879  12.841  13.036   6.785 -0.0535  0.0691 -0.0277
  707POPI   D2A10880  13.027  12.993   7.270 -0.2873  0.2936 -0.0685
  707POPI   C3A10881  12.967  13.247   7.589  0.0160  0.3806  0.1404
  707POPI   C4A10882  12.864  13.421   7.976 -0.0359  0.0002 -0.0535
  707POPI   C1B10883  12.294  13.709   6.888 -0.1365  0.1353  0.2417
  707POPI   C2B10884  12.378  13.805   7.319  0.0721  0.0416 -0.1688
  707POPI   C3B10885  12.286  13.835   7.767  0.0439 -0.1730  0.2931
  707POPI   C4B10886  12.314  13.629   8.037  0.1510  0.0297 -0.0016
  708POPI    C110887   7.726  13.676   5.767 -0.1032  0.1181 -0.0420
  708POPI    C210888   7.371  13.750   5.598 -0.2201 -0.3881 -0.0345
  708POPI    C310889   7.676  13.621   5.374  0.0433  0.2845 -0.0849
  708POPI   PO410890   7.668  13.675   6.006 -0.1031 -0.1489 -0.1572
  708POPI   GL110891   7.624  13.725   6.378  0.2183 -0.0273 -0.3623
  708POPI   GL210892   7.337  13.482   6.502 -0.3940  0.1183 -0.1074
  708POPI   C1A10893   7.575  13.902   6.752 -0.1121  0.0772 -0.3278
  708POPI   D2A10894   7.487  13.577   7.040 -0.1713 -0.1617  0.4140
  708POPI   C3A10895   7.514  13.383   7.409  0.0112  0.2836  0.0725
  708POPI   C4A10896   7.749  13.581   7.660 -0.2732  0.3527 -0.2811
  708POPI   C1B10897   7.080  13.262   6.823  0.3060 -0.0641 -0.0934
  708POPI   C2B10898   6.971  12.836   6.999 -0.0427 -0.0360 -0.2871
  708POPI   C3B10899   6.950  12.416   7.125  0.2196 -0.1581 -0.1128
  708POPI   C4B10900   6.918  12.118   7.516  0.0508  0.1970  0.1246
  709POPI    C110901   5.938  10.600   5.713  0.0258  0.0449 -0.1712
  709POPI    C210902   6.246  10.411   5.543 -0.0654  0.0328 -0.3249
  709POPI    C310903   6.212  10.808   5.510  0.1652  0.0886  0.0590
  709POPI   PO410904   5.922  10.547   6.024 -0.2843 -0.0778 -0.0999
  709POPI   GL110905   6.215  10.478   6.393 -0.1123  0.3651  0.0328
  709POPI   GL210906   6.093  10.792   6.415  0.4418  0.1254  0.0250
  709POPI   C1A10907   6.500  10.316   6.762  0.2022 -0.0210 -0.2763
  709POPI   D2A10908   6.600  10.475   7.185  0.0002  0.2490 -0.3526
  709POPI   C3A10909   6.827  10.153   7.485  0.1082 -0.0365 -0.0481
  709POPI   C4A10910   6.878  10.113   7.933 -0.3259  0.0805 -0.2358
  709POPI   C1B10911   6.125  10.640   6.820 -0.2896  0.3436 -0.1575
  709POPI   C2B10912   6.097  10.668   7.226 -0.0673 -0.1548 -0.0051
  709POPI   C3B10913   5.913  10.610   7.618 -0.0797  0.1732 -0.0507
  709POPI   C4B10914   5.554  10.676   7.896  0.1827  0.1643  0.0432
  710POPI    C110915  16.515   6.212   6.006 -0.2184 -0.0304  0.0334
  710POPI    C210916  16.366   5.841   6.025 -0.2038 -0.0498 -0.2049
  710POPI    C310917  16.625   5.938   5.736  0.2093 -0.0017  0.1707
  710POPI   PO410918  16.686   6.279   6.268  0.2232 -0.1944 -0.0366
  710POPI   GL110919  16.741   6.479   6.603 -0.0283 -0.0032 -0.4792
  710POPI   GL210920  17.002   6.727   6.730 -0.0946  0.1420 -0.1417
  710POPI   C1A10921  16.573   6.688   7.015 -0.1959  0.0655  0.0056
  710POPI   D2A10922  16.503   6.856   7.531  0.2971 -0.2079  0.2508
  710POPI   C3A10923  16.544   6.441   7.790  0.1186  0.0974 -0.1784
  710POPI   C4A10924  16.776   6.505   8.225  0.3634 -0.0569  0.4729
  710POPI   C1B10925  17.271   6.756   7.111 -0.1679 -0.2225 -0.1426
  710POPI   C2B10926  17.722   6.758   7.162  0.2565  0.0255  0.1432
  710POPI   C3B10927  18.014   6.671   7.463  0.0909  0.2347 -0.2772
  710POPI   C4B10928  18.115   6.852   7.975  0.2606  0.1010  0.0137
  711POPI    C110929   7.789   8.849   5.823 -0.1276 -0.0494  0.0402
  711POPI    C210930   7.434   8.992   5.938 -0.1514 -0.1384  0.0779
  711POPI    C310931   7.610   9.135   5.608 -0.1671 -0.0111  0.1240
  711POPI   PO410932   7.891   8.776   6.042  0.1356  0.0851  0.2059
  711POPI   GL110933   7.851   8.889   6.429  0.0328  0.1155 -0.2983
  711POPI   GL210934   7.865   8.588   6.565 -0.0074 -0.0031  0.2967
  711POPI   C1A10935   7.856   8.950   6.925  0.1452 -0.0598 -0.0315
  711POPI   D2A10936   7.898   8.932   7.372 -0.0933 -0.0263  0.0900
  711POPI   C3A10937   7.908   9.157   7.681  0.0142  0.1426  0.0212
  711POPI   C4A10938   7.876   9.521   7.627  0.0042  0.0266 -0.0049
  711POPI   C1B10939   8.087   8.443   6.936 -0.0268 -0.2591 -0.0957
  711POPI   C2B10940   8.159   8.525   7.370 -0.0843 -0.1288  0.0527
  711POPI   C3B10941   8.006   8.544   7.786 -0.1370 -0.3762 -0.0508
  711POPI   C4B10942   8.279   8.812   8.041 -0.0323  0.0247 -0.0638
  712POPI    C110943   6.835   2.484   5.948 -0.1829 -0.1020  0.2004
  712POPI    C210944   6.786   2.728   6.261  0.0937 -0.1695  0.2990
  712POPI    C310945   6.984   2.855   5.938 -0.4648  0.0094  0.0147
  712POPI   PO410946   6.576   2.358   6.030 -0.1476  0.0170  0.0207
  712POPI   GL110947   6.304   2.403   6.379 -0.0303 -0.0290 -0.1074
  712POPI   GL210948   6.178   2.641   6.481 -0.0351 -0.0845 -0.0780
  712POPI   C1A10949   6.575   2.767   6.726  0.0414 -0.0700 -0.1550
  712POPI   D2A10950   6.790   2.905   7.091  0.1773  0.1417 -0.2065
  712POPI   C3A10951   6.616   3.125   7.491 -0.0522  0.0158 -0.0448
  712POPI   C4A10952   6.364   3.223   7.800  0.1888  0.0496  0.0502
  712POPI   C1B10953   6.143   2.674   6.895 -0.0229 -0.1964  0.4108
  712POPI   C2B10954   6.072   2.894   7.299  0.2447 -0.0922 -0.1935
  712POPI   C3B10955   5.931   3.170   7.603  0.4336  0.0072  0.1276
  712POPI   C4B10956   5.692   3.156   7.976  0.1078 -0.1146  0.1347
  713POPI    C110957   7.509   4.281   5.698  0.1876  0.0677  0.2994
  713POPI    C210958   7.613   4.642   5.560  0.1798  0.0186  0.1634
  713POPI    C310959   7.426   4.383   5.320  0.0320 -0.0131  0.3113
  713POPI   PO410960   7.367   4.207   5.984  0.0013 -0.1597  0.0279
  713POPI   GL110961   7.296   4.337   6.432  0.2806  0.1024  0.0089
  713POPI   GL210962   7.119   4.243   6.628  0.0429  0.0005  0.3166
  713POPI   C1A10963   7.621   4.257   6.770  0.1312  0.1211  0.5683
  713POPI   D2A10964   7.884   4.182   7.113  0.2678 -0.1340  0.0636
  713POPI   C3A10965   7.823   4.180   7.673 -0.1263 -0.0288  0.0366
  713POPI   C4A10966   7.927   3.928   8.030 -0.3267 -0.0874  0.2468
  713POPI   C1B10967   7.206   4.170   7.028  0.1343  0.1273 -0.5380
  713POPI   C2B10968   7.385   4.211   7.315 -0.3314 -0.0296 -0.1689
  713POPI   C3B10969   7.274   4.297   7.766 -0.1416 -0.0562 -0.0340
  713POPI   C4B10970   7.039   4.005   8.005  0.2849 -0.2772 -0.0869
  714POPI    C110971  15.949   3.736   6.147 -0.0517 -0.0264  0.0974
  714POPI    C210972  15.970   3.396   6.357  0.0568  0.0414  0.1978
  714POPI    C310973  16.043   3.394   5.963 -0.1483 -0.0865  0.1589
  714POPI   PO410974  15.980   3.897   6.353 -0.0241 -0.0335  0.0246
  714POPI   GL110975  16.042   3.805   6.723  0.1243 -0.0413  0.1605
  714POPI   GL210976  16.082   4.171   6.818 -0.3103 -0.0577  0.1191
  714POPI   C1A10977  15.771   3.848   7.075  0.0911 -0.1088  0.0458
  714POPI   D2A10978  15.725   4.038   7.428 -0.0492  0.0407 -0.0200
  714POPI   C3A10979  16.000   4.184   7.783  0.0771 -0.0248 -0.3281
  714POPI   C4A10980  15.949   4.571   8.133  0.0792  0.1584 -0.0942
  714POPI   C1B10981  16.102   4.336   7.154  0.0919 -0.0432  0.1978
  714POPI   C2B10982  15.800   4.583   7.543 -0.0640  0.1706 -0.1441
  714POPI   C3B10983  15.466   4.735   7.833  0.3159  0.2853  0.1046
  714POPI   C4B10984  15.334   4.938   8.287 -0.0548 -0.3732  0.0312
  715POPI    C110985   5.773  11.677   5.700 -0.0590 -0.0203 -0.0938
  715POPI    C210986   5.826  11.295   5.594 -0.0093 -0.0419  0.0072
  715POPI    C310987   5.902  11.588   5.332 -0.1390 -0.1045 -0.1016
  715POPI   PO410988   5.766  11.589   5.992 -0.0006  0.1465  0.0200
  715POPI   GL110989   5.704  11.401   6.468 -0.0137  0.0863  0.4640
  715POPI   GL210990   5.939  11.253   6.397  0.1517  0.1480  0.0185
  715POPI   C1A10991   5.776  11.517   6.821 -0.2284  0.0850  0.1919
  715POPI   D2A10992   5.562  11.469   7.145 -0.0996  0.1775  0.2093
  715POPI   C3A10993   5.830  11.497   7.510 -0.3587 -0.0691 -0.0720
  715POPI   C4A10994   5.924  11.873   7.787 -0.0627  0.0008  0.2113
  715POPI   C1B10995   6.079  11.142   6.722  0.3628 -0.1793  0.0090
  715POPI   C2B10996   6.142  11.217   7.187  0.2622  0.1027  0.0155
  715POPI   C3B10997   6.192  11.122   7.560  0.2975  0.2653  0.0005
  715POPI   C4B10998   5.883  11.182   7.885 -0.0698  0.0299  0.1139
  716POPI    C110999   8.435   0.587   5.849 -0.0789  0.0342 -0.1587
  716POPI    C211000   8.572   0.820   5.554  0.0504  0.1628  0.0009
  716POPI    C311001   8.179   0.799   5.626  0.0223  0.1693 -0.1481
  716POPI   PO411002   8.578   0.609   6.078 -0.2745 -0.4417 -0.0236
  716POPI   GL111003   8.788   0.462   6.475 -0.2099 -0.0279 -0.3224
  716POPI   GL211004   8.752   0.779   6.599  0.0225 -0.4330  0.0169
  716POPI   C1A11005   9.163   0.547   6.833  0.0539  0.0153  0.0255
  716POPI   D2A11006   9.011   0.881   7.063  0.5376 -0.0327 -0.0618
  716POPI   C3A11007   9.093   1.008   7.366  0.3950 -0.0344 -0.0239
  716POPI   C4A11008   9.004   1.249   7.764 -0.0170  0.0075  0.0713
  716POPI   C1B11009   8.545   1.109   6.971  0.0529  0.0724  0.1947
  716POPI   C2B11010   8.578   1.301   7.392  0.0531 -0.2305 -0.0796
  716POPI   C3B11011   8.529   1.466   7.782 -0.0334 -0.0765 -0.0547
  716POPI   C4B11012   8.643   1.317   8.168 -0.1898 -0.2340  0.0957
  717POPI    C111013   8.326   1.578   5.929 -0.1642 -0.1377  0.0974
  717POPI    C211014   8.266   1.240   5.723  0.0924 -0.1379  0.0187
  717POPI    C311015   8.230   1.594   5.541  0.0157 -0.1280  0.0525
  717POPI   PO411016   8.196   1.510   6.134  0.1376 -0.2162  0.0091
  717POPI   GL111017   8.291   1.314   6.528  0.0456  0.1133 -0.3308
  717POPI   GL211018   8.015   1.482   6.674 -0.2050  0.3071 -0.0830
  717POPI   C1A11019   8.588   1.566   6.849  0.2331 -0.0043  0.1271
  717POPI   D2A11020   8.525   1.856   7.196 -0.4028  0.0656  0.1536
  717POPI   C3A11021   8.301   1.911   7.567 -0.2121  0.0703 -0.1384
  717POPI   C4A11022   7.943   2.112   7.748  0.1801  0.0776  0.2170
  717POPI   C1B11023   8.031   1.132   6.969 -0.0706  0.0843  0.0662
  717POPI   C2B11024   8.237   0.861   7.284  0.1729  0.0015  0.3225
  717POPI   C3B11025   8.357   0.968   7.678  0.0738 -0.1881 -0.2050
  717POPI   C4B11026   8.467   0.849   8.158 -0.1010 -0.1770  0.1222
  718POPI    C111027  13.878  15.978   5.839  0.1940  0.0238 -0.1293
  718POPI    C211028  14.050  15.675   6.036 -0.0300 -0.0647 -0.0676
  718POPI    C311029  13.925  15.624   5.659 -0.0984 -0.0595 -0.0457
  718POPI   PO411030  13.592  16.128   5.949 -0.0517  0.1071  0.0226
  718POPI   GL111031  13.337  16.220   6.375  0.0401  0.3350 -0.1314
  718POPI   GL211032  13.582  16.432   6.375 -0.0057  0.0715  0.1103
  718POPI   C1A11033  13.522  15.926   6.653  0.0056  0.2625 -0.2520
  718POPI   D2A11034  13.674  15.751   6.962  0.1306  0.4151 -0.2747
  718POPI   C3A11035  13.416  15.552   7.320  0.0590  0.0970 -0.0744
  718POPI   C4A11036  13.371  15.293   7.573  0.1825  0.1560  0.0977
  718POPI   C1B11037  13.677  16.351   6.875 -0.3311  0.0406 -0.1188
  718POPI   C2B11038  13.900  16.545   7.232 -0.0183  0.0163 -0.1115
  718POPI   C3B11039  13.786  16.800   7.561  0.0202  0.0273  0.1262
  718POPI   C4B11040  13.883  17.178   7.733 -0.3463 -0.1191 -0.1187
  719POPI    C111041   6.823   4.736   6.446 -0.2335  0.0122  0.0416
  719POPI    C211042   6.767   4.416   6.213 -0.0712 -0.1304  0.1952
  719POPI    C311043   7.063   4.672   6.132 -0.1972 -0.0209  0.0760
  719POPI   PO411044   6.550   4.902   6.452 -0.0212  0.2138 -0.4926
  719POPI   GL111045   6.406   5.126   6.817  0.3067 -0.0932 -0.0766
  719POPI   GL211046   6.707   4.916   6.912  0.1175  0.0734 -0.2021
  719POPI   C1A11047   6.158   5.027   7.161 -0.2682  0.2835 -0.0436
  719POPI   D2A11048   6.122   5.085   7.700 -0.4960 -0.1526 -0.6002
  719POPI   C3A11049   6.021   4.923   8.052  0.2286  0.2382 -0.1325
  719POPI   C4A11050   5.767   4.862   8.448 -0.0175 -0.0266 -0.3665
  719POPI   C1B11051   6.654   5.000   7.317  0.2504  0.0862 -0.1122
  719POPI   C2B11052   6.667   5.048   7.733 -0.1426 -0.0348  0.0970
  719POPI   C3B11053   6.696   4.609   7.886 -0.0515  0.1288 -0.1295
  719POPI   C4B11054   6.567   4.213   7.979 -0.1518  0.1731 -0.1607
  720POPI    C111055  13.986  14.466   5.965  0.0704 -0.0712 -0.1132
  720POPI    C211056  13.694  14.635   5.749 -0.2357 -0.3732  0.0532
  720POPI    C311057  13.947  14.377   5.577 -0.0464 -0.0931 -0.0970
  720POPI   PO411058  13.903  14.417   6.186  0.0155 -0.1956  0.1391
  720POPI   GL111059  13.975  14.375   6.501 -0.0811 -0.1457  0.0915
  720POPI   GL211060  14.113  14.458   6.780  0.2324  0.2276 -0.0866
  720POPI   C1A11061  13.712  14.150   6.842 -0.1125  0.1558 -0.2203
  720POPI   D2A11062  13.683  13.972   7.275 -0.1814 -0.0558 -0.0069
  720POPI   C3A11063  13.707  13.972   7.729 -0.2000  0.0894 -0.1099
  720POPI   C4A11064  13.681  13.808   8.130 -0.1249 -0.1127  0.0571
  720POPI   C1B11065  13.969  14.420   7.218  0.0170  0.1269 -0.1277
  720POPI   C2B11066  13.673  14.458   7.561  0.1492  0.0498  0.1549
  720POPI   C3B11067  13.377  14.419   7.848 -0.0629 -0.0011 -0.2860
  720POPI   C4B11068  13.079  14.543   8.165  0.0312 -0.0551 -0.1245
  721POPS   CNO11069   0.857   2.253   5.691  0.3362  0.2281  0.0412
  721POPS   PO411070   0.984   1.936   6.014 -0.1785 -0.0204 -0.0224
  721POPS   GL111071   1.114   2.006   6.427 -0.0541  0.0713  0.1469
  721POPS   GL211072   0.867   1.938   6.567 -0.0836  0.0638  0.2009
  721POPS   C1A11073   1.300   1.702   6.691  0.0635 -0.3333 -0.3034
  721POPS   D2A11074   1.458   1.478   6.880 -0.2485 -0.1037 -0.0941
  721POPS   C3A11075   1.451   1.304   7.341 -0.2798 -0.0360 -0.2157
  721POPS   C4A11076   1.303   1.044   7.760  0.0603  0.0083 -0.0955
  721POPS   C1B11077   0.843   1.625   6.913 -0.0431  0.0870  0.1810
  721POPS   C2B11078   0.821   1.495   7.279 -0.1102 -0.0352  0.4971
  721POPS   C3B11079   1.043   1.449   7.647  0.1395  0.1596 -0.0461
  721POPS   C4B11080   1.406   1.558   7.774  0.0685 -0.1076 -0.0135
  722POPS   CNO11081  12.675   7.803   6.069 -0.0993 -0.1862 -0.0292
  722POPS   PO411082  12.921   8.095   6.205  0.1458 -0.3109 -0.0765
  722POPS   GL111083  12.642   7.985   6.609 -0.1860 -0.4725 -0.1769
  722POPS   GL211084  12.897   7.729   6.649  0.1367  0.1906 -0.3577
  722POPS   C1A11085  12.365   7.872   7.003 -0.2887 -0.1412  0.1635
  722POPS   D2A11086  12.241   7.774   7.439  0.2120 -0.1729  0.2222
  722POPS   C3A11087  12.303   7.918   7.782  0.0289  0.0572 -0.2084
  722POPS   C4A11088  12.237   7.985   8.219 -0.0431  0.1090  0.1273
  722POPS   C1B11089  12.706   7.514   6.923  0.1728  0.0779  0.0791
  722POPS   C2B11090  12.310   7.210   6.962  0.1255 -0.1429  0.0352
  722POPS   C3B11091  11.961   7.117   6.892  0.1124  0.0510  0.0822
  722POPS   C4B11092  11.699   6.832   6.704  0.3351 -0.0549  0.0771
  723POPS   CNO11093   2.488   8.818   6.266 -0.0510 -0.0201 -0.0006
  723POPS   PO411094   2.705   9.183   6.230 -0.0986  0.0768  0.0363
  723POPS   GL111095   2.643   9.117   6.639 -0.0630 -0.0710 -0.1143
  723POPS   GL211096   2.689   8.684   6.727  0.2475 -0.0083  0.0346
  723POPS   C1A11097   2.652   9.175   7.049 -0.1494 -0.0413  0.0954
  723POPS   D2A11098   2.544   9.232   7.429 -0.0119  0.0296  0.0013
  723POPS   C3A11099   2.611   9.539   7.839 -0.2446 -0.1169  0.0069
  723POPS   C4A11100   2.919   9.602   8.090  0.2675 -0.1197 -0.1094
  723POPS   C1B11101   2.562   8.729   7.167  0.0334 -0.1841 -0.1758
  723POPS   C2B11102   2.699   8.767   7.564 -0.1931  0.0601  0.0818
  723POPS   C3B11103   2.537   8.926   7.873 -0.0893 -0.0074 -0.4101
  723POPS   C4B11104   2.626   8.727   8.198 -0.1064  0.1947  0.0865
  724POPS   CNO11105   0.417  14.533   5.635 -0.1556 -0.2222  0.1610
  724POPS   PO411106   0.545  14.371   6.055  0.0212 -0.2592  0.1866
  724POPS   GL111107   0.762  14.150   6.358  0.2174 -0.0620  0.1541
  724POPS   GL211108   0.455  14.022   6.546  0.0502  0.1169  0.1565
  724POPS   C1A11109   0.878  14.005   6.776 -0.1328  0.1775  0.2422
  724POPS   D2A11110   0.972  14.095   7.158 -0.2194  0.2367  0.2545
  724POPS   C3A11111   0.999  14.095   7.582 -0.0020 -0.1223 -0.0141
  724POPS   C4A11112   0.807  13.863   7.927  0.0559 -0.0553  0.0145
  724POPS   C1B11113   0.273  13.943   6.956  0.0873 -0.2690  0.0662
  724POPS   C2B11114   0.047  14.116   7.221  0.0811  0.2990  0.3169
  724POPS   C3B11115  -0.099  14.265   7.713 -0.0207 -0.0819  0.0909
  724POPS   C4B11116  -0.323  14.275   8.060 -0.1086  0.0329 -0.0317
  725POPS   CNO11117   3.983  10.588   6.078  0.0250  0.0927 -0.0928
  725POPS   PO411118   3.613  10.522   5.843 -0.2579  0.0043 -0.1723
  725POPS   GL111119   3.566  10.438   6.401 -0.1933  0.0912 -0.1036
  725POPS   GL211120   3.742  10.642   6.502  0.0895 -0.2203 -0.1414
  725POPS   C1A11121   3.500  10.409   6.792  0.0246  0.2303 -0.1768
  725POPS   D2A11122   3.199  10.343   7.044  0.1121  0.2304  0.3089
  725POPS   C3A11123   3.142  10.160   7.464  0.1208 -0.1089 -0.3365
  725POPS   C4A11124   3.226  10.020   7.818  0.2053 -0.3018 -0.2213
  725POPS   C1B11125   3.889  10.752   6.860  0.0360  0.1690  0.0909
  725POPS   C2B11126   4.027  10.636   7.260 -0.0170 -0.0181  0.1110
  725POPS   C3B11127   4.132  10.795   7.751  0.0187  0.0488 -0.0447
  725POPS   C4B11128   4.306  10.956   8.096  0.0676 -0.0473 -0.0947
  726POPS   CNO11129   4.815   7.850   6.562  0.1183 -0.1048  0.0726
  726POPS   PO411130   4.486   7.504   6.599 -0.0466  0.0307  0.0285
  726POPS   GL111131   4.603   7.131   6.946  0.1685 -0.0879 -0.0392
  726POPS   GL211132   4.774   6.887   6.813 -0.0391 -0.0946 -0.1308
  726POPS   C1A11133   4.615   6.993   7.332  0.0899  0.1593 -0.0303
  726POPS   D2A11134   4.480   7.009   7.660  0.0438  0.3521 -0.1819
  726POPS   C3A11135   4.342   6.832   7.991 -0.1269  0.2272  0.0499
  726POPS   C4A11136   4.228   6.573   8.342 -0.0381  0.2467  0.0941
  726POPS   C1B11137   5.211   6.630   6.968  0.1735 -0.2683 -0.2680
  726POPS   C2B11138   5.278   6.518   7.329 -0.1042  0.0002 -0.1773
  726POPS   C3B11139   5.329   6.586   7.726 -0.0242 -0.1079 -0.0212
  726POPS   C4B11140   5.050   6.334   7.925 -0.0737 -0.4080  0.0722
  727POPS   CNO11141   4.562   3.011   5.997 -0.1379  0.1431 -0.1126
  727POPS   PO411142   4.639   3.477   6.018  0.1255 -0.0377 -0.2555
  727POPS   GL111143   4.861   3.301   6.417 -0.0809  0.3349  0.1112
  727POPS   GL211144   4.718   3.434   6.610 -0.1548  0.2091 -0.0400
  727POPS   C1A11145   5.153   3.241   6.872 -0.0112  0.0764 -0.2494
  727POPS   D2A11146   5.145   3.024   7.133 -0.1112  0.0529 -0.1262
  727POPS   C3A11147   4.935   3.220   7.536  0.0327 -0.1025 -0.2104
  727POPS   C4A11148   4.839   3.286   7.956  0.0356  0.2395  0.0752
  727POPS   C1B11149   4.626   3.241   7.060  0.2504 -0.2276  0.0142
  727POPS   C2B11150   4.716   2.798   7.268  0.2240 -0.2850  0.1016
  727POPS   C3B11151   4.689   2.835   7.796  0.3446  0.1522  0.2422
  727POPS   C4B11152   4.434   2.784   8.267  0.1690  0.0578  0.1866
  728POPS   CNO11153   9.190   1.329   6.152  0.0643  0.1192  0.0492
  728POPS   PO411154   9.235   1.705   6.037 -0.1210  0.2504 -0.2805
  728POPS   GL111155   9.066   1.791   6.455 -0.1768 -0.1830  0.1848
  728POPS   GL211156   9.360   1.945   6.646  0.0251  0.1247  0.0213
  728POPS   C1A11157   8.814   2.009   6.784 -0.2383 -0.2200  0.0856
  728POPS   D2A11158   8.534   2.295   6.871 -0.2142 -0.3181  0.0617
  728POPS   C3A11159   8.249   2.319   7.169  0.1406  0.1674 -0.1112
  728POPS   C4A11160   7.798   2.172   7.290 -0.0013  0.1731  0.0634
  728POPS   C1B11161   9.483   1.875   6.998  0.3179 -0.0236 -0.3082
  728POPS   C2B11162   9.462   1.889   7.505 -0.2525  0.2479  0.2253
  728POPS   C3B11163   9.261   1.916   7.954  0.0084 -0.1584 -0.3717
  728POPS   C4B11164   9.045   1.627   8.219 -0.2647  0.3818  0.1547
  729POPS   CNO11165   9.385   6.686   6.799 -0.2810 -0.0942  0.0475
  729POPS   PO411166   9.469   6.650   6.406 -0.1334  0.1305 -0.2065
  729POPS   GL111167   9.731   7.064   6.697  0.1652  0.0364  0.0724
  729POPS   GL211168   9.824   7.299   6.516  0.1426  0.0371  0.0799
  729POPS   C1A11169   9.962   6.778   7.100  0.0765  0.0615  0.1696
  729POPS   D2A11170  10.208   6.867   7.438  0.2535 -0.0186 -0.0601
  729POPS   C3A11171  10.258   6.673   7.896  0.4245 -0.1503  0.0458
  729POPS   C4A11172  10.125   6.962   8.166 -0.0999  0.2276 -0.0551
  729POPS   C1B11173   9.871   7.444   6.954 -0.2527  0.0754 -0.1576
  729POPS   C2B11174   9.760   7.225   7.353  0.1098 -0.0743  0.0533
  729POPS   C3B11175   9.960   7.257   7.748 -0.0899  0.1589  0.0616
  729POPS   C4B11176  10.320   7.365   7.872  0.0145 -0.0009  0.1401
  730POPS   CNO11177  15.566   1.914   5.711  0.1519  0.2443 -0.2255
  730POPS   PO411178  15.318   1.496   5.886 -0.3355  0.0948  0.1352
  730POPS   GL111179  15.360   1.566   6.329 -0.1597  0.1785  0.1486
  730POPS   GL211180  15.605   1.699   6.359 -0.4305  0.1204 -0.0037
  730POPS   C1A11181  15.422   1.669   6.805 -0.0914 -0.2336  0.1275
  730POPS   D2A11182  15.151   1.755   7.179 -0.0778 -0.1236  0.0691
  730POPS   C3A11183  14.801   1.987   7.451 -0.1209 -0.0191 -0.0700
  730POPS   C4A11184  14.550   2.101   7.697  0.0523 -0.0055  0.0389
  730POPS   C1B11185  15.786   1.292   6.597 -0.0340 -0.0239 -0.0609
  730POPS   C2B11186  15.534   1.224   6.976  0.0450 -0.1795 -0.0398
  730POPS   C3B11187  15.293   1.139   7.422 -0.0078  0.2217  0.0948
  730POPS   C4B11188  15.032   0.965   7.811  0.0670  0.0186  0.1280
  731POPS   CNO11189  14.947  11.916   6.263  0.0690  0.2229 -0.2447
  731POPS   PO411190  14.969  11.512   6.072 -0.2277 -0.0653 -0.1952
  731POPS   GL111191  14.833  11.486   6.599 -0.0640  0.0957 -0.1063
  731POPS   GL211192  14.550  11.622   6.656 -0.0016 -0.0299  0.0898
  731POPS   C1A11193  15.016  11.702   6.929 -0.1604 -0.0076  0.0761
  731POPS   D2A11194  14.890  11.783   7.284 -0.2270  0.1206 -0.0634
  731POPS   C3A11195  15.034  11.671   7.640  0.0767 -0.2241 -0.1305
  731POPS   C4A11196  15.243  11.654   8.125  0.1621  0.0154 -0.0500
  731POPS   C1B11197  14.491  11.604   7.044 -0.2152 -0.0219  0.1213
  731POPS   C2B11198  14.380  11.735   7.419 -0.2092 -0.0618 -0.1916
  731POPS   C3B11199  14.456  11.666   7.765  0.0618  0.1476 -0.2019
  731POPS   C4B11200  14.718  11.504   8.027  0.2417  0.2735  0.2145
  732POPS   CNO11201   1.203   6.720   6.486  0.0082 -0.1384  0.0687
  732POPS   PO411202   0.933   6.989   6.277 -0.2009  0.0457  0.0095
  732POPS   GL111203   0.991   7.149   6.669 -0.0277  0.0244 -0.0635
  732POPS   GL211204   1.397   7.147   6.756  0.2206 -0.3577 -0.0053
  732POPS   C1A11205   0.954   7.333   7.005 -0.0102 -0.1093 -0.5134
  732POPS   D2A11206   0.665   7.383   7.353  0.1254 -0.1009 -0.0302
  732POPS   C3A11207   0.628   7.619   7.709 -0.0972 -0.1142 -0.0908
  732POPS   C4A11208   0.668   7.808   8.170  0.1812 -0.0652 -0.3967
  732POPS   C1B11209   1.335   6.900   7.094 -0.0631  0.1264  0.0474
  732POPS   C2B11210   1.282   7.029   7.348 -0.0773  0.0946 -0.0192
  732POPS   C3B11211   0.940   7.046   7.544  0.2576 -0.3242  0.0738
  732POPS   C4B11212   0.575   7.024   7.636  0.1172 -0.1836 -0.0010
  733POPS   CNO11213   7.660   6.359   6.483 -0.1747 -0.0680  0.0791
  733POPS   PO411214   7.813   5.975   6.259 -0.1318 -0.2121  0.0690
  733POPS   GL111215   8.027   5.851   6.657 -0.0654  0.1451  0.3442
  733POPS   GL211216   8.020   5.557   6.687 -0.4404  0.2260  0.3732
  733POPS   C1A11217   7.900   5.791   7.163 -0.1491 -0.0477  0.4480
  733POPS   D2A11218   8.001   5.728   7.538 -0.0409 -0.0746  0.2683
  733POPS   C3A11219   7.856   5.687   7.945 -0.4929 -0.2353 -0.1891
  733POPS   C4A11220   7.928   5.315   8.121 -0.0334 -0.0553  0.0642
  733POPS   C1B11221   8.183   5.448   7.026 -0.2086 -0.0676 -0.2081
  733POPS   C2B11222   8.248   5.328   7.415  0.2320  0.0620  0.1300
  733POPS   C3B11223   8.338   5.399   7.864  0.1119 -0.1327  0.3016
  733POPS   C4B11224   8.298   5.699   8.160 -0.1243 -0.2631 -0.4181
  734POPS   CNO11225  10.263   1.207   5.841 -0.0363 -0.2224  0.1021
  734POPS   PO411226  10.418   0.969   6.195  0.0049 -0.2171 -0.1428
  734POPS   GL111227  10.238   1.101   6.507 -0.1168  0.0620 -0.0323
  734POPS   GL211228  10.454   1.266   6.662  0.0159  0.3416  0.0997
  734POPS   C1A11229   9.938   1.185   6.883 -0.1311  0.0730 -0.2379
  734POPS   D2A11230   9.939   0.807   7.253 -0.1450  0.1828 -0.0333
  734POPS   C3A11231   9.886   0.597   7.659  0.1832 -0.2480 -0.0945
  734POPS   C4A11232   9.959   0.453   8.026  0.0789  0.1315 -0.3238
  734POPS   C1B11233  10.504   1.130   7.090  0.0511  0.1680 -0.1590
  734POPS   C2B11234  10.189   1.212   7.468  0.0206 -0.0139  0.1114
  734POPS   C3B11235  10.226   1.087   7.858 -0.2036 -0.0829  0.0512
  734POPS   C4B11236  10.346   0.773   8.284  0.0517 -0.0877 -0.1553
  735POPS   CNO11237  16.493   1.389   6.132 -0.0248 -0.0023  0.2553
  735POPS   PO411238  16.384   1.750   6.119 -0.1782  0.0072 -0.0317
  735POPS   GL111239  16.129   1.616   6.408 -0.0616 -0.2044  0.1332
  735POPS   GL211240  16.324   1.402   6.648  0.1368 -0.2107 -0.3461
  735POPS   C1A11241  15.911   1.772   6.767 -0.1589 -0.3867  0.1286
  735POPS   D2A11242  15.686   1.788   7.206 -0.0520 -0.0677  0.0901
  735POPS   C3A11243  15.821   1.895   7.697  0.1709 -0.2335 -0.2069
  735POPS   C4A11244  15.611   1.891   8.062  0.1067  0.0623 -0.1528
  735POPS   C1B11245  16.039   1.379   6.995 -0.1928 -0.1095 -0.1253
  735POPS   C2B11246  15.814   1.336   7.390  0.0484  0.4763 -0.4259
  735POPS   C3B11247  15.893   1.342   7.806  0.1360  0.0801 -0.0419
  735POPS   C4B11248  16.114   1.657   8.112  0.0092  0.1578  0.1435
  736POPS   CNO11249   1.921   3.204   6.690  0.2223 -0.0588 -0.1889
  736POPS   PO411250   1.559   2.927   6.669  0.0460 -0.0876 -0.1584
  736POPS   GL111251   1.561   3.196   7.017  0.2684  0.0094 -0.1737
  736POPS   GL211252   1.319   3.382   7.051 -0.0177 -0.4673 -0.0347
  736POPS   C1A11253   1.681   3.360   7.414  0.3878  0.1423  0.2975
  736POPS   D2A11254   1.680   3.425   7.865 -0.1707 -0.2217 -0.2224
  736POPS   C3A11255   1.284   3.474   8.173  0.3948 -0.3126  0.0996
  736POPS   C4A11256   0.838   3.682   8.247  0.1475 -0.0539  0.3643
  736POPS   C1B11257   1.128   3.500   7.394  0.1175 -0.1912  0.0236
  736POPS   C2B11258   0.914   3.614   7.781  0.0542 -0.2768  0.0854
  736POPS   C3B11259   0.450   3.593   7.878 -0.0815  0.2192  0.0843
  736POPS   C4B11260   0.171   3.408   7.608 -0.0912 -0.0381  0.1489
  737POPS   CNO11261   6.830   1.169   5.793 -0.5022 -0.0241 -0.1376
  737POPS   PO411262   6.444   1.318   5.997 -0.0599  0.0670 -0.1140
  737POPS   GL111263   6.431   1.447   6.450  0.2421 -0.1112  0.0668
  737POPS   GL211264   6.726   1.390   6.674 -0.1157 -0.0923 -0.2996
  737POPS   C1A11265   6.297   1.729   6.730 -0.0852  0.1531  0.0097
  737POPS   D2A11266   6.297   2.181   6.839  0.1261 -0.0799  0.3234
  737POPS   C3A11267   6.479   2.384   7.133 -0.1321 -0.0138 -0.2203
  737POPS   C4A11268   6.494   2.642   7.553 -0.0077  0.0376  0.0305
  737POPS   C1B11269   6.471   1.267   6.953  0.2111 -0.0603 -0.1839
  737POPS   C2B11270   6.216   1.411   7.326 -0.1667 -0.2630  0.2118
  737POPS   C3B11271   5.991   1.700   7.739 -0.0430 -0.0589 -0.1496
  737POPS   C4B11272   6.013   1.806   8.216  0.1822 -0.0864 -0.0612
  738POPS   CNO11273   4.143   8.013   6.649  0.0678 -0.0658 -0.0798
  738POPS   PO411274   4.480   8.336   6.501 -0.0780 -0.2941  0.0250
  738POPS   GL111275   4.248   8.476   6.866 -0.0609  0.1378  0.0178
  738POPS   GL211276   4.209   8.717   6.762 -0.0232  0.1747 -0.1699
  738POPS   C1A11277   4.300   8.520   7.370 -0.1094  0.0870 -0.0997
  738POPS   D2A11278   4.451   8.595   7.712 -0.0584 -0.1439  0.2060
  738POPS   C3A11279   4.371   8.778   8.090  0.1521  0.3580  0.0433
  738POPS   C4A11280   4.471   8.982   8.483  0.1969 -0.1215 -0.1246
  738POPS   C1B11281   4.264   8.990   7.119  0.2730 -0.1094  0.3254
  738POPS   C2B11282   4.203   9.033   7.600  0.1851  0.0216 -0.1794
  738POPS   C3B11283   3.957   9.048   7.982 -0.0616  0.0166  0.1188
  738POPS   C4B11284   3.599   9.011   8.224 -0.2507 -0.3003 -0.0174
  739POPS   CNO11285   5.596  12.670   5.716 -0.0705  0.3915  0.1802
  739POPS   PO411286   5.653  13.192   5.767  0.1273 -0.1749  0.1527
  739POPS   GL111287   5.563  13.224   6.232  0.1504  0.0725  0.2047
  739POPS   GL211288   5.784  13.382   6.353  0.2842  0.1510  0.0688
  739POPS   C1A11289   5.428  13.246   6.663 -0.0358  0.0169 -0.0096
  739POPS   D2A11290   5.510  13.284   7.110 -0.2311  0.0477  0.0986
  739POPS   C3A11291   5.342  13.657   7.388  0.1830 -0.1588 -0.1024
  739POPS   C4A11292   5.459  13.775   7.774  0.3117  0.1191 -0.2500
  739POPS   C1B11293   5.944  13.429   6.745  0.2050  0.0887  0.0426
  739POPS   C2B11294   6.176  13.362   7.105 -0.0782  0.1984 -0.1272
  739POPS   C3B11295   6.318  13.287   7.487  0.2802 -0.0055  0.3461
  739POPS   C4B11296   6.459  12.988   7.728  0.1353  0.1080 -0.1135
  740POPS   CNO11297  13.101   0.755   5.385  0.1366 -0.2172 -0.1129
  740POPS   PO411298  13.443   0.867   5.752 -0.0472 -0.0971  0.0329
  740POPS   GL111299  13.567   0.941   6.152  0.2683  0.0961  0.0101
  740POPS   GL211300  13.491   1.334   6.299  0.0577 -0.1939 -0.2473
  740POPS   C1A11301  13.786   0.776   6.548  0.0705 -0.1946 -0.0079
  740POPS   D2A11302  13.939   0.646   6.914  0.3303 -0.2218 -0.1342
  740POPS   C3A11303  13.795   0.300   7.173 -0.5272 -0.1058  0.0204
  740POPS   C4A11304  13.562  -0.038   7.053 -0.0368  0.2294 -0.3038
  740POPS   C1B11305  13.686   1.387   6.683 -0.3446 -0.3453 -0.3012
  740POPS   C2B11306  13.707   1.146   7.005 -0.0581 -0.0714 -0.5430
  740POPS   C3B11307  13.905   0.983   7.307  0.0706  0.1343  0.0544
  740POPS   C4B11308  14.110   0.764   7.507  0.0756  0.1360 -0.0592
  741POPS   CNO11309  10.055   2.271   5.736  0.1398  0.0351  0.0599
  741POPS   PO411310   9.918   2.176   6.086 -0.0661  0.1268 -0.2156
  741POPS   GL111311  10.208   2.306   6.344 -0.0991 -0.3715  0.0328
  741POPS   GL211312  10.251   2.025   6.543 -0.2031 -0.0214  0.1057
  741POPS   C1A11313  10.242   2.630   6.655  0.1843  0.1929  0.3480
  741POPS   D2A11314  10.393   2.980   6.777 -0.0838 -0.1154  0.2773
  741POPS   C3A11315  10.504   3.177   7.048 -0.0331  0.1399  0.0550
  741POPS   C4A11316  10.774   3.386   7.411 -0.0233 -0.1342 -0.0382
  741POPS   C1B11317  10.278   1.688   6.869  0.0470  0.1141  0.3474
  741POPS   C2B11318  10.352   1.637   7.281 -0.1251 -0.1125  0.1944
  741POPS   C3B11319  10.146   1.752   7.729 -0.0098 -0.1368 -0.0462
  741POPS   C4B11320   9.801   2.077   7.879  0.1665 -0.3147  0.1182
  742POPS   CNO11321  13.055  16.032   5.967  0.0158  0.0580 -0.1712
  742POPS   PO411322  12.599  15.888   6.040  0.1661  0.0547  0.1916
  742POPS   GL111323  12.643  15.646   6.322  0.3324 -0.1177 -0.0364
  742POPS   GL211324  12.636  15.766   6.615  0.1655  0.3372 -0.0450
  742POPS   C1A11325  12.373  15.374   6.588  0.1416  0.0217 -0.0320
  742POPS   D2A11326  11.992  15.209   6.703  0.0748 -0.1094  0.2021
  742POPS   C3A11327  11.877  15.232   7.107 -0.0079 -0.0650  0.1633
  742POPS   C4A11328  11.720  15.078   7.455 -0.0330  0.2388 -0.1879
  742POPS   C1B11329  12.495  15.720   6.996  0.1337  0.0682  0.0727
  742POPS   C2B11330  12.382  15.838   7.397  0.0110 -0.0640  0.0080
  742POPS   C3B11331  12.406  15.620   7.810 -0.1601 -0.2609 -0.0024
  742POPS   C4B11332  12.435  15.257   8.231 -0.0586  0.1636 -0.1411
  743POPS   CNO11333  17.524  11.692   5.947 -0.2382  0.1211  0.1436
  743POPS   PO411334  17.138  11.585   5.922 -0.2492  0.1468 -0.1886
  743POPS   GL111335  17.222  11.445   6.346  0.1444  0.5218 -0.1688
  743POPS   GL211336  16.982  11.507   6.552 -0.2517 -0.0669 -0.0842
  743POPS   C1A11337  17.297  11.230   6.825  0.0200 -0.1359  0.2264
  743POPS   D2A11338  17.308  10.903   7.064  0.0519  0.1219  0.2478
  743POPS   C3A11339  17.633  10.766   7.320 -0.1322  0.1604  0.0854
  743POPS   C4A11340  17.763  10.633   7.720  0.2925  0.2001 -0.0982
  743POPS   C1B11341  16.940  11.533   6.994  0.2530 -0.1138 -0.0851
  743POPS   C2B11342  17.024  11.474   7.478 -0.0862  0.0748 -0.3351
  743POPS   C3B11343  16.931  11.636   7.861  0.1562  0.2405 -0.1541
  743POPS   C4B11344  17.038  11.781   8.267  0.1302  0.1599  0.2675
  744POPS   CNO11345   0.720   5.927   6.240  0.0206  0.3449  0.1676
  744POPS   PO411346   0.343   6.093   6.261  0.1191  0.1264  0.2893
  744POPS   GL111347   0.398   6.006   6.670  0.1473  0.1489  0.0912
  744POPS   GL211348   0.545   6.251   6.858 -0.2521  0.2985 -0.3605
  744POPS   C1A11349   0.203   5.710   6.772  0.0351 -0.1851 -0.1254
  744POPS   D2A11350   0.009   5.535   7.168  0.1966 -0.0994  0.1247
  744POPS   C3A11351   0.142   5.523   7.544 -0.1318 -0.0496 -0.5210
  744POPS   C4A11352   0.221   5.591   7.999  0.1621 -0.0374 -0.1820
  744POPS   C1B11353   0.573   6.277   7.360 -0.0307 -0.0408 -0.1698
  744POPS   C2B11354   0.487   6.483   7.796  0.1927 -0.0561  0.2632
  744POPS   C3B11355   0.822   6.691   7.921 -0.0480  0.3261  0.2095
  744POPS   C4B11356   0.972   6.974   8.147 -0.2397 -0.2545  0.0446
  745POPS   CNO11357  13.475  17.371   6.301 -0.2309 -0.0316  0.2019
  745POPS   PO411358  13.750  17.393   5.980  0.0552  0.3194 -0.0458
  745POPS   GL111359  13.958  17.508   6.392  0.0108 -0.2632  0.0598
  745POPS   GL211360  14.251  17.439   6.568 -0.0549  0.1943  0.0342
  745POPS   C1A11361  13.865  17.363   6.827 -0.2970  0.3191  0.1843
  745POPS   D2A11362  13.639  17.354   7.215  0.0077  0.0745 -0.0117
  745POPS   C3A11363  13.514  17.718   7.500 -0.1495  0.2716 -0.0817
  745POPS   C4A11364  13.658  18.061   7.721 -0.3217 -0.0388  0.1467
  745POPS   C1B11365  14.309  17.372   7.029  0.0106 -0.1240 -0.3075
  745POPS   C2B11366  14.557  17.357   7.484  0.4211 -0.0189 -0.0392
  745POPS   C3B11367  14.469  17.314   7.979 -0.3847  0.4270  0.0800
  745POPS   C4B11368  14.732  17.269   8.303  0.1243 -0.0294 -0.3245
  746POPS   CNO11369   1.427   9.140   6.368 -0.0015 -0.0609 -0.0921
  746POPS   PO411370   1.308   9.668   6.546 -0.1370 -0.0211  0.1529
  746POPS   GL111371   1.121   9.458   6.730 -0.0135  0.2191 -0.1372
  746POPS   GL211372   0.731   9.438   6.722 -0.2333 -0.0881  0.0325
  746POPS   C1A11373   1.101   9.245   7.147  0.1102 -0.1240 -0.1471
  746POPS   D2A11374   0.996   9.074   7.565  0.0772 -0.0557  0.0560
  746POPS   C3A11375   0.781   8.754   7.738  0.4663 -0.0372  0.0948
  746POPS   C4A11376   0.887   8.607   8.135  0.2491 -0.3255 -0.0622
  746POPS   C1B11377   0.530   9.429   7.080 -0.5828 -0.3998 -0.1762
  746POPS   C2B11378   0.647   9.553   7.466 -0.1563 -0.3224  0.0778
  746POPS   C3B11379   0.649   9.526   7.853 -0.0805  0.0277  0.0583
  746POPS   C4B11380   0.489   9.792   8.120  0.1361  0.1941  0.2538
  747POPS   CNO11381   4.010  15.427   5.873 -0.1052 -0.0295 -0.0026
  747POPS   PO411382   4.313  15.288   6.228  0.2418  0.1030 -0.2645
  747POPS   GL111383   4.536  15.287   6.543  0.0511 -0.0522  0.2455
  747POPS   GL211384   4.789  15.147   6.594 -0.1643  0.2029 -0.0741
  747POPS   C1A11385   4.594  15.641   6.778  0.3424 -0.0141  0.0134
  747POPS   D2A11386   4.463  16.035   6.765 -0.0220 -0.1876 -0.0093
  747POPS   C3A11387   4.423  16.346   7.033  0.0464  0.3096 -0.1652
  747POPS   C4A11388   4.028  16.481   7.126 -0.1702  0.0739 -0.0253
  747POPS   C1B11389   4.816  15.003   6.988 -0.1022 -0.0700 -0.1503
  747POPS   C2B11390   4.761  14.930   7.428 -0.1495 -0.0482  0.0881
  747POPS   C3B11391   4.454  14.783   7.701  0.0658 -0.1840  0.0459
  747POPS   C4B11392   4.060  14.892   7.760 -0.2870 -0.0609  0.1778
  748POPS   CNO11393  12.768  16.374   5.720  0.0230  0.0102  0.1312
  748POPS   PO411394  12.900  16.733   5.770  0.0766  0.0295  0.0356
  748POPS   GL111395  12.580  16.775   6.138  0.3466  0.0868 -0.3045
  748POPS   GL211396  12.424  17.065   6.406 -0.1689 -0.2353 -0.0345
  748POPS   C1A11397  12.665  16.646   6.584 -0.1304 -0.0115 -0.0678
  748POPS   D2A11398  12.598  16.243   6.845  0.0097  0.1684 -0.1488
  748POPS   C3A11399  12.651  16.343   7.241  0.1049  0.0556  0.1284
  748POPS   C4A11400  12.877  16.462   7.561  0.3302 -0.0541 -0.1017
  748POPS   C1B11401  12.469  17.099   6.830  0.1462  0.1146  0.3585
  748POPS   C2B11402  12.599  17.173   7.233  0.1886  0.0109 -0.0235
  748POPS   C3B11403  12.604  17.379   7.584 -0.6035  0.0227 -0.1190
  748POPS   C4B11404  12.644  17.307   8.021 -0.2357  0.0873  0.2526
  749POPS   CNO11405  17.627  12.363   6.281 -0.1741 -0.1520 -0.1702
  749POPS   PO411406  17.863  12.002   6.116  0.2261  0.2155  0.1493
  749POPS   GL111407  17.642  11.843   6.458 -0.2618  0.1821 -0.0200
  749POPS   GL211408  17.506  12.002   6.666 -0.0114 -0.1190  0.0432
  749POPS   C1A11409  17.620  11.604   6.917 -0.3246  0.3112  0.0830
  749POPS   D2A11410  17.542  11.445   7.358  0.1972 -0.0301 -0.1330
  749POPS   C3A11411  17.360  11.098   7.582 -0.2087 -0.3092 -0.3004
  749POPS   C4A11412  17.602  11.011   8.012 -0.0991 -0.1029  0.0177
  749POPS   C1B11413  17.723  12.136   6.952  0.0820  0.1088 -0.1995
  749POPS   C2B11414  17.793  12.131   7.326  0.0327 -0.0528 -0.0454
  749POPS   C3B11415  17.743  12.345   7.655  0.0337 -0.1005 -0.0693
  749POPS   C4B11416  17.700  12.294   8.027  0.0494  0.0125  0.0620
  750POPS   CNO11417   0.224  15.423   5.967  0.1983  0.2307  0.0176
  750POPS   PO411418  -0.056  15.160   6.030  0.1831 -0.0509 -0.0930
  750POPS   GL111419  -0.109  15.014   6.446  0.1610 -0.0135  0.0548
  750POPS   GL211420  -0.239  14.728   6.517 -0.2199 -0.0450  0.0065
  750POPS   C1A11421   0.168  14.913   6.807 -0.0280  0.0491 -0.2312
  750POPS   D2A11422   0.431  15.000   7.265 -0.2439 -0.0088  0.1618
  750POPS   C3A11423   0.265  15.298   7.659  0.0558  0.1530  0.0081
  750POPS   C4A11424   0.064  15.656   7.495 -0.0824 -0.0665  0.0963
  750POPS   C1B11425  -0.466  14.375   6.795 -0.2915  0.3001 -0.1191
  750POPS   C2B11426  -0.399  14.389   7.272  0.0537  0.1059 -0.1570
  750POPS   C3B11427  -0.415  14.644   7.692 -0.0587  0.0430 -0.2499
  750POPS   C4B11428  -0.619  14.731   8.087  0.2258 -0.1427 -0.0889
  751POPS   CNO11429   0.660  10.923   6.019  0.2111 -0.4349 -0.3049
  751POPS   PO411430   0.183  11.060   6.073  0.0275  0.2965  0.1020
  751POPS   GL111431   0.458  11.168   6.457 -0.1205 -0.2045 -0.1013
  751POPS   GL211432   0.715  11.110   6.477 -0.1180 -0.1748 -0.0220
  751POPS   C1A11433   0.375  11.095   6.839  0.0864  0.0814  0.1673
  751POPS   D2A11434   0.040  11.172   7.117 -0.0112  0.2753  0.0283
  751POPS   C3A11435   0.050  11.200   7.589  0.1809 -0.0849  0.0811
  751POPS   C4A11436   0.007  11.430   8.020  0.1291  0.2652 -0.2147
  751POPS   C1B11437   0.823  11.373   6.816 -0.0574 -0.0837 -0.4117
  751POPS   C2B11438   0.884  11.569   7.173 -0.1370  0.3316 -0.1331
  751POPS   C3B11439   1.045  11.498   7.580 -0.1723  0.1114 -0.0602
  751POPS   C4B11440   1.066  11.730   8.010 -0.0913 -0.3338  0.3036
  752POPS   CNO11441  11.637  17.199   5.720 -0.0558 -0.2309  0.0412
  752POPS   PO411442  11.253  17.374   5.709  0.3417 -0.0291 -0.0838
  752POPS   GL111443  11.224  17.199   6.076  0.3942  0.1944 -0.2410
  752POPS   GL211444  11.082  17.540   6.221 -0.2222  0.3458  0.0787
  752POPS   C1A11445  11.117  16.824   6.348  0.2076 -0.0812 -0.0764
  752POPS   D2A11446  11.115  16.752   6.855  0.1252  0.0944 -0.2994
  752POPS   C3A11447  10.778  16.589   6.975  0.0641  0.0163 -0.0500
  752POPS   C4A11448  10.694  16.493   7.337  0.0426 -0.0471 -0.1491
  752POPS   C1B11449  10.834  17.752   6.567  0.0277 -0.0403  0.3268
  752POPS   C2B11450  10.917  17.756   6.888  0.0079  0.2733  0.0247
  752POPS   C3B11451  11.141  17.500   7.188 -0.1975 -0.2263 -0.2789
  752POPS   C4B11452  11.378  17.304   7.520  0.0753  0.0075 -0.1262
  753POPS   CNO11453  10.174  11.449   5.611  0.0367 -0.1448  0.3399
  753POPS   PO411454   9.855  11.169   5.865  0.2177  0.1196  0.0962
  753POPS   GL111455  10.138  11.193   6.296  0.1500 -0.1452  0.0470
  753POPS   GL211456   9.799  11.226   6.371  0.2852  0.1232 -0.2260
  753POPS   C1A11457  10.024  11.350   6.765 -0.0920 -0.0618 -0.0304
  753POPS   D2A11458   9.542  11.352   6.877  0.2057 -0.0559  0.0291
  753POPS   C3A11459   9.510  11.607   7.206  0.0612  0.1142 -0.0807
  753POPS   C4A11460   9.414  11.595   7.700  0.1067 -0.2602 -0.2237
  753POPS   C1B11461   9.682  10.877   6.581  0.1467  0.1558  0.0756
  753POPS   C2B11462   9.797  10.969   7.059 -0.0669 -0.3924  0.0054
  753POPS   C3B11463   9.861  11.152   7.509  0.0609  0.0923 -0.2469
  753POPS   C4B11464  10.098  11.108   7.893 -0.0635  0.0797  0.1426
  754POPS   CNO11465   0.012   4.620   6.686  0.0768  0.0063  0.0756
  754POPS   PO411466  -0.435   4.513   6.563  0.1625  0.3033 -0.0019
  754POPS   GL111467  -0.468   4.246   6.925  0.1249 -0.1029  0.0806
  754POPS   GL211468  -0.276   3.867   6.975  0.0123  0.2745 -0.3573
  754POPS   C1A11469  -0.274   4.192   7.323  0.0266  0.1172  0.1641
  754POPS   D2A11470  -0.239   4.339   7.752  0.0948 -0.0674  0.0235
  754POPS   C3A11471  -0.648   4.284   8.199  0.2754  0.2009  0.0438
  754POPS   C4A11472  -0.995   4.442   8.390  0.0672 -0.1009 -0.0605
  754POPS   C1B11473  -0.149   3.713   7.435 -0.0149 -0.0059  0.1099
  754POPS   C2B11474  -0.009   3.907   7.821  0.1804  0.1941  0.1954
  754POPS   C3B11475  -0.037   4.254   8.200  0.1511 -0.0158  0.2808
  754POPS   C4B11476   0.165   4.579   8.503  0.0730  0.0350  0.2661
  755POPS   CNO11477  10.509   8.420   6.137  0.0175 -0.1706  0.0980
  755POPS   PO411478  10.751   8.815   6.291 -0.1102  0.1932 -0.0261
  755POPS   GL111479  11.065   8.955   6.504 -0.1043  0.1101  0.3520
  755POPS   GL211480  11.207   9.293   6.577 -0.2668 -0.0191 -0.1225
  755POPS   C1A11481  11.188   8.852   6.858 -0.1633 -0.1380 -0.1913
  755POPS   D2A11482  11.076   8.860   7.330  0.0935  0.3563  0.1719
  755POPS   C3A11483  10.669   8.795   7.471  0.1730  0.2933  0.1492
  755POPS   C4A11484  10.416   9.149   7.673  0.1129 -0.0746  0.0303
  755POPS   C1B11485  11.259   9.255   7.083 -0.1379 -0.0770 -0.0615
  755POPS   C2B11486  11.612   9.456   7.286 -0.0964 -0.0388  0.1301
  755POPS   C3B11487  12.060   9.282   7.134 -0.2539 -0.0537  0.2353
  755POPS   C4B11488  12.406   9.461   6.874  0.1586 -0.2730  0.3338
  756POPS   CNO11489  13.742  12.327   5.881 -0.1741  0.1837 -0.1945
  756POPS   PO411490  13.396  12.125   6.096 -0.1783  0.2168 -0.1040
  756POPS   GL111491  13.469  11.958   6.546  0.1202  0.0336  0.0690
  756POPS   GL211492  13.163  12.104   6.690 -0.1156 -0.0641  0.2274
  756POPS   C1A11493  13.574  11.854   7.003  0.0099  0.1321  0.1205
  756POPS   D2A11494  13.536  11.982   7.496 -0.5336 -0.0734 -0.0322
  756POPS   C3A11495  13.394  12.267   7.827  0.2076  0.0142 -0.1071
  756POPS   C4A11496  13.149  12.518   8.191 -0.0460  0.2512  0.1553
  756POPS   C1B11497  13.157  12.139   7.084  0.0253  0.3891  0.2466
  756POPS   C2B11498  13.075  12.452   7.482 -0.1002 -0.1237  0.0986
  756POPS   C3B11499  13.135  12.795   7.802 -0.1497 -0.2485 -0.0984
  756POPS   C4B11500  13.049  13.037   8.178 -0.0883 -0.1289 -0.3532
  757POPS   CNO11501  14.277  10.814   5.898  0.0764 -0.1612 -0.2737
  757POPS   PO411502  14.517  10.793   6.173  0.0841 -0.0211  0.3769
  757POPS   GL111503  14.506  11.016   6.610 -0.2144 -0.1809  0.0735
  757POPS   GL211504  14.569  10.664   6.773  0.2761 -0.0583  0.2113
  757POPS   C1A11505  14.288  11.100   6.975  0.0598  0.2194 -0.5177
  757POPS   D2A11506  14.229  11.236   7.396 -0.0159  0.0431 -0.1094
  757POPS   C3A11507  14.198  11.279   7.922 -0.0610 -0.2019  0.0487
  757POPS   C4A11508  14.167  11.546   8.166  0.0501 -0.1307 -0.3102
  757POPS   C1B11509  14.559  10.796   7.256  0.1650 -0.1858  0.0072
  757POPS   C2B11510  14.373  10.745   7.599  0.2495  0.1246 -0.0081
  757POPS   C3B11511  14.188  10.301   7.744 -0.3150  0.0701 -0.0819
  757POPS   C4B11512  14.255   9.867   7.648 -0.2291 -0.0331  0.2354
  758POPS   CNO11513  14.348  16.224   6.094 -0.1746 -0.1299 -0.3629
  758POPS   PO411514  14.391  16.755   6.057  0.1215 -0.4995 -0.1339
  758POPS   GL111515  14.375  17.001   6.441 -0.1664  0.2533  0.0601
  758POPS   GL211516  14.664  16.946   6.538  0.0202  0.0962 -0.3183
  758POPS   C1A11517  14.179  16.915   6.807 -0.0757 -0.3502  0.1150
  758POPS   D2A11518  14.093  17.006   7.250  0.1955  0.0181 -0.3014
  758POPS   C3A11519  14.371  16.893   7.629 -0.1371 -0.0950 -0.0517
  758POPS   C4A11520  14.109  16.886   8.075 -0.0756  0.0523 -0.1250
  758POPS   C1B11521  14.633  17.019   6.997 -0.0204 -0.3188 -0.2561
  758POPS   C2B11522  14.789  16.961   7.370 -0.1452 -0.1640  0.0682
  758POPS   C3B11523  14.876  17.093   7.781  0.0132 -0.0284 -0.0306
  758POPS   C4B11524  15.204  17.276   7.957 -0.0104 -0.1467 -0.1088
  759POPS   CNO11525  11.572   7.084   5.821  0.0356  0.2056 -0.0016
  759POPS   PO411526  11.221   6.929   6.089 -0.1073  0.1334  0.0126
  759POPS   GL111527  11.151   6.974   6.439  0.3202  0.1622  0.1023
  759POPS   GL211528  10.803   6.991   6.598 -0.3871  0.1315  0.0269
  759POPS   C1A11529  11.237   7.266   6.755  0.1193 -0.0751  0.1823
  759POPS   D2A11530  11.465   7.328   7.197 -0.3044 -0.0257 -0.1983
  759POPS   C3A11531  11.443   7.184   7.618 -0.1441 -0.1503 -0.3822
  759POPS   C4A11532  11.612   7.291   7.996 -0.1933 -0.3489 -0.1372
  759POPS   C1B11533  10.763   6.798   6.948  0.1755  0.0285  0.1639
  759POPS   C2B11534  10.672   6.902   7.299 -0.1255  0.2916 -0.1969
  759POPS   C3B11535  10.682   6.983   7.731  0.2841  0.0894 -0.0083
  759POPS   C4B11536  10.744   6.651   7.963  0.0398  0.0489  0.1292
  760POPS   CNO11537   4.100   4.749   6.211 -0.0314 -0.0732  0.0922
  760POPS   PO411538   3.741   4.782   6.081 -0.1210 -0.0590 -0.2637
  760POPS   GL111539   3.698   4.742   6.490  0.1177 -0.2241  0.0472
  760POPS   GL211540   3.878   5.048   6.642 -0.1395  0.4188 -0.3010
  760POPS   C1A11541   3.670   4.449   6.848 -0.2014 -0.0977 -0.0559
  760POPS   D2A11542   3.672   4.433   7.197  0.0637  0.0917  0.2248
  760POPS   C3A11543   3.377   4.272   7.501  0.0632  0.0870  0.2720
  760POPS   C4A11544   3.028   4.492   7.646  0.1617  0.0985  0.0374
  760POPS   C1B11545   3.829   4.894   7.008  0.0413  0.0937  0.0074
  760POPS   C2B11546   3.776   4.879   7.416 -0.1125 -0.0904  0.1827
  760POPS   C3B11547   3.880   4.932   7.835 -0.0511 -0.2993 -0.0925
  760POPS   C4B11548   3.583   4.767   8.308 -0.1351 -0.2638 -0.1125
  761POPS   CNO11549  15.821  14.542   5.822  0.1074 -0.0198 -0.2215
  761POPS   PO411550  16.118  14.748   6.049  0.0738 -0.1512  0.1255
  761POPS   GL111551  16.309  14.587   6.407 -0.0301 -0.2930 -0.1921
  761POPS   GL211552  16.602  14.615   6.466 -0.0998 -0.0603  0.1144
  761POPS   C1A11553  16.318  14.647   6.893  0.0082 -0.0617 -0.3742
  761POPS   D2A11554  16.246  14.627   7.302  0.1567 -0.4725  0.0224
  761POPS   C3A11555  15.908  14.737   7.510  0.1224 -0.0959 -0.0811
  761POPS   C4A11556  15.756  14.748   7.914  0.0512  0.1654 -0.0594
  761POPS   C1B11557  16.696  14.310   6.748  0.0627 -0.2334  0.0829
  761POPS   C2B11558  16.865  14.430   7.162 -0.0345 -0.2508  0.0362
  761POPS   C3B11559  17.083  14.247   7.473  0.2078  0.0069  0.3897
  761POPS   C4B11560  17.112  14.273   7.913 -0.1027  0.1844  0.1488
  762POPS   CNO11561   1.565  10.895   5.916 -0.1143  0.3835 -0.1118
  762POPS   PO411562   1.886  11.071   6.244  0.1640  0.2085 -0.0248
  762POPS   GL111563   2.136  11.189   6.594 -0.0140  0.3227 -0.1685
  762POPS   GL211564   2.393  11.358   6.473 -0.1001  0.0392 -0.2918
  762POPS   C1A11565   2.057  11.231   6.970 -0.0257 -0.1105  0.0515
  762POPS   D2A11566   1.935  10.981   7.376  0.0711 -0.0547  0.4337
  762POPS   C3A11567   1.886  11.072   7.737 -0.5570  0.1262  0.5380
  762POPS   C4A11568   1.557  11.097   7.917  0.2140  0.3914  0.1386
  762POPS   C1B11569   2.566  11.258   6.928 -0.3850  0.1435 -0.4839
  762POPS   C2B11570   2.821  11.592   7.115 -0.1938 -0.3035  0.0723
  762POPS   C3B11571   3.002  11.500   7.491  0.1656  0.0259 -0.1289
  762POPS   C4B11572   2.987  11.706   7.879 -0.3805  0.1359 -0.0578
  763POPS   CNO11573   2.638  12.478   5.570  0.1778  0.1783  0.0876
  763POPS   PO411574   2.950  12.696   5.803  0.3130  0.2435 -0.1462
  763POPS   GL111575   2.577  12.701   6.005 -0.1319 -0.2279  0.0058
  763POPS   GL211576   2.489  12.406   6.153  0.1253 -0.1300  0.2641
  763POPS   C1A11577   2.332  12.800   6.373  0.3007 -0.0933  0.1889
  763POPS   D2A11578   2.033  13.229   6.565 -0.0938  0.1266 -0.0573
  763POPS   C3A11579   2.161  13.268   6.960  0.0774 -0.2998  0.0292
  763POPS   C4A11580   2.056  13.259   7.424  0.1105 -0.0783 -0.0788
  763POPS   C1B11581   2.300  12.270   6.489 -0.1495  0.1584 -0.0589
  763POPS   C2B11582   2.265  12.230   6.938 -0.0713  0.0112  0.1826
  763POPS   C3B11583   2.158  12.345   7.371  0.0565  0.1132 -0.1316
  763POPS   C4B11584   2.130  12.411   7.825 -0.2431 -0.1469 -0.3156
  764POPS   CNO11585  10.332   3.486   6.129  0.1626 -0.1838  0.0028
  764POPS   PO411586  10.359   3.927   5.941  0.2873  0.2645  0.1289
  764POPS   GL111587  10.245   3.997   6.404  0.1727 -0.0908 -0.0423
  764POPS   GL211588  10.590   4.179   6.420  0.0113 -0.0330  0.0076
  764POPS   C1A11589  10.016   4.000   6.822 -0.0468 -0.1895  0.0389
  764POPS   D2A11590  10.025   4.082   7.391 -0.1539 -0.1034 -0.0438
  764POPS   C3A11591  10.131   3.839   7.729 -0.0645  0.2691 -0.0156
  764POPS   C4A11592   9.995   3.506   7.858 -0.2445  0.1371 -0.2214
  764POPS   C1B11593  10.468   4.237   6.801  0.1423  0.4846  0.0093
  764POPS   C2B11594  10.309   4.450   7.171  0.3216 -0.0797  0.0864
  764POPS   C3B11595  10.169   4.648   7.526  0.3055 -0.0531  0.0626
  764POPS   C4B11596   9.989   4.800   7.848 -0.0371 -0.0852 -0.0109
  765POPS   CNO11597   8.906   5.205   5.843  0.1137  0.3016  0.2307
  765POPS   PO411598   8.647   5.540   6.156  0.1395  0.4579  0.2698
  765POPS   GL111599   8.466   5.501   6.485  0.1047  0.0506 -0.2912
  765POPS   GL211600   8.703   5.504   6.763 -0.0859 -0.0229  0.0104
  765POPS   C1A11601   8.336   5.096   6.657 -0.0566 -0.1121 -0.0960
  765POPS   D2A11602   8.319   4.954   7.086 -0.0631 -0.1975  0.3545
  765POPS   C3A11603   8.127   4.864   7.521 -0.0509  0.2649  0.0799
  765POPS   C4A11604   8.068   4.906   7.848  0.1427 -0.0142 -0.4446
  765POPS   C1B11605   8.695   5.335   7.101  0.1167 -0.1352 -0.0551
  765POPS   C2B11606   8.754   5.352   7.572 -0.1011  0.3379  0.0716
  765POPS   C3B11607   8.829   5.422   8.002  0.1390  0.1200  0.0285
  765POPS   C4B11608   8.851   5.623   8.292  0.0330 -0.0834 -0.0007
  766POPS   CNO11609  14.098   1.652   5.374  0.0356 -0.1607  0.1589
  766POPS   PO411610  14.041   1.678   5.771  0.0548  0.1515  0.2854
  766POPS   GL111611  14.226   1.547   6.171  0.0120  0.2050  0.3221
  766POPS   GL211612  13.996   1.282   6.316  0.1143  0.0693 -0.0424
  766POPS   C1A11613  14.533   1.362   6.601  0.2676  0.1208 -0.2209
  766POPS   D2A11614  14.672   1.064   6.805  0.0110  0.1304 -0.0460
  766POPS   C3A11615  14.603   0.817   7.216 -0.0522  0.1028 -0.0909
  766POPS   C4A11616  14.715   0.408   7.526  0.0957 -0.0758  0.3070
  766POPS   C1B11617  14.140   1.133   6.779  0.3634  0.1272 -0.3069
  766POPS   C2B11618  14.356   1.234   7.217  0.0099 -0.3568 -0.1072
  766POPS   C3B11619  14.431   1.183   7.675  0.2403  0.3710  0.0715
  766POPS   C4B11620  14.558   1.154   8.090 -0.0850 -0.0064 -0.1915
  767POPS   CNO11621  17.862   6.332   6.021  0.1362 -0.0078  0.3095
  767POPS   PO411622  17.488   6.172   6.071 -0.2029  0.3073 -0.0162
  767POPS   GL111623  17.530   6.108   6.558  0.0652  0.1129  0.0935
  767POPS   GL211624  17.361   6.305   6.804 -0.1923 -0.0886 -0.0320
  767POPS   C1A11625  17.435   5.842   6.894  0.1437  0.0888 -0.2355
  767POPS   D2A11626  17.213   5.898   7.354  0.4302 -0.0673 -0.0648
  767POPS   C3A11627  17.493   5.990   7.726  0.4361 -0.1438  0.0972
  767POPS   C4A11628  17.585   5.752   8.158 -0.0415  0.1000  0.0578
  767POPS   C1B11629  17.427   6.281   7.141 -0.1857 -0.1654 -0.0283
  767POPS   C2B11630  17.470   6.456   7.523  0.2135  0.0532 -0.1558
  767POPS   C3B11631  17.761   6.520   7.840  0.0274 -0.0316  0.1470
  767POPS   C4B11632  17.857   6.432   8.262  0.2427 -0.0511 -0.1589
  768POPS   CNO11633   7.752   2.365   5.739  0.0095  0.0157 -0.0696
  768POPS   PO411634   7.574   2.162   6.085  0.2516  0.0076  0.3184
  768POPS   GL111635   7.503   2.079   6.505  0.1830  0.1362 -0.0713
  768POPS   GL211636   7.239   2.108   6.615 -0.0322 -0.0937 -0.0378
  768POPS   C1A11637   7.581   1.896   6.946 -0.1592  0.2123 -0.2667
  768POPS   D2A11638   7.332   1.933   7.329  0.1062  0.2470 -0.2888
  768POPS   C3A11639   7.446   2.102   7.753  0.2887 -0.0112  0.0096
  768POPS   C4A11640   7.503   1.909   8.103  0.1651  0.2803 -0.1950
  768POPS   C1B11641   7.426   2.390   6.976  0.0408  0.0931  0.0377
  768POPS   C2B11642   7.363   2.673   7.298  0.3075  0.1179  0.0640
  768POPS   C3B11643   7.005   2.778   7.535 -0.0650  0.3038 -0.2111
  768POPS   C4B11644   6.823   2.873   8.022 -0.0579 -0.1466 -0.0173
  769POPS   CNO11645  13.588   6.959   5.709  0.3416  0.2668  0.0721
  769POPS   PO411646  13.553   6.672   6.082  0.1570  0.1840 -0.0741
  769POPS   GL111647  13.529   6.738   6.384 -0.3091  0.0936 -0.1349
  769POPS   GL211648  13.370   6.518   6.553 -0.1132  0.2714 -0.1050
  769POPS   C1A11649  13.709   6.873   6.860 -0.0964  0.0319 -0.0017
  769POPS   D2A11650  13.971   6.948   7.100 -0.1213  0.0384 -0.0171
  769POPS   C3A11651  13.959   6.949   7.534  0.0865 -0.2394  0.1438
  769POPS   C4A11652  13.993   6.755   7.787 -0.0673  0.2750 -0.2538
  769POPS   C1B11653  13.423   6.411   6.963  0.0215  0.0682  0.0838
  769POPS   C2B11654  13.389   6.255   7.448 -0.1844  0.4168 -0.0441
  769POPS   C3B11655  13.165   6.269   7.751 -0.0524  0.2055  0.0703
  769POPS   C4B11656  12.780   6.370   8.043 -0.0746  0.0182 -0.0409
  770POPS   CNO11657  15.838   7.573   5.822  0.0179  0.0151  0.0610
  770POPS   PO411658  15.943   7.325   6.123  0.2070 -0.2268 -0.1107
  770POPS   GL111659  15.763   7.367   6.587  0.0393  0.0292  0.1187
  770POPS   GL211660  15.711   7.035   6.631  0.1479  0.1206  0.0216
  770POPS   C1A11661  15.567   7.702   6.803  0.0113 -0.1241  0.2108
  770POPS   D2A11662  15.226   7.607   7.139 -0.1669 -0.1723  0.2598
  770POPS   C3A11663  15.233   7.550   7.480 -0.1459  0.2014 -0.0713
  770POPS   C4A11664  15.323   7.537   7.998  0.1467 -0.4103 -0.0889
  770POPS   C1B11665  15.822   7.205   7.055 -0.0771  0.2533 -0.1330
  770POPS   C2B11666  15.729   7.426   7.370  0.0302 -0.2249 -0.4737
  770POPS   C3B11667  15.741   7.624   7.757  0.0623 -0.2760  0.1632
  770POPS   C4B11668  16.073   7.771   7.999 -0.0651  0.0520 -0.1561
  771POPS   CNO11669  13.969  13.391   5.824  0.2819  0.0829  0.1081
  771POPS   PO411670  14.229  13.548   6.022  0.0120 -0.2471 -0.0989
  771POPS   GL111671  13.950  13.443   6.393  0.3296 -0.0469 -0.1072
  771POPS   GL211672  13.677  13.247   6.267 -0.1020 -0.0364 -0.3471
  771POPS   C1A11673  13.907  13.414   6.771 -0.0245  0.1318 -0.0382
  771POPS   D2A11674  13.765  13.681   6.900  0.3127 -0.0001 -0.0827
  771POPS   C3A11675  13.844  13.512   7.360 -0.0591  0.0714  0.1564
  771POPS   C4A11676  13.995  13.542   7.774 -0.0146  0.3000 -0.1473
  771POPS   C1B11677  13.449  13.465   6.594 -0.0028  0.3675 -0.0781
  771POPS   C2B11678  13.029  13.543   6.848  0.1801 -0.4051 -0.1190
  771POPS   C3B11679  12.662  13.435   7.091 -0.3565  0.0253  0.2012
  771POPS   C4B11680  12.242  13.281   7.174 -0.2851 -0.0414  0.1558
  772POPS   CNO11681   9.294   0.481   5.920 -0.2050 -0.4063  0.1772
  772POPS   PO411682   9.174   0.173   6.150 -0.0881 -0.0932  0.1542
  772POPS   GL111683   8.907  -0.062   6.496  0.2482  0.0122  0.0773
  772POPS   GL211684   8.730  -0.276   6.497  0.2663  0.0673 -0.2248
  772POPS   C1A11685   8.963   0.010   6.924  0.0407 -0.0365 -0.1106
  772POPS   D2A11686   8.834   0.199   7.251  0.1331  0.0920 -0.0236
  772POPS   C3A11687   8.887   0.168   7.659 -0.1228 -0.1978 -0.1203
  772POPS   C4A11688   8.935   0.031   7.925  0.1318 -0.0349  0.0732
  772POPS   C1B11689   8.277  -0.388   6.620 -0.1414 -0.0934 -0.2164
  772POPS   C2B11690   8.101  -0.501   6.992 -0.1083  0.0251  0.0358
  772POPS   C3B11691   7.858  -0.507   7.420  0.1704  0.2955  0.1729
  772POPS   C4B11692   7.743  -0.893   7.676  0.0427  0.5217 -0.0382
  773POPS   CNO11693   1.208   1.341   5.588  0.1777 -0.0269  0.1516
  773POPS   PO411694   1.620   1.305   5.878 -0.0070 -0.2610 -0.1455
  773POPS   GL111695   1.297   1.249   6.171  0.0954 -0.1020 -0.1498
  773POPS   GL211696   1.055   1.488   6.144  0.0150  0.1283  0.3019
  773POPS   C1A11697   1.133   1.166   6.561 -0.0962  0.2007  0.1571
  773POPS   D2A11698   1.023   1.169   6.942 -0.1629  0.1978 -0.2525
  773POPS   C3A11699   1.129   0.847   7.314 -0.1755 -0.4039 -0.1350
  773POPS   C4A11700   1.101   0.439   7.278  0.1980  0.2869 -0.0625
  773POPS   C1B11701   0.734   1.473   6.460  0.1511 -0.0292 -0.4113
  773POPS   C2B11702   0.536   1.144   6.842  0.1002 -0.0290  0.0764
  773POPS   C3B11703   0.623   1.011   7.263 -0.1039  0.2301  0.2126
  773POPS   C4B11704   0.787   1.016   7.649  0.0048 -0.0991  0.0311
  774POPS   CNO11705  10.483  12.732   5.703  0.0237  0.2640 -0.0386
  774POPS   PO411706  10.195  12.375   5.848 -0.0075  0.0138  0.0813
  774POPS   GL111707  10.097  12.182   6.166  0.1475  0.3172 -0.0243
  774POPS   GL211708  10.363  12.238   6.391 -0.2867 -0.1445 -0.0595
  774POPS   C1A11709  10.083  11.865   6.538  0.1596  0.0380  0.3192
  774POPS   D2A11710  10.063  11.809   6.944 -0.0564  0.0581 -0.0679
  774POPS   C3A11711  10.051  12.091   7.241 -0.2232 -0.0210 -0.1391
  774POPS   C4A11712   9.805  12.393   7.540 -0.0608 -0.1242 -0.2609
  774POPS   C1B11713  10.088  12.497   6.599  0.1221 -0.0398 -0.0392
  774POPS   C2B11714  10.029  12.575   7.039 -0.1547 -0.0799  0.0794
  774POPS   C3B11715  10.162  12.713   7.413  0.3108 -0.2689 -0.0074
  774POPS   C4B11716  10.344  12.472   7.704 -0.0107  0.1218 -0.0802
  775POPS   CNO11717   1.717   7.314   5.871  0.2389  0.1552 -0.0848
  775POPS   PO411718   1.642   7.585   6.080  0.0126 -0.0655 -0.0818
  775POPS   GL111719   1.662   7.569   6.512  0.1274  0.3887  0.0287
  775POPS   GL211720   1.394   7.643   6.750 -0.1390 -0.0933 -0.1621
  775POPS   C1A11721   1.802   7.529   7.018  0.5672 -0.0924  0.1348
  775POPS   D2A11722   2.025   7.315   7.272 -0.1499 -0.2875  0.1267
  775POPS   C3A11723   1.824   7.469   7.700  0.0946 -0.3325  0.2306
  775POPS   C4A11724   1.696   7.688   8.043  0.0628  0.1319 -0.2040
  775POPS   C1B11725   1.239   7.879   7.087  0.2162  0.4079  0.3313
  775POPS   C2B11726   0.916   8.015   7.322  0.1773 -0.1887  0.0677
  775POPS   C3B11727   0.946   8.244   7.617 -0.2257 -0.2516 -0.2089
  775POPS   C4B11728   0.730   8.222   7.875  0.1378  0.0043 -0.0717
  776POPS   CNO11729   8.066   7.248   6.578 -0.1424  0.0341 -0.0365
  776POPS   PO411730   7.972   6.780   6.476  0.1283  0.2568  0.0844
  776POPS   GL111731   7.960   6.592   6.890 -0.0936  0.0979 -0.0469
  776POPS   GL211732   8.156   6.359   6.947  0.0612 -0.1042  0.1745
  776POPS   C1A11733   7.734   6.749   7.199  0.0186  0.0388 -0.1449
  776POPS   D2A11734   7.594   6.999   7.520  0.2679 -0.0144  0.0140
  776POPS   C3A11735   7.703   7.242   7.909  0.4439  0.2447 -0.4473
  776POPS   C4A11736   7.936   7.185   8.229 -0.0256 -0.0431  0.0673
  776POPS   C1B11737   8.065   6.356   7.374  0.1473 -0.1421  0.0070
  776POPS   C2B11738   7.846   6.630   7.678  0.1168  0.2738 -0.0722
  776POPS   C3B11739   7.621   6.766   8.006  0.0016 -0.0579 -0.0837
  776POPS   C4B11740   7.206   6.683   8.215  0.1232 -0.3245  0.0435
  777POPS   CNO11741   7.406   8.699   6.358  0.0289 -0.2173 -0.0653
  777POPS   PO411742   7.097   8.477   6.332  0.0840 -0.1371 -0.0166
  777POPS   GL111743   6.940   8.416   6.734  0.0680 -0.1863 -0.0730
  777POPS   GL211744   6.960   8.090   6.928  0.0543 -0.2083 -0.1285
  777POPS   C1A11745   7.034   8.568   7.185  0.0742  0.1967  0.3640
  777POPS   D2A11746   7.123   8.492   7.557 -0.2196  0.0756  0.0290
  777POPS   C3A11747   7.014   8.580   7.913 -0.0430  0.1579  0.0119
  777POPS   C4A11748   6.839   8.632   8.241 -0.0506  0.2842 -0.1124
  777POPS   C1B11749   6.817   7.742   7.198  0.3739  0.0067  0.2626
  777POPS   C2B11750   6.789   7.672   7.645  0.0816 -0.2808 -0.1191
  777POPS   C3B11751   6.798   7.621   8.042 -0.0418 -0.2437 -0.0130
  777POPS   C4B11752   6.810   7.782   8.485 -0.1872 -0.0668  0.2179
  778POPS   CNO11753   4.340   1.598   5.443 -0.0915  0.1162 -0.0340
  778POPS   PO411754   4.318   1.619   5.880  0.2446  0.2156 -0.1753
  778POPS   GL111755   4.503   1.827   6.352 -0.2107 -0.1851  0.3190
  778POPS   GL211756   4.452   1.481   6.489 -0.0177 -0.1950 -0.1146
  778POPS   C1A11757   4.472   1.834   6.819 -0.1949  0.0187  0.2810
  778POPS   D2A11758   4.197   1.602   7.083 -0.1509 -0.1089  0.1560
  778POPS   C3A11759   4.203   1.501   7.499  0.1553 -0.0993 -0.1254
  778POPS   C4A11760   4.177   1.039   7.746 -0.0623 -0.0717  0.0894
  778POPS   C1B11761   4.623   1.350   6.915  0.1633 -0.0665  0.1068
  778POPS   C2B11762   4.706   1.444   7.335  0.2252  0.1677 -0.2409
  778POPS   C3B11763   4.621   1.386   7.789  0.1829 -0.3781  0.0628
  778POPS   C4B11764   4.623   1.488   8.245 -0.4339 -0.0769  0.0513
  779POPS   CNO11765  11.291  11.629   5.782  0.1469  0.1594  0.4055
  779POPS   PO411766  10.781  11.559   5.843 -0.3501 -0.0488 -0.0516
  779POPS   GL111767  10.833  11.502   6.341 -0.0799 -0.1906 -0.0066
  779POPS   GL211768  10.573  11.377   6.515 -0.1643  0.0241  0.1933
  779POPS   C1A11769  11.039  11.280   6.584 -0.0302 -0.0685  0.3343
  779POPS   D2A11770  11.271  10.918   6.765  0.0516  0.1069  0.0467
  779POPS   C3A11771  11.026  10.599   6.945 -0.0140  0.1771 -0.0436
  779POPS   C4A11772  11.162  10.189   6.858 -0.0268 -0.1437 -0.1472
  779POPS   C1B11773  10.650  11.485   6.917 -0.1769 -0.3478  0.2158
  779POPS   C2B11774  10.639  11.248   7.379  0.1679 -0.0709  0.1334
  779POPS   C3B11775  11.018  11.272   7.709 -0.2986  0.0067  0.2922
  779POPS   C4B11776  11.289  11.388   8.108  0.2314  0.0797 -0.1470
  780POPS   CNO11777  13.201  11.671   6.242 -0.1578 -0.2999  0.1267
  780POPS   PO411778  13.044  11.353   6.128  0.1576 -0.1829 -0.0842
  780POPS   GL111779  12.910  11.334   6.470  0.1050  0.2620  0.2947
  780POPS   GL211780  12.872  11.678   6.626  0.0600  0.1288  0.0344
  780POPS   C1A11781  12.648  11.241   6.812 -0.1683 -0.0011 -0.0909
  780POPS   D2A11782  12.637  11.045   7.187 -0.1977 -0.0397 -0.1690
  780POPS   C3A11783  12.285  10.845   7.391 -0.1905  0.0918 -0.3272
  780POPS   C4A11784  12.020  10.790   7.732 -0.1850 -0.0760 -0.0305
  780POPS   C1B11785  12.745  11.670   7.064  0.0890  0.1769 -0.2823
  780POPS   C2B11786  12.657  11.613   7.453 -0.1749 -0.0756 -0.0133
  780POPS   C3B11787  12.608  11.272   7.687  0.0304  0.0111 -0.2120
  780POPS   C4B11788  12.650  11.176   8.199 -0.0773  0.0009  0.3732
  781POPS   CNO11789   9.523  16.401   5.932 -0.1165  0.1833 -0.1007
  781POPS   PO411790   9.344  16.765   5.963  0.0013  0.1096  0.3803
  781POPS   GL111791   9.344  16.670   6.322  0.0768 -0.0171 -0.1827
  781POPS   GL211792   9.163  16.347   6.313  0.0769  0.0440  0.1239
  781POPS   C1A11793   9.356  16.537   6.692  0.0036  0.1407  0.0289
  781POPS   D2A11794   9.354  16.403   7.141 -0.0529 -0.1338 -0.1981
  781POPS   C3A11795   9.410  16.079   7.506 -0.0348  0.0329 -0.0733
  781POPS   C4A11796   9.731  15.892   7.789 -0.0405  0.2144  0.1927
  781POPS   C1B11797   8.923  16.212   6.719  0.1416 -0.0404 -0.1061
  781POPS   C2B11798   8.585  16.243   7.044  0.0339  0.1580 -0.1239
  781POPS   C3B11799   8.407  16.236   7.395 -0.2316 -0.4666 -0.0865
  781POPS   C4B11800   8.540  16.393   7.818 -0.1667 -0.0190  0.0242
  782POPS   CNO11801  16.062   8.913   5.802 -0.3015  0.0391 -0.0553
  782POPS   PO411802  16.055   9.043   6.161 -0.0854  0.0944  0.2527
  782POPS   GL111803  16.057   8.941   6.549 -0.1067  0.2055  0.2928
  782POPS   GL211804  16.037   8.631   6.568  0.0149  0.0736 -0.0422
  782POPS   C1A11805  15.981   8.975   6.944  0.1749 -0.0202 -0.3645
  782POPS   D2A11806  15.838   9.155   7.320 -0.1410 -0.0987  0.2211
  782POPS   C3A11807  16.117   9.094   7.749 -0.0688  0.2182 -0.1343
  782POPS   C4A11808  16.078   8.660   7.887 -0.0052 -0.1043 -0.1263
  782POPS   C1B11809  16.136   8.498   6.899  0.1586  0.2384 -0.0629
  782POPS   C2B11810  16.527   8.298   6.988 -0.2185 -0.3216 -0.2484
  782POPS   C3B11811  16.710   8.223   7.404 -0.0303 -0.3020  0.0372
  782POPS   C4B11812  16.880   8.239   7.861 -0.1898 -0.0091  0.0714
  783POPS   CNO11813   2.192   2.176   6.209  0.0153 -0.1022 -0.1072
  783POPS   PO411814   2.524   2.540   6.389 -0.0871  0.0067 -0.1675
  783POPS   GL111815   2.440   2.692   6.797  0.0013 -0.1536  0.1953
  783POPS   GL211816   2.275   2.939   6.926  0.2377 -0.2255 -0.3005
  783POPS   C1A11817   2.294   2.557   7.228  0.1812 -0.0915  0.0794
  783POPS   D2A11818   2.235   2.599   7.718  0.1151  0.0548  0.0486
  783POPS   C3A11819   2.132   2.972   7.929 -0.0201  0.0465 -0.0353
  783POPS   C4A11820   2.077   3.263   8.201  0.1949 -0.0664 -0.2141
  783POPS   C1B11821   2.595   3.214   7.034  0.2038  0.0261 -0.0349
  783POPS   C2B11822   2.762   3.460   7.303 -0.2004  0.1156  0.0361
  783POPS   C3B11823   2.815   3.612   7.638  0.1038  0.0781  0.2747
  783POPS   C4B11824   3.188   3.864   7.847 -0.0973  0.0897  0.1960
  784POPS   CNO11825   6.706  10.766   5.582 -0.1820 -0.0980  0.1041
  784POPS   PO411826   6.415  10.669   5.975 -0.4994  0.0776 -0.0040
  784POPS   GL111827   6.615  10.873   6.364 -0.3404 -0.1554  0.1122
  784POPS   GL211828   6.466  11.126   6.361  0.2165 -0.4708  0.2328
  784POPS   C1A11829   6.686  10.787   6.783  0.0311  0.2422 -0.1338
  784POPS   D2A11830   6.556  10.944   7.202  0.0037 -0.2988 -0.0622
  784POPS   C3A11831   6.609  11.416   7.237 -0.1478 -0.2756  0.1438
  784POPS   C4A11832   6.803  11.524   7.558 -0.1585 -0.0171  0.3208
  784POPS   C1B11833   6.638  11.312   6.750  0.0128  0.3284  0.3006
  784POPS   C2B11834   7.003  11.610   6.960  0.0493  0.0929 -0.1180
  784POPS   C3B11835   7.340  11.551   7.291  0.1260 -0.0149 -0.2053
  784POPS   C4B11836   7.673  11.777   7.503 -0.1856  0.0359 -0.2722
  785POPS   CNO11837   7.508  15.895   5.978 -0.0137 -0.1920  0.0133
  785POPS   PO411838   7.902  16.070   5.920 -0.2602 -0.0139  0.0830
  785POPS   GL111839   7.762  16.234   6.316  0.0302  0.3162  0.1607
  785POPS   GL211840   7.734  16.551   6.375 -0.1888  0.1537 -0.2696
  785POPS   C1A11841   7.487  16.276   6.742  0.1386 -0.3333 -0.3627
  785POPS   D2A11842   7.567  16.220   7.208  0.1084  0.0167 -0.0706
  785POPS   C3A11843   7.292  16.122   7.604  0.0321  0.1529 -0.2112
  785POPS   C4A11844   6.935  16.266   7.825  0.1874 -0.1713  0.1806
  785POPS   C1B11845   7.853  16.564   6.774 -0.2982 -0.1169  0.3094
  785POPS   C2B11846   8.152  16.467   7.065  0.3676 -0.1308  0.0153
  785POPS   C3B11847   8.102  16.575   7.554 -0.3512  0.3012 -0.3657
  785POPS   C4B11848   8.106  16.570   7.965 -0.2102  0.2864  0.2158
  786POPS   CNO11849  16.263  12.060   6.072  0.0271  0.2013 -0.0555
  786POPS   PO411850  15.943  12.316   6.105  0.0421  0.5240  0.0599
  786POPS   GL111851  15.807  12.297   6.494  0.0626  0.0207  0.3186
  786POPS   GL211852  15.598  12.037   6.615  0.1004  0.1809 -0.4145
  786POPS   C1A11853  15.765  12.346   6.970  0.1667  0.0889  0.2021
  786POPS   D2A11854  15.656  12.239   7.390  0.0527 -0.0795  0.1659
  786POPS   C3A11855  15.438  12.505   7.600  0.1948  0.2682 -0.2922
  786POPS   C4A11856  15.696  12.853   7.931 -0.2510 -0.0448  0.1864
  786POPS   C1B11857  15.552  11.848   7.031  0.1037  0.1921  0.1553
  786POPS   C2B11858  15.466  11.840   7.467 -0.0415 -0.1630 -0.0868
  786POPS   C3B11859  15.575  12.057   7.880  0.2374  0.0361 -0.2948
  786POPS   C4B11860  15.501  12.437   8.128 -0.1568 -0.1620  0.1999
  787POPS   CNO11861   1.212  11.899   6.050  0.1358  0.0146  0.1107
  787POPS   PO411862   1.546  11.873   6.011  0.3167  0.0206  0.4190
  787POPS   GL111863   1.594  11.883   6.421 -0.4361  0.1455  0.0690
  787POPS   GL211864   1.868  12.136   6.399  0.2557  0.0147 -0.0500
  787POPS   C1A11865   1.850  11.883   6.852 -0.1609 -0.0430 -0.3165
  787POPS   D2A11866   1.901  11.880   7.337 -0.1655 -0.1972 -0.2618
  787POPS   C3A11867   2.024  11.512   7.490 -0.3030 -0.0795  0.1138
  787POPS   C4A11868   2.445  11.371   7.412  0.1470 -0.3301  0.3122
  787POPS   C1B11869   1.693  12.325   6.788 -0.1226 -0.2780 -0.1724
  787POPS   C2B11870   1.820  12.658   7.146 -0.0798  0.3685  0.0526
  787POPS   C3B11871   1.843  12.810   7.584  0.1624  0.3062  0.0278
  787POPS   C4B11872   1.752  12.727   8.004  0.0876  0.1434 -0.1444
  788POPS   CNO11873   7.340  12.970   5.726 -0.0152  0.2942 -0.4961
  788POPS   PO411874   7.314  13.326   5.880 -0.1761  0.2524  0.2279
  788POPS   GL111875   7.450  13.072   6.224 -0.1701  0.0868 -0.3248
  788POPS   GL211876   7.793  13.143   6.122  0.2144  0.1639  0.2379
  788POPS   C1A11877   7.484  12.888   6.587  0.0687 -0.0354 -0.3562
  788POPS   D2A11878   7.553  12.986   6.956 -0.2149 -0.0928  0.0544
  788POPS   C3A11879   7.391  12.927   7.302  0.2483 -0.3809 -0.2703
  788POPS   C4A11880   7.326  12.975   7.796 -0.0991 -0.1796 -0.1489
  788POPS   C1B11881   7.848  13.230   6.474 -0.1632  0.0675 -0.0718
  788POPS   C2B11882   8.150  13.105   6.869 -0.1505 -0.0632  0.1328
  788POPS   C3B11883   7.988  12.979   7.335  0.2000  0.1318  0.1416
  788POPS   C4B11884   7.798  13.109   7.731 -0.0186  0.1207 -0.2889
  789POPS   CNO11885   6.372   0.791   5.906  0.0485 -0.0824  0.1591
  789POPS   PO411886   6.274   0.941   6.276  0.0034 -0.1667 -0.2056
  789POPS   GL111887   6.447   0.785   6.755  0.1516  0.3022  0.0626
  789POPS   GL211888   6.781   0.760   6.718  0.0254 -0.1937 -0.0621
  789POPS   C1A11889   6.657   0.846   7.193 -0.0971 -0.2031  0.4301
  789POPS   D2A11890   6.738   1.069   7.505  0.2384 -0.1890  0.0774
  789POPS   C3A11891   6.602   0.970   7.836 -0.1322  0.0916 -0.1778
  789POPS   C4A11892   6.286   0.959   8.246  0.2209  0.2042 -0.1908
  789POPS   C1B11893   7.073   1.089   6.914  0.1617 -0.0534 -0.0608
  789POPS   C2B11894   7.166   1.157   7.368  0.2748  0.0571  0.0129
  789POPS   C3B11895   7.177   1.548   7.630 -0.1199 -0.1809 -0.0430
  789POPS   C4B11896   6.996   1.837   7.859  0.3725 -0.1510 -0.0476
  790POPS   CNO11897  14.915   6.137   6.285 -0.0272 -0.1100  0.1618
  790POPS   PO411898  15.180   6.304   6.402 -0.0511 -0.1160  0.3171
  790POPS   GL111899  15.172   6.085   6.822 -0.0622  0.1206 -0.0727
  790POPS   GL211900  15.045   5.823   6.864  0.0291 -0.1026  0.1428
  790POPS   C1A11901  15.239   6.224   7.219 -0.0008 -0.0500 -0.0970
  790POPS   D2A11902  15.260   6.294   7.711  0.0862 -0.1574  0.1054
  790POPS   C3A11903  15.042   6.185   8.053 -0.0902 -0.0818  0.0119
  790POPS   C4A11904  15.156   5.826   8.188 -0.1147  0.1648 -0.1056
  790POPS   C1B11905  15.418   5.762   7.285 -0.3053  0.1950 -0.0355
  790POPS   C2B11906  15.357   5.700   7.729 -0.0249 -0.0369  0.0226
  790POPS   C3B11907  15.624   5.953   7.940  0.0476 -0.2062 -0.1602
  790POPS   C4B11908  15.545   6.279   8.104  0.0869 -0.0417  0.1573
  791YOPS   CNO11909   4.825  12.104   5.940  0.1089  0.1932 -0.0538
  791YOPS   PO411910   5.201  12.453   5.965  0.2160  0.0659 -0.0051
  791YOPS   GL111911   5.359  12.557   6.318  0.0971  0.0959  0.0264
  791YOPS   GL211912   5.631  12.743   6.263 -0.0615  0.0715 -0.0809
  791YOPS   C1A11913   5.534  12.758   6.744 -0.2758  0.4172 -0.1676
  791YOPS   D2A11914   5.830  12.861   7.100  0.0462  0.0177  0.0704
  791YOPS   C3A11915   6.112  12.666   7.605 -0.2795  0.0980  0.0517
  791YOPS   C4A11916   5.858  12.862   7.949 -0.2015 -0.0992  0.2261
  791YOPS   C1B11917   5.822  12.477   6.504 -0.3398 -0.0648 -0.0288
  791YOPS   C2B11918   5.768  12.340   6.949  0.1222 -0.5309 -0.0528
  791YOPS   D3B11919   5.596  12.496   7.421 -0.1508 -0.2026  0.1801
  791YOPS   C4B11920   5.758  12.361   7.891 -0.1925  0.0494  0.1544
  792YOPS   CNO11921   2.565   3.032   6.463 -0.2372  0.0234 -0.1634
  792YOPS   PO411922   2.672   3.490   6.228 -0.1071 -0.2957 -0.0049
  792YOPS   GL111923   2.915   3.539   6.603 -0.1507  0.0652  0.1290
  792YOPS   GL211924   2.913   3.311   6.685 -0.1261 -0.0034  0.0010
  792YOPS   C1A11925   2.972   3.773   6.936 -0.2597  0.2662  0.0722
  792YOPS   D2A11926   2.890   4.070   7.258 -0.1229 -0.0153  0.1157
  792YOPS   C3A11927   2.714   4.063   7.747  0.1274  0.2226 -0.1562
  792YOPS   C4A11928   2.887   4.253   8.077  0.0852 -0.0889 -0.0786
  792YOPS   C1B11929   3.187   3.292   7.015  0.1113  0.1742 -0.1296
  792YOPS   C2B11930   3.242   3.199   7.410 -0.2272 -0.2296 -0.2558
  792YOPS   D3B11931   3.049   3.197   7.755 -0.1793 -0.1064 -0.2449
  792YOPS   C4B11932   3.180   3.400   8.104 -0.1275  0.0632 -0.0041
  793YOPS   CNO11933  11.324  15.791   5.811 -0.0744  0.0633  0.3261
  793YOPS   PO411934  11.330  16.267   5.696  0.0976 -0.2226  0.2105
  793YOPS   GL111935  11.470  16.509   6.075  0.2615  0.0752 -0.0411
  793YOPS   GL211936  11.608  16.819   6.134  0.0255  0.2805 -0.0427
  793YOPS   C1A11937  11.504  16.535   6.595  0.1519  0.0950  0.1036
  793YOPS   D2A11938  11.573  16.453   7.029 -0.3025 -0.0522  0.0912
  793YOPS   C3A11939  11.902  16.566   7.273  0.2866  0.0764 -0.2934
  793YOPS   C4A11940  11.800  16.681   7.725  0.1381  0.1665  0.3027
  793YOPS   C1B11941  11.518  17.070   6.540 -0.0548  0.1124 -0.0031
  793YOPS   C2B11942  11.433  17.071   7.034  0.1911  0.0413  0.2009
  793YOPS   D3B11943  11.420  16.832   7.407 -0.0742 -0.0472  0.0314
  793YOPS   C4B11944  11.044  16.897   7.787 -0.0663 -0.1695  0.0026
  794YOPS   CNO11945   0.412  16.859   5.863 -0.3309 -0.0519 -0.3163
  794YOPS   PO411946   0.707  16.939   6.061 -0.0662  0.1051 -0.0607
  794YOPS   GL111947   0.663  17.006   6.452  0.1060  0.1734  0.0111
  794YOPS   GL211948   0.478  17.292   6.569 -0.0849 -0.0534  0.3589
  794YOPS   C1A11949   0.620  16.918   6.927  0.1062  0.0126 -0.0023
  794YOPS   D2A11950   0.724  16.791   7.370  0.0454 -0.0906 -0.1014
  794YOPS   C3A11951   0.809  16.832   7.735 -0.2546  0.0277  0.1397
  794YOPS   C4A11952   1.008  17.233   7.838  0.3159  0.1709 -0.1753
  794YOPS   C1B11953   0.282  17.252   6.904 -0.0532 -0.1514 -0.1409
  794YOPS   C2B11954   0.207  17.078   7.252  0.0363 -0.2422 -0.0459
  794YOPS   D3B11955   0.202  16.761   7.593 -0.0492  0.2156 -0.1798
  794YOPS   C4B11956  -0.111  16.529   7.774  0.1364 -0.0217 -0.0956
  795YOPS   CNO11957   9.536  14.787   5.850  0.2998 -0.2314 -0.1773
  795YOPS   PO411958   9.153  14.551   6.103 -0.2115 -0.1247  0.2850
  795YOPS   GL111959   9.534  14.670   6.368  0.1456 -0.1955 -0.2004
  795YOPS   GL211960   9.232  14.560   6.651 -0.0188  0.1998  0.0090
  795YOPS   C1A11961   9.734  14.656   6.827  0.3994 -0.2066  0.2186
  795YOPS   D2A11962  10.026  14.811   7.204 -0.3901 -0.0238 -0.1623
  795YOPS   C3A11963  10.364  14.553   7.409  0.1356  0.4227 -0.1196
  795YOPS   C4A11964  10.479  14.387   7.808  0.2184 -0.1074  0.1195
  795YOPS   C1B11965   9.133  14.799   6.947 -0.1208 -0.1759  0.2123
  795YOPS   C2B11966   8.974  14.753   7.309  0.0626 -0.0931  0.0606
  795YOPS   D3B11967   8.529  14.873   7.371 -0.1692 -0.1244 -0.0224
  795YOPS   C4B11968   8.216  14.655   7.529 -0.0220 -0.1853 -0.0453
  796YOPS   CNO11969  12.077   2.567   5.753 -0.0242  0.0750  0.1134
  796YOPS   PO411970  11.803   2.645   5.999  0.0696 -0.0080  0.0337
  796YOPS   GL111971  11.696   2.750   6.408  0.4921  0.1598  0.5748
  796YOPS   GL211972  11.765   2.481   6.582 -0.3329  0.2372 -0.0260
  796YOPS   C1A11973  11.711   2.948   6.806 -0.1352  0.0316 -0.0978
  796YOPS   D2A11974  11.689   2.906   7.329 -0.0437 -0.1482  0.1232
  796YOPS   C3A11975  11.688   2.846   7.711 -0.1312 -0.0629  0.0518
  796YOPS   C4A11976  11.492   2.541   7.888 -0.3601  0.1233  0.2258
  796YOPS   C1B11977  11.787   2.526   7.036  0.1738  0.1388 -0.2367
  796YOPS   C2B11978  11.803   2.432   7.501  0.0675  0.1162 -0.0776
  796YOPS   D3B11979  11.866   2.154   7.778  0.1284  0.0639 -0.1131
  796YOPS   C4B11980  11.660   2.156   8.191  0.0522 -0.0450  0.0344
  797YOPS   CNO11981  14.975   3.975   5.923 -0.1792  0.2924 -0.1519
  797YOPS   PO411982  14.700   3.787   6.227 -0.1049 -0.0873 -0.0505
  797YOPS   GL111983  14.526   3.831   6.634  0.3631  0.1768 -0.1699
  797YOPS   GL211984  14.650   4.119   6.738  0.2773  0.2395 -0.1843
  797YOPS   C1A11985  14.314   3.891   7.106 -0.1491 -0.1476 -0.1153
  797YOPS   D2A11986  14.221   4.181   7.489  0.0341  0.0665  0.1789
  797YOPS   C3A11987  14.246   4.293   7.792  0.0794  0.0532 -0.0647
  797YOPS   C4A11988  14.574   4.540   8.082 -0.0418  0.1679 -0.0768
  797YOPS   C1B11989  14.570   4.309   7.140  0.0390  0.1721 -0.0015
  797YOPS   C2B11990  14.774   4.324   7.507  0.2896  0.0659 -0.2916
  797YOPS   D3B11991  14.867   4.202   7.848 -0.0192 -0.0302 -0.0608
  797YOPS   C4B11992  15.050   3.861   7.926 -0.0828 -0.3432 -0.1773
  798YOPS   CNO11993   4.692  14.051   5.582 -0.0667 -0.0551  0.1943
  798YOPS   PO411994   5.062  14.019   6.010  0.0647 -0.3525  0.0377
  798YOPS   GL111995   5.174  13.844   6.351 -0.1450  0.2806 -0.1836
  798YOPS   GL211996   5.396  13.716   6.363  0.1342  0.2864 -0.1712
  798YOPS   C1A11997   5.341  13.778   6.867 -0.0092 -0.0172  0.0671
  798YOPS   D2A11998   5.771  13.762   7.199  0.3171  0.2202  0.0817
  798YOPS   C3A11999   5.881  13.559   7.579  0.1164  0.1279 -0.3888
  798YOPS   C4A12000   5.834  13.159   7.509  0.2002  0.0857 -0.0857
  798YOPS   C1B12001   5.677  13.918   6.381  0.2887  0.0191  0.3008
  798YOPS   C2B12002   5.961  14.041   6.768 -0.0905  0.0897 -0.1199
  798YOPS   D3B12003   5.977  14.242   7.182 -0.0498  0.2239  0.0098
  798YOPS   C4B12004   5.982  14.075   7.529 -0.0187 -0.2226  0.1718
  799YOPS   CNO12005   0.000  17.232   6.052 -0.2845  0.2022 -0.3528
  799YOPS   PO412006  -0.334  17.191   6.239  0.0054  0.2609  0.0928
  799YOPS   GL112007  -0.164  17.381   6.613  0.0952 -0.2619  0.0475
  799YOPS   GL212008   0.029  17.544   6.490 -0.3234 -0.1504 -0.2157
  799YOPS   C1A12009  -0.150  17.347   7.034 -0.1215 -0.0353  0.1150
  799YOPS   D2A12010  -0.230  17.652   7.378  0.4819 -0.2789 -0.0680
  799YOPS   C3A12011  -0.344  17.991   7.731  0.2705  0.2932 -0.1726
  799YOPS   C4A12012  -0.722  18.052   7.835 -0.2743  0.1819 -0.1624
  799YOPS   C1B12013  -0.045  17.872   6.878  0.1106 -0.1779 -0.1346
  799YOPS   C2B12014   0.073  18.071   7.250  0.2316 -0.1160  0.2387
  799YOPS   D3B12015  -0.201  18.455   7.368 -0.3568 -0.2501  0.1495
  799YOPS   C4B12016  -0.115  18.461   7.833  0.0357 -0.1648  0.2303
  800YOPS   CNO12017   7.745  15.696   5.543 -0.0386 -0.0143  0.1207
  800YOPS   PO412018   7.958  15.366   5.689  0.0318  0.1893  0.1263
  800YOPS   GL112019   7.826  15.579   6.181  0.0484  0.1078 -0.0139
  800YOPS   GL212020   8.124  15.649   6.385  0.1052 -0.1230  0.2316
  800YOPS   C1A12021   7.575  15.766   6.533  0.1230  0.0584  0.0033
  800YOPS   D2A12022   7.603  15.776   6.891 -0.0244 -0.0166 -0.2245
  800YOPS   C3A12023   7.638  15.680   7.310  0.1824 -0.1058 -0.0985
  800YOPS   C4A12024   7.569  15.208   7.570  0.2787  0.3867 -0.1144
  800YOPS   C1B12025   8.335  15.420   6.718  0.3012  0.0432 -0.1269
  800YOPS   C2B12026   8.397  15.299   7.156  0.0114 -0.0798  0.2098
  800YOPS   D3B12027   8.509  15.324   7.665  0.2098  0.0879 -0.0886
  800YOPS   C4B12028   8.275  15.278   7.974  0.0941 -0.1904  0.2849
  801YOPS   CNO12029   3.981   2.135   5.741 -0.3021 -0.0175 -0.2523
  801YOPS   PO412030   3.972   2.293   6.130 -0.0644 -0.1724 -0.1423
  801YOPS   GL112031   4.019   2.213   6.503  0.1041  0.2256  0.1217
  801YOPS   GL212032   4.366   2.322   6.745  0.2497  0.0932 -0.1678
  801YOPS   C1A12033   3.985   1.997   6.924  0.0073  0.0831 -0.1319
  801YOPS   D2A12034   3.855   2.299   7.391 -0.0775  0.0084  0.3317
  801YOPS   C3A12035   3.751   2.383   7.813  0.3697 -0.0261 -0.1338
  801YOPS   C4A12036   3.908   2.771   8.193  0.0294  0.2437  0.0381
  801YOPS   C1B12037   4.380   2.354   7.211 -0.0823 -0.1398  0.1983
  801YOPS   C2B12038   4.652   2.389   7.566 -0.1050  0.0834  0.3227
  801YOPS   D3B12039   4.798   2.325   8.024  0.0397  0.1347 -0.2416
  801YOPS   C4B12040   5.197   2.281   8.088  0.2775 -0.0355 -0.0084
  802YOPS   CNO12041   2.904   4.392   6.173 -0.3776 -0.2934 -0.1959
  802YOPS   PO412042   3.383   4.308   6.210  0.3898 -0.1586  0.0940
  802YOPS   GL112043   3.422   4.074   6.561 -0.0970 -0.0961  0.3048
  802YOPS   GL212044   3.760   3.946   6.615  0.2365 -0.1201 -0.0451
  802YOPS   C1A12045   3.432   4.006   7.011  0.2165 -0.1568  0.1713
  802YOPS   D2A12046   3.370   3.709   7.437 -0.1642  0.0032 -0.0297
  802YOPS   C3A12047   3.650   3.472   7.679  0.1857  0.0883 -0.1094
  802YOPS   C4A12048   4.007   3.585   7.851  0.0639 -0.2842 -0.1626
  802YOPS   C1B12049   3.584   3.571   6.692 -0.0055 -0.0037 -0.3097
  802YOPS   C2B12050   3.735   3.495   7.115 -0.2864 -0.0387  0.0598
  802YOPS   D3B12051   3.797   3.172   7.308 -0.0011 -0.1249  0.0537
  802YOPS   C4B12052   3.941   3.032   7.769 -0.1413  0.0637 -0.0475
  803YOPS   CNO12053  10.590   5.315   5.989  0.0544  0.2683 -0.0125
  803YOPS   PO412054  10.327   5.583   5.798 -0.1939  0.1928  0.2553
  803YOPS   GL112055  10.267   5.599   6.260 -0.3232  0.1453  0.0373
  803YOPS   GL212056  10.567   5.604   6.381  0.1121  0.0162 -0.0905
  803YOPS   C1A12057  10.019   5.488   6.681  0.1013  0.4961 -0.1957
  803YOPS   D2A12058  10.007   5.578   7.031  0.0615  0.0552 -0.1672
  803YOPS   C3A12059  10.002   5.593   7.490  0.2394  0.3431 -0.2787
  803YOPS   C4A12060  10.280   5.635   7.881  0.0600  0.1998 -0.1768
  803YOPS   C1B12061  10.547   5.617   6.738  0.1990  0.1367 -0.1230
  803YOPS   C2B12062  10.521   5.586   7.153 -0.0459  0.0042  0.1105
  803YOPS   D3B12063  10.672   5.361   7.448  0.2450 -0.1753 -0.0104
  803YOPS   C4B12064  10.367   5.106   7.711  0.0240 -0.5071 -0.0205
  804YOPS   CNO12065   4.908  16.415   5.686 -0.1947 -0.0009 -0.1864
  804YOPS   PO412066   4.806  16.062   5.858 -0.0645 -0.0133  0.0627
  804YOPS   GL112067   5.147  16.283   6.119 -0.2446  0.4536 -0.0838
  804YOPS   GL212068   4.925  16.490   6.204  0.1506 -0.2081 -0.1779
  804YOPS   C1A12069   5.345  16.254   6.524  0.1823 -0.1601 -0.0224
  804YOPS   D2A12070   5.266  16.243   6.946 -0.2346  0.2658 -0.1925
  804YOPS   C3A12071   5.273  16.160   7.335  0.0175 -0.1056 -0.0904
  804YOPS   C4A12072   5.200  16.395   7.646 -0.0895  0.1697  0.0391
  804YOPS   C1B12073   4.833  16.392   6.680 -0.1513 -0.0910  0.0572
  804YOPS   C2B12074   4.903  16.503   7.092  0.0380  0.3471  0.1699
  804YOPS   D3B12075   4.723  16.368   7.435  0.1043 -0.2161 -0.1862
  804YOPS   C4B12076   4.335  16.207   7.508  0.0184  0.4051  0.1034
  805YOPS   CNO12077  13.459  13.118   5.798 -0.0961  0.1606 -0.1807
  805YOPS   PO412078  12.996  12.969   5.954 -0.2784  0.0082 -0.0321
  805YOPS   GL112079  13.015  12.797   6.344 -0.0740 -0.4367 -0.0595
  805YOPS   GL212080  13.120  12.505   6.355  0.5243  0.1416  0.1950
  805YOPS   C1A12081  13.286  12.934   6.669 -0.1361 -0.0813  0.2095
  805YOPS   D2A12082  13.414  13.161   7.057  0.1088  0.2070  0.2973
  805YOPS   C3A12083  13.281  13.460   7.270 -0.1500  0.1419  0.0251
  805YOPS   C4A12084  13.272  13.855   7.093  0.2417 -0.1372 -0.0672
  805YOPS   C1B12085  12.993  12.559   6.815 -0.1291 -0.4716 -0.3452
  805YOPS   C2B12086  12.696  12.614   7.126 -0.0772 -0.0995 -0.0168
  805YOPS   D3B12087  12.520  12.931   7.460 -0.2093  0.2414  0.3177
  805YOPS   C4B12088  12.165  12.832   7.700 -0.1494  0.2821  0.0485
  806YOPS   CNO12089  12.365   4.274   6.025 -0.0515  0.0658 -0.0986
  806YOPS   PO412090  12.412   4.669   5.966 -0.2450 -0.0178 -0.1635
  806YOPS   GL112091  12.366   4.864   6.338  0.2011  0.2989 -0.5022
  806YOPS   GL212092  12.593   4.875   6.572 -0.0129  0.2000 -0.0470
  806YOPS   C1A12093  12.088   4.887   6.784  0.0225  0.1016 -0.0594
  806YOPS   D2A12094  12.121   5.165   7.197  0.2081 -0.0550  0.0977
  806YOPS   C3A12095  12.069   5.443   7.503  0.0182 -0.0876  0.3285
  806YOPS   C4A12096  11.736   5.310   7.942  0.1230 -0.0642 -0.1585
  806YOPS   C1B12097  12.604   4.924   6.993 -0.1929 -0.3497  0.0970
  806YOPS   C2B12098  12.574   4.772   7.443  0.3499 -0.0527  0.0692
  806YOPS   D3B12099  12.519   4.550   7.847  0.1756 -0.2567 -0.2884
  806YOPS   C4B12100  12.484   4.644   8.244 -0.0481 -0.1723 -0.1429
  807YOPS   CNO12101   0.307   2.584   6.301 -0.1525  0.3412 -0.2756
  807YOPS   PO412102   0.144   2.221   6.324 -0.0684 -0.0760  0.0109
  807YOPS   GL112103   0.083   2.088   6.743  0.0433  0.1164 -0.0579
  807YOPS   GL212104  -0.055   2.377   6.876  0.0947  0.0245  0.0566
  807YOPS   C1A12105  -0.031   1.926   7.070 -0.1384 -0.1474 -0.1181
  807YOPS   D2A12106  -0.005   1.838   7.411 -0.2541  0.0654 -0.0221
  807YOPS   C3A12107   0.137   1.747   7.779 -0.1108 -0.0748  0.1829
  807YOPS   C4A12108  -0.033   1.306   7.880 -0.0279 -0.1351  0.1864
  807YOPS   C1B12109  -0.105   2.375   7.240  0.0041  0.0592 -0.3018
  807YOPS   C2B12110  -0.080   2.289   7.684 -0.0230  0.3112  0.1216
  807YOPS   D3B12111  -0.231   2.509   8.023 -0.1619  0.0568  0.1103
  807YOPS   C4B12112  -0.140   2.445   8.516  0.1406  0.1211 -0.0932
  808YOPS   CNO12113  17.067   4.546   6.168  0.2332 -0.0259 -0.0401
  808YOPS   PO412114  16.704   4.558   6.080 -0.2412 -0.5843 -0.2382
  808YOPS   GL112115  16.753   4.441   6.571 -0.1246 -0.1044  0.0623
  808YOPS   GL212116  16.981   4.267   6.675 -0.0568  0.1219 -0.1011
  808YOPS   C1A12117  16.606   4.494   7.044  0.1600  0.0421  0.1185
  808YOPS   D2A12118  16.707   4.587   7.395 -0.1585 -0.0065  0.1584
  808YOPS   C3A12119  16.702   4.960   7.685  0.1357  0.0230  0.0679
  808YOPS   C4A12120  17.097   5.225   7.719  0.1009  0.2315 -0.1612
  808YOPS   C1B12121  16.988   4.247   7.143 -0.1880 -0.1453  0.2337
  808YOPS   C2B12122  17.080   4.235   7.631 -0.4439 -0.3261 -0.1602
  808YOPS   D3B12123  16.909   4.532   7.878 -0.2526  0.0022  0.5270
  808YOPS   C4B12124  17.008   4.855   8.137 -0.1534  0.2074  0.0354
  809YOPS   CNO12125   3.273   5.536   5.891  0.3473 -0.0984 -0.0563
  809YOPS   PO412126   3.671   5.672   6.042  0.0293 -0.0462  0.0265
  809YOPS   GL112127   3.627   5.880   6.380  0.2078  0.0389  0.0563
  809YOPS   GL212128   3.475   6.158   6.505 -0.2231 -0.0159 -0.0587
  809YOPS   C1A12129   3.847   5.931   6.767  0.1062 -0.0248  0.1163
  809YOPS   D2A12130   4.284   6.152   6.889  0.1708 -0.3769  0.0152
  809YOPS   C3A12131   4.606   6.040   7.161  0.1808 -0.1929  0.0177
  809YOPS   C4A12132   4.864   5.678   7.310  0.2017 -0.1768  0.1952
  809YOPS   C1B12133   3.428   6.179   6.982  0.2584 -0.0717 -0.0445
  809YOPS   C2B12134   3.048   6.230   7.214 -0.1744  0.0677 -0.0576
  809YOPS   D3B12135   2.665   6.339   7.480 -0.2523 -0.0155 -0.2014
  809YOPS   C4B12136   2.644   6.485   7.865  0.0732  0.2840 -0.1321
  810YOPS   CNO12137  17.750  16.359   5.536 -0.1811 -0.2032  0.3610
  810YOPS   PO412138  17.863  16.524   5.835 -0.3063  0.1944 -0.0451
  810YOPS   GL112139  17.816  16.609   6.239 -0.2448  0.0006  0.1087
  810YOPS   GL212140  17.906  16.862   6.430  0.2974  0.2882 -0.4827
  810YOPS   C1A12141  17.575  16.434   6.537  0.1457  0.0339 -0.3017
  810YOPS   D2A12142  17.632  16.287   7.001 -0.3276 -0.3891 -0.1156
  810YOPS   C3A12143  17.658  16.091   7.389  0.3005  0.2737 -0.2074
  810YOPS   C4A12144  17.344  16.215   7.811 -0.0816 -0.0714  0.0726
  810YOPS   C1B12145  17.704  16.924   6.803  0.0018 -0.0869  0.1520
  810YOPS   C2B12146  17.587  16.652   7.309 -0.0858  0.1037  0.0884
  810YOPS   D3B12147  17.327  16.754   7.769 -0.0524  0.1539 -0.1427
  810YOPS   C4B12148  17.547  16.721   8.217 -0.2147 -0.0328 -0.2045
  811YOPS   CNO12149  13.059   1.835   5.700  0.1364 -0.0083  0.0479
  811YOPS   PO412150  13.274   1.790   6.129 -0.3245  0.0634 -0.0938
  811YOPS   GL112151  13.166   1.600   6.564  0.1443 -0.0577  0.0887
  811YOPS   GL212152  12.918   1.316   6.582  0.2527 -0.0360  0.0010
  811YOPS   C1A12153  13.258   1.395   6.962 -0.0043 -0.3183 -0.0366
  811YOPS   D2A12154  13.431   1.270   7.407 -0.2465  0.3370  0.2462
  811YOPS   C3A12155  13.614   1.161   7.796  0.1455 -0.0696 -0.0578
  811YOPS   C4A12156  13.992   1.112   7.898  0.2748  0.2037 -0.0795
  811YOPS   C1B12157  12.799   1.203   6.959 -0.0198  0.1624 -0.0242
  811YOPS   C2B12158  12.950   1.080   7.412  0.0897 -0.0482 -0.1497
  811YOPS   D3B12159  13.081   0.957   7.747  0.0716 -0.3850  0.1521
  811YOPS   C4B12160  12.796   1.086   8.074  0.1686 -0.1329 -0.2063
  812YOPS   CNO12161   8.665   2.374   5.607 -0.0185  0.0289 -0.0720
  812YOPS   PO412162   8.584   2.457   6.033  0.1968 -0.2761  0.2179
  812YOPS   GL112163   8.600   2.745   6.432 -0.1710 -0.0813 -0.2070
  812YOPS   GL212164   8.680   3.059   6.553  0.2237 -0.0550 -0.1190
  812YOPS   C1A12165   8.893   2.696   6.797  0.0566  0.0658  0.2213
  812YOPS   D2A12166   9.077   2.699   7.235  0.0548 -0.3289 -0.1235
  812YOPS   C3A12167   8.987   2.685   7.613 -0.2279 -0.1524  0.1573
  812YOPS   C4A12168   9.076   2.359   7.786 -0.3546  0.0179 -0.1904
  812YOPS   C1B12169   8.880   3.196   6.986  0.1827 -0.1621 -0.0361
  812YOPS   C2B12170   8.945   3.220   7.317  0.0770 -0.1532  0.2460
  812YOPS   D3B12171   8.937   3.109   7.795 -0.0919 -0.2227 -0.1667
  812YOPS   C4B12172   9.059   2.833   8.095 -0.0853 -0.0474  0.1577
  813YOPS   CNO12173   8.568   3.501   6.123 -0.0634 -0.0888 -0.0766
  813YOPS   PO412174   8.292   3.064   6.162 -0.1487  0.2197 -0.2451
  813YOPS   GL112175   8.202   3.245   6.505 -0.0447  0.0409 -0.2802
  813YOPS   GL212176   8.039   3.544   6.502  0.0370 -0.0206 -0.0331
  813YOPS   C1A12177   8.289   3.374   7.007 -0.0067  0.1543 -0.0713
  813YOPS   D2A12178   8.439   3.405   7.443 -0.1767  0.1538  0.0802
  813YOPS   C3A12179   8.325   3.413   7.846  0.3240 -0.1068 -0.1866
  813YOPS   C4A12180   7.954   3.479   8.213 -0.2797 -0.0955  0.0364
  813YOPS   C1B12181   7.821   3.696   6.861 -0.1168 -0.0441 -0.1117
  813YOPS   C2B12182   7.910   3.604   7.285 -0.2917  0.0587  0.2608
  813YOPS   D3B12183   7.849   3.480   7.699 -0.1320 -0.0581  0.0002
  813YOPS   C4B12184   7.460   3.666   7.838  0.0449  0.0608  0.2430
  814YOPS   CNO12185   0.512  11.375   5.836  0.0941  0.0521 -0.2860
  814YOPS   PO412186   0.590  11.622   6.178 -0.2166 -0.2717 -0.1867
  814YOPS   GL112187   0.829  11.721   6.468  0.2923  0.4999  0.2531
  814YOPS   GL212188   1.175  11.590   6.471  0.0534  0.2234  0.2166
  814YOPS   C1A12189   0.690  11.952   6.823 -0.3757 -0.2704  0.0853
  814YOPS   D2A12190   0.670  12.021   7.228 -0.0206  0.1316 -0.0474
  814YOPS   C3A12191   0.591  11.970   7.736  0.0502 -0.2037 -0.2911
  814YOPS   C4A12192   0.546  11.607   7.813 -0.0855  0.2246 -0.0389
  814YOPS   C1B12193   1.199  11.782   6.833  0.0821  0.2195 -0.0243
  814YOPS   C2B12194   1.451  12.034   7.142  0.0695  0.1767 -0.1290
  814YOPS   D3B12195   1.614  12.307   7.390 -0.0469  0.0351  0.1635
  814YOPS   C4B12196   1.442  12.545   7.665 -0.3253  0.0091  0.3897
  815YOPS   CNO12197  14.071  15.005   5.855 -0.0115 -0.1899  0.2332
  815YOPS   PO412198  14.194  14.845   6.328  0.1555  0.0279  0.0601
  815YOPS   GL112199  14.160  15.076   6.683  0.0139  0.1154  0.1518
  815YOPS   GL212200  13.918  14.954   6.759  0.3417 -0.0217 -0.0312
  815YOPS   C1A12201  14.290  14.858   7.063 -0.2179 -0.2597 -0.0097
  815YOPS   D2A12202  14.241  14.773   7.474 -0.2276  0.0087 -0.0255
  815YOPS   C3A12203  14.125  14.624   7.906 -0.0997 -0.2174 -0.0357
  815YOPS   C4A12204  13.953  14.214   8.095  0.2386  0.0748  0.1106
  815YOPS   C1B12205  13.888  15.291   7.038  0.0981  0.2710 -0.0949
  815YOPS   C2B12206  13.912  15.277   7.431 -0.1111 -0.0488 -0.1778
  815YOPS   D3B12207  13.730  15.526   7.842  0.1636 -0.0802  0.0393
  815YOPS   C4B12208  13.357  15.760   7.827 -0.0979 -0.2265  0.2652
  816YOPS   CNO12209  17.027  14.927   5.981  0.1050 -0.2070  0.1412
  816YOPS   PO412210  17.130  14.518   5.786  0.1670  0.1591 -0.0438
  816YOPS   GL112211  17.009  14.453   6.246 -0.3001 -0.1852  0.0179
  816YOPS   GL212212  17.111  14.130   6.462  0.0181  0.1388 -0.1909
  816YOPS   C1A12213  17.070  14.666   6.576  0.0619  0.2351 -0.0552
  816YOPS   D2A12214  17.308  14.886   6.875  0.1351 -0.0238  0.1268
  816YOPS   C3A12215  17.175  14.802   7.253 -0.1538  0.0863  0.1442
  816YOPS   C4A12216  17.022  14.808   7.610 -0.0222  0.2432 -0.2038
  816YOPS   C1B12217  17.212  13.857   6.658  0.2062  0.2761  0.0090
  816YOPS   C2B12218  17.092  13.528   6.890 -0.2836  0.1288  0.4293
  816YOPS   D3B12219  17.072  13.198   7.039  0.1453  0.1688 -0.0393
  816YOPS   C4B12220  17.077  12.787   7.230  0.2621 -0.0648 -0.2235
  817YOPS   CNO12221   1.880   6.740   5.935  0.1705 -0.0977  0.0464
  817YOPS   PO412222   1.667   6.527   6.345  0.3982 -0.3637 -0.0759
  817YOPS   GL112223   1.575   6.558   6.778 -0.0665 -0.4414  0.0583
  817YOPS   GL212224   1.874   6.439   6.883  0.3158 -0.0296  0.2095
  817YOPS   C1A12225   1.442   6.425   7.171  0.0432 -0.1766  0.2939
  817YOPS   D2A12226   1.540   6.577   7.535  0.2267  0.1490 -0.0092
  817YOPS   C3A12227   1.368   6.798   7.889 -0.2001  0.0613 -0.0022
  817YOPS   C4A12228   1.394   7.155   7.798  0.2474  0.2331 -0.0771
  817YOPS   C1B12229   1.889   6.253   7.266 -0.1769 -0.5197 -0.2221
  817YOPS   C2B12230   1.750   6.128   7.606  0.0734 -0.0757 -0.0018
  817YOPS   D3B12231   1.649   6.247   7.986 -0.3783  0.1327 -0.0299
  817YOPS   C4B12232   1.689   6.592   8.198  0.0817  0.1197  0.1039
  818YOPS   CNO12233   5.550  13.879   5.883  0.0834 -0.0773 -0.0437
  818YOPS   PO412234   5.288  13.495   5.921  0.0929  0.0392  0.2090
  818YOPS   GL112235   5.072  13.337   6.304  0.3255  0.0284  0.2894
  818YOPS   GL212236   4.747  13.253   6.231  0.1107  0.4171  0.2330
  818YOPS   C1A12237   4.948  13.482   6.700  0.0304  0.2580 -0.0757
  818YOPS   D2A12238   4.947  13.503   7.115 -0.0281  0.1542  0.0512
  818YOPS   C3A12239   4.711  13.630   7.501 -0.4149  0.1732  0.0002
  818YOPS   C4A12240   4.975  13.690   7.742 -0.1118  0.1495  0.1377
  818YOPS   C1B12241   4.620  13.039   6.660 -0.2339  0.0010 -0.2216
  818YOPS   C2B12242   4.701  12.664   7.057  0.2611  0.0279 -0.1033
  818YOPS   D3B12243   4.447  12.504   7.416 -0.0062  0.3274 -0.0446
  818YOPS   C4B12244   4.128  12.141   7.321 -0.0279 -0.1007 -0.1434
  819YOPS   CNO12245   5.663  10.868   5.366  0.1817 -0.0897  0.0265
  819YOPS   PO412246   5.549  10.892   5.721  0.0835 -0.2996  0.0075
  819YOPS   GL112247   5.478  11.097   6.107  0.4268  0.1188 -0.0716
  819YOPS   GL212248   5.613  10.893   6.272  0.1628 -0.1405 -0.0133
  819YOPS   C1A12249   5.221  11.077   6.463 -0.1367 -0.0592  0.1274
  819YOPS   D2A12250   5.184  10.666   6.610 -0.1711 -0.1257 -0.1994
  819YOPS   C3A12251   4.863  10.590   6.879 -0.0713  0.1859 -0.2336
  819YOPS   C4A12252   4.882  10.380   7.250  0.1853  0.1125  0.1482
  819YOPS   C1B12253   5.616  10.861   6.734  0.1058 -0.3393  0.1086
  819YOPS   C2B12254   5.741  10.941   6.989 -0.0143 -0.1894 -0.0953
  819YOPS   D3B12255   5.656  11.012   7.418 -0.1611  0.0848 -0.3723
  819YOPS   C4B12256   5.342  11.206   7.471  0.0560 -0.0319  0.4320
  820YOPS   CNO12257   4.985  11.197   5.359 -0.3228 -0.0243  0.1724
  820YOPS   PO412258   4.806  11.219   5.761  0.1119  0.2336  0.1486
  820YOPS   GL112259   4.986  11.477   6.110 -0.2339  0.1235  0.3217
  820YOPS   GL212260   5.274  11.615   6.121  0.2900 -0.1154 -0.1179
  820YOPS   C1A12261   4.779  11.739   6.265 -0.3452  0.0141  0.1044
  820YOPS   D2A12262   4.731  12.005   6.633 -0.0801  0.3155 -0.0074
  820YOPS   C3A12263   4.584  12.126   7.085 -0.0309  0.1101  0.0530
  820YOPS   C4A12264   4.428  11.805   7.516  0.0511  0.4292 -0.0448
  820YOPS   C1B12265   5.212  11.624   6.628  0.2943  0.2051 -0.0936
  820YOPS   C2B12266   5.009  11.648   7.035  0.1420 -0.3037  0.1715
  820YOPS   D3B12267   5.051  11.873   7.423 -0.0340 -0.0091 -0.1457
  820YOPS   C4B12268   4.759  12.110   7.754 -0.3096  0.1521 -0.1321
  821POPE   NH312269  15.952   6.823   6.198 -0.1638 -0.0309 -0.1577
  821POPE   PO412270  16.211   7.066   6.534 -0.0199 -0.1454 -0.1826
  821POPE   GL112271  16.415   7.227   6.864 -0.0135 -0.1939  0.0962
  821POPE   GL212272  16.200   7.493   6.848 -0.0218  0.0417 -0.1162
  821POPE   C1A12273  16.323   7.221   7.264 -0.1071 -0.2150  0.0915
  821POPE   D2A12274  16.236   7.548   7.523 -0.2041  0.0049 -0.1046
  821POPE   C3A12275  16.469   7.490   7.951 -0.1777  0.3002 -0.0733
  821POPE   C4A12276  16.300   7.229   8.320 -0.0075  0.0108  0.1947
  821POPE   C1B12277  16.057   7.790   7.051 -0.1014  0.0075  0.0290
  821POPE   C2B12278  16.036   8.133   7.348  0.0782  0.3672  0.1529
  821POPE   C3B12279  15.984   8.196   7.795  0.0401  0.0732 -0.0421
  821POPE   C4B12280  16.003   8.258   8.222  0.0894 -0.1166 -0.3061
  822POPE   NH312281  10.814   0.971   5.910 -0.2909 -0.1172  0.1876
  822POPE   PO412282  10.512   0.627   5.889  0.0625  0.0518 -0.1321
  822POPE   GL112283  10.536   0.443   6.331 -0.3415 -0.1329 -0.0541
  822POPE   GL212284  10.218   0.455   6.391  0.0367 -0.0285  0.1358
  822POPE   C1A12285  10.524   0.223   6.742  0.0945  0.3298 -0.0144
  822POPE   D2A12286  10.518   0.085   7.105  0.0356 -0.0960 -0.2593
  822POPE   C3A12287  10.797   0.093   7.364  0.0909  0.2880  0.0580
  822POPE   C4A12288  10.968   0.412   7.630  0.2045 -0.0047  0.4570
  822POPE   C1B12289  10.035   0.662   6.715  0.4022 -0.0949  0.1781
  822POPE   C2B12290   9.626   0.739   6.880  0.2404 -0.3410 -0.0669
  822POPE   C3B12291   9.414   0.636   7.280  0.2588 -0.0364 -0.1322
  822POPE   C4B12292   9.193   0.483   7.501 -0.0674  0.7007  0.0566
  823POPE   NH312293  10.714  12.412   6.025 -0.0659 -0.1517 -0.0968
  823POPE   PO412294  10.820  12.803   6.155  0.0436 -0.1845 -0.0863
  823POPE   GL112295  10.664  12.643   6.484 -0.0081  0.1110  0.2503
  823POPE   GL212296  10.362  12.712   6.234 -0.0737 -0.0797  0.0862
  823POPE   C1A12297  10.507  12.645   6.882 -0.0197  0.1855 -0.1173
  823POPE   D2A12298  10.631  12.457   7.150  0.0484 -0.1345  0.2838
  823POPE   C3A12299  10.818  12.283   7.505 -0.3766  0.4045  0.1452
  823POPE   C4A12300  11.273  12.352   7.726  0.1499 -0.0439  0.0515
  823POPE   C1B12301  10.299  12.993   6.590 -0.2081 -0.1923  0.0019
  823POPE   C2B12302  10.425  13.166   6.899  0.2591 -0.0269  0.0656
  823POPE   C3B12303  10.511  13.309   7.257  0.0668 -0.0988  0.1997
  823POPE   C4B12304  10.594  13.429   7.765  0.0728  0.0373 -0.0290
  824POPE   NH312305   7.513  15.374   5.802  0.2846  0.1203 -0.0439
  824POPE   PO412306   7.132  15.514   5.964 -0.0900 -0.4355 -0.2672
  824POPE   GL112307   7.103  15.808   6.301 -0.0081 -0.0189 -0.1501
  824POPE   GL212308   7.217  16.167   6.280 -0.0893 -0.0122  0.2056
  824POPE   C1A12309   7.143  15.750   6.747  0.1216 -0.0488  0.0006
  824POPE   D2A12310   7.139  15.918   7.205 -0.0179  0.0777  0.2367
  824POPE   C3A12311   7.091  16.409   7.240  0.0767  0.0954  0.1025
  824POPE   C4A12312   6.913  16.817   7.455  0.0638  0.2032  0.1244
  824POPE   C1B12313   6.990  16.257   6.726 -0.0424  0.2023  0.5134
  824POPE   C2B12314   6.608  16.179   6.967  0.1284 -0.1313  0.0733
  824POPE   C3B12315   6.616  16.225   7.478 -0.0838  0.2075 -0.0357
  824POPE   C4B12316   6.480  16.679   7.594 -0.0383  0.1191 -0.1537
  825POPE   NH312317   4.000   0.577   5.581  0.0830 -0.0832  0.1608
  825POPE   PO412318   4.406   0.858   5.704 -0.0595 -0.1396  0.0150
  825POPE   GL112319   4.219   0.663   6.088 -0.1726  0.1827  0.0726
  825POPE   GL212320   4.010   0.433   6.096 -0.1973  0.0326  0.3728
  825POPE   C1A12321   4.479   0.498   6.404 -0.1850 -0.2955  0.0934
  825POPE   D2A12322   4.663   0.345   6.681 -0.0668 -0.0262  0.1839
  825POPE   C3A12323   4.530   0.341   7.063  0.0958  0.0401  0.0343
  825POPE   C4A12324   4.620   0.398   7.454  0.0591 -0.1593 -0.0616
  825POPE   C1B12325   4.059   0.332   6.456 -0.1664  0.3045 -0.1194
  825POPE   C2B12326   3.904   0.426   6.857 -0.0549 -0.0464 -0.1426
  825POPE   C3B12327   3.654   0.280   7.139 -0.0040 -0.1626  0.1697
  825POPE   C4B12328   3.573   0.003   7.481 -0.2150  0.3699 -0.0253
  826POPE   NH312329   6.712   7.252   6.372 -0.3545 -0.0456 -0.1028
  826POPE   PO412330   6.370   7.195   6.471  0.1071  0.0370  0.0968
  826POPE   GL112331   6.064   7.188   6.880  0.2561  0.1155  0.0032
  826POPE   GL212332   6.192   6.958   7.134  0.1335  0.1706  0.2231
  826POPE   C1A12333   5.915   7.449   7.143  0.0130 -0.3307  0.0620
  826POPE   D2A12334   5.867   7.418   7.625 -0.1985  0.0556 -0.2279
  826POPE   C3A12335   5.826   7.500   8.090 -0.0513  0.0694 -0.1345
  826POPE   C4A12336   6.039   7.410   8.466 -0.0610  0.0095  0.1577
  826POPE   C1B12337   6.259   6.887   7.570 -0.0095 -0.2865  0.0015
  826POPE   C2B12338   6.565   6.765   8.006 -0.1786 -0.2046 -0.1275
  826POPE   C3B12339   6.712   6.837   8.387 -0.0714 -0.1108 -0.2634
  826POPE   C4B12340   6.786   6.648   8.814 -0.0072 -0.0931 -0.0821
  827POPE   NH312341   2.089   2.777   6.398 -0.3470  0.0045  0.3246
  827POPE   PO412342   1.757   2.527   6.273 -0.0820  0.3076  0.0331
  827POPE   GL112343   1.959   2.359   6.633 -0.2194 -0.0466 -0.0801
  827POPE   GL212344   1.898   2.606   6.866  0.0883 -0.0046 -0.2773
  827POPE   C1A12345   2.139   2.054   6.996  0.0387 -0.0585 -0.0059
  827POPE   D2A12346   2.345   1.861   7.265 -0.0875  0.2548 -0.1837
  827POPE   C3A12347   2.761   1.818   7.319 -0.0037  0.0020  0.0504
  827POPE   C4A12348   3.160   1.720   7.636  0.2304 -0.1374 -0.0146
  827POPE   C1B12349   1.840   2.853   7.295  0.2884  0.3353 -0.1141
  827POPE   C2B12350   1.731   2.906   7.676  0.0217  0.0797 -0.1224
  827POPE   C3B12351   1.644   2.990   8.114  0.3371 -0.0436 -0.2576
  827POPE   C4B12352   1.679   3.140   8.476  0.1548  0.1311 -0.0317
  828POPE   NH312353   1.718  12.934   5.891 -0.0247  0.0787  0.5807
  828POPE   PO412354   1.286  12.792   6.001 -0.0667 -0.0157 -0.0587
  828POPE   GL112355   1.110  12.631   6.329 -0.1095 -0.0538 -0.2362
  828POPE   GL212356   1.176  12.237   6.406  0.3584  0.2325  0.0891
  828POPE   C1A12357   1.123  12.862   6.894 -0.1218 -0.1132 -0.0577
  828POPE   D2A12358   1.208  12.649   7.251  0.0654  0.2579 -0.2538
  828POPE   C3A12359   1.078  12.297   7.441 -0.0673 -0.0464 -0.0958
  828POPE   C4A12360   1.293  11.945   7.637 -0.1761  0.0824  0.0186
  828POPE   C1B12361   1.101  12.290   6.800 -0.1033  0.0032  0.0980
  828POPE   C2B12362   0.729  12.552   7.086  0.1430  0.3162 -0.2257
  828POPE   C3B12363   0.518  12.743   7.406 -0.1934 -0.3036  0.0612
  828POPE   C4B12364   0.572  13.008   7.836 -0.0449 -0.0803  0.0352
  829POPE   NH312365  17.453   2.074   6.589  0.2009  0.2358  0.2863
  829POPE   PO412366  17.131   2.188   6.523 -0.0154  0.1726 -0.1344
  829POPE   GL112367  16.838   2.223   6.796 -0.0932 -0.2799  0.0652
  829POPE   GL212368  16.651   2.505   6.682  0.0003 -0.0468  0.0806
  829POPE   C1A12369  16.758   2.214   7.265  0.0571  0.0465 -0.0085
  829POPE   D2A12370  16.771   2.114   7.629 -0.0611 -0.0614 -0.0192
  829POPE   C3A12371  16.940   1.905   7.876 -0.1012 -0.0279  0.0557
  829POPE   C4A12372  17.104   1.999   8.232  0.2429  0.2555 -0.0473
  829POPE   C1B12373  16.755   2.656   7.142 -0.1064 -0.0535  0.3139
  829POPE   C2B12374  17.029   2.567   7.538  0.1850 -0.3368  0.0421
  829POPE   C3B12375  17.234   2.317   7.867 -0.0077 -0.0594 -0.3101
  829POPE   C4B12376  17.187   2.528   8.231  0.1087 -0.1447 -0.0390
  830POPE   NH312377   2.931   0.443   6.068  0.1872  0.1066 -0.1575
  830POPE   PO412378   3.063   0.819   5.896  0.0008  0.2159 -0.0552
  830POPE   GL112379   3.122   0.895   6.376 -0.1530 -0.4122  0.2213
  830POPE   GL212380   3.052   0.596   6.530 -0.1106 -0.3760 -0.0909
  830POPE   C1A12381   3.308   1.086   6.743  0.2102 -0.0041  0.0616
  830POPE   D2A12382   3.696   0.961   6.945 -0.0154 -0.0915  0.2242
  830POPE   C3A12383   3.627   0.848   7.367 -0.0336  0.0204 -0.0483
  830POPE   C4A12384   3.716   0.489   7.640 -0.3319  0.0861 -0.2323
  830POPE   C1B12385   3.496   0.384   6.598  0.0229  0.0667  0.0861
  830POPE   C2B12386   3.768  -0.020   6.749 -0.0755 -0.3528  0.3398
  830POPE   C3B12387   4.234   0.033   6.934  0.0577  0.2884 -0.1817
  830POPE   C4B12388   4.582  -0.122   6.780 -0.1826  0.0191 -0.1879
  831POPE   NH312389   9.568   8.227   6.157  0.0153  0.1000  0.0612
  831POPE   PO412390   9.627   8.231   6.589 -0.0721  0.0325 -0.1434
  831POPE   GL112391   9.391   8.270   6.895  0.3796 -0.0129  0.1794
  831POPE   GL212392   9.134   8.567   6.944 -0.0238 -0.0380  0.3100
  831POPE   C1A12393   9.384   8.110   7.369 -0.3302 -0.0920 -0.1821
  831POPE   D2A12394   9.100   7.859   7.679  0.1345 -0.3239  0.0375
  831POPE   C3A12395   8.997   8.065   8.037  0.0210 -0.1615 -0.0056
  831POPE   C4A12396   8.923   8.148   8.465  0.1236  0.1686  0.0203
  831POPE   C1B12397   9.254   8.648   7.193 -0.0031 -0.3256 -0.0517
  831POPE   C2B12398   9.611   8.653   7.532 -0.0049 -0.0975  0.3073
  831POPE   C3B12399   9.490   8.546   7.910 -0.1461  0.1470 -0.0769
  831POPE   C4B12400   9.407   8.330   8.296 -0.2233  0.0781  0.0374
  832POPE   NH312401  15.030   1.119   5.502 -0.2156  0.1616 -0.1486
  832POPE   PO412402  14.792   0.778   5.580 -0.1486 -0.0471 -0.0898
  832POPE   GL112403  14.661   0.940   6.028  0.2903 -0.1906  0.1136
  832POPE   GL212404  14.463   1.087   6.196  0.6090  0.1842  0.0742
  832POPE   C1A12405  14.749   0.791   6.394 -0.0449 -0.2524  0.2277
  832POPE   D2A12406  14.861   0.565   6.777  0.0838  0.2102  0.1938
  832POPE   C3A12407  14.799   0.333   7.063  0.0481 -0.1705 -0.4945
  832POPE   C4A12408  15.007   0.049   7.266  0.0929  0.1639  0.1744
  832POPE   C1B12409  14.265   0.816   6.440 -0.2069 -0.2389 -0.2348
  832POPE   C2B12410  14.387   0.564   6.829 -0.3005 -0.0876 -0.2808
  832POPE   C3B12411  14.325   0.357   7.203  0.4115  0.2633 -0.0404
  832POPE   C4B12412  14.101   0.266   7.574 -0.0152 -0.0301  0.3519
  833POPE   NH312413   0.412  16.340   5.916 -0.2285  0.2139  0.1569
  833POPE   PO412414   0.752  16.215   6.193 -0.0046 -0.2139  0.0310
  833POPE   GL112415   0.935  16.355   6.591 -0.1009 -0.0389  0.0461
  833POPE   GL212416   1.222  16.405   6.699 -0.1054 -0.1878 -0.0810
  833POPE   C1A12417   0.864  16.406   7.060  0.1588 -0.0237  0.0520
  833POPE   D2A12418   0.844  16.239   7.373  0.0523  0.1510 -0.0379
  833POPE   C3A12419   1.027  16.355   7.897  0.1398 -0.0011 -0.3247
  833POPE   C4A12420   0.939  16.856   8.226 -0.1477  0.1059 -0.0171
  833POPE   C1B12421   1.332  16.481   7.038  0.3130 -0.0398  0.2703
  833POPE   C2B12422   1.256  16.460   7.477  0.3095  0.1328  0.0472
  833POPE   C3B12423   1.329  16.785   7.840  0.1765  0.1311  0.1381
  833POPE   C4B12424   1.470  16.851   8.231 -0.1389 -0.0866  0.0983
  834POPE   NH312425  13.081   2.204   6.388  0.1260 -0.2037  0.0746
  834POPE   PO412426  12.634   2.256   6.187 -0.1748  0.0120 -0.1455
  834POPE   GL112427  12.533   2.105   6.614  0.2024 -0.0676 -0.1636
  834POPE   GL212428  12.761   1.958   6.674  0.2834  0.3135 -0.0562
  834POPE   C1A12429  12.367   2.280   7.013 -0.3799 -0.3918  0.0388
  834POPE   D2A12430  12.280   2.308   7.501 -0.0488 -0.2978  0.1847
  834POPE   C3A12431  12.635   2.262   7.772  0.0427  0.1958  0.1890
  834POPE   C4A12432  12.919   2.581   8.022 -0.1407  0.1149 -0.0435
  834POPE   C1B12433  12.941   1.747   6.973 -0.0758  0.0343 -0.1280
  834POPE   C2B12434  13.056   1.548   7.361 -0.0224  0.1208  0.1931
  834POPE   C3B12435  13.085   1.478   7.730  0.1950  0.0548 -0.1353
  834POPE   C4B12436  13.192   1.357   8.150 -0.1918  0.2090  0.2459
  835POPE   NH312437   4.850   7.274   6.400 -0.0683  0.2025  0.0511
  835POPE   PO412438   4.347   7.079   6.433 -0.0919  0.0429 -0.1568
  835POPE   GL112439   4.098   7.139   6.730  0.1678  0.0772 -0.0229
  835POPE   GL212440   4.032   7.506   6.789 -0.0080 -0.0717 -0.0735
  835POPE   C1A12441   4.161   7.205   7.181  0.1451  0.1900  0.1918
  835POPE   D2A12442   4.181   7.492   7.548  0.0750 -0.0621  0.1293
  835POPE   C3A12443   4.306   7.355   7.943 -0.2392  0.0594 -0.1504
  835POPE   C4A12444   4.216   7.260   8.327  0.1680 -0.1494  0.1113
  835POPE   C1B12445   3.935   7.674   7.106  0.0330 -0.0522 -0.2185
  835POPE   C2B12446   3.711   7.707   7.462  0.1775  0.1753 -0.0027
  835POPE   C3B12447   3.710   7.846   7.787 -0.0332 -0.0256  0.1313
  835POPE   C4B12448   3.671   8.128   8.165  0.4800  0.2156 -0.0803
  836POPE   NH312449  13.704   5.457   6.076 -0.1115 -0.0255 -0.1684
  836POPE   PO412450  13.918   5.821   6.068  0.0676 -0.1107  0.2498
  836POPE   GL112451  14.128   5.631   6.458 -0.0900 -0.0666  0.1373
  836POPE   GL212452  14.518   5.689   6.545  0.2578  0.1218 -0.0665
  836POPE   C1A12453  14.028   5.458   6.800  0.2761 -0.0363  0.1030
  836POPE   D2A12454  14.049   5.537   7.298  0.1506 -0.2618  0.1672
  836POPE   C3A12455  14.258   5.269   7.543  0.1417  0.0504  0.0922
  836POPE   C4A12456  14.681   5.230   7.701 -0.1451  0.0150  0.2107
  836POPE   C1B12457  14.295   5.871   6.944 -0.1420  0.0261  0.2400
  836POPE   C2B12458  14.231   6.051   7.319 -0.2430  0.1378 -0.0190
  836POPE   C3B12459  13.950   6.239   7.600 -0.3301 -0.1566  0.0614
  836POPE   C4B12460  13.977   6.004   8.003  0.1349 -0.1150 -0.1244
  837POPE   NH312461  15.460  13.500   6.132  0.0719 -0.0819 -0.0577
  837POPE   PO412462  15.163  13.209   6.193 -0.0649 -0.0470  0.0823
  837POPE   GL112463  15.082  13.435   6.605 -0.1855 -0.0084  0.4729
  837POPE   GL212464  15.345  13.605   6.719 -0.1966  0.1174 -0.0774
  837POPE   C1A12465  14.845  13.575   6.974 -0.0936  0.0347  0.0030
  837POPE   D2A12466  14.657  13.660   7.302  0.1499  0.2089  0.2959
  837POPE   C3A12467  14.585  13.718   7.716 -0.4530 -0.1334 -0.1410
  837POPE   C4A12468  14.422  13.761   8.121 -0.0737  0.3635 -0.0626
  837POPE   C1B12469  15.331  13.622   7.182  0.2452 -0.1241 -0.3055
  837POPE   C2B12470  15.365  13.530   7.637  0.0943 -0.1829  0.0269
  837POPE   C3B12471  15.476  13.421   8.095  0.0634 -0.1121  0.1247
  837POPE   C4B12472  15.842  13.197   8.311 -0.3181 -0.2534 -0.0420
  838POPE   NH312473  11.607   3.749   6.195  0.1560 -0.2395 -0.1559
  838POPE   PO412474  11.977   3.946   6.003  0.0514 -0.1220 -0.0168
  838POPE   GL112475  12.059   4.135   6.359  0.0165  0.2391 -0.0134
  838POPE   GL212476  12.367   4.004   6.453  0.1014 -0.0881 -0.0327
  838POPE   C1A12477  12.219   4.394   6.738 -0.2576  0.0886 -0.0352
  838POPE   D2A12478  12.279   4.541   7.145  0.0394  0.2620 -0.0026
  838POPE   C3A12479  12.371   4.322   7.464 -0.1355  0.1699 -0.1718
  838POPE   C4A12480  12.034   4.259   7.853 -0.1934  0.1355  0.0326
  838POPE   C1B12481  12.470   3.975   6.817 -0.0199  0.1139 -0.2391
  838POPE   C2B12482  12.556   3.869   7.284 -0.0948  0.3278 -0.0928
  838POPE   C3B12483  12.669   3.753   7.629 -0.1556 -0.2779  0.0853
  838POPE   C4B12484  12.562   3.444   7.864  0.0542  0.0156  0.1184
  839POPE   NH312485  15.413  12.210   6.180 -0.2615  0.0889  0.0779
  839POPE   PO412486  15.038  12.393   6.175 -0.0380  0.0430 -0.1147
  839POPE   GL112487  15.005  12.388   6.543  0.0050  0.1053  0.1732
  839POPE   GL212488  15.096  12.126   6.708  0.1431  0.1775  0.3145
  839POPE   C1A12489  14.964  12.612   6.903  0.0362  0.1359  0.1786
  839POPE   D2A12490  15.004  12.656   7.383 -0.0592  0.0577 -0.2303
  839POPE   C3A12491  15.000  12.574   7.906  0.1058 -0.1939  0.2026
  839POPE   C4A12492  15.057  12.541   8.389  0.0042  0.1110  0.1250
  839POPE   C1B12493  15.205  12.271   7.108 -0.1526 -0.2466  0.1266
  839POPE   C2B12494  15.101  12.180   7.543 -0.4766 -0.1444  0.0370
  839POPE   C3B12495  14.736  12.055   7.825  0.0354 -0.0693  0.1501
  839POPE   C4B12496  14.457  11.973   8.163  0.0477 -0.0942 -0.2649
  840POPE   NH312497   7.496   0.260   6.218 -0.1392 -0.0375  0.1979
  840POPE   PO412498   7.142   0.598   6.307  0.1890  0.0849 -0.2121
  840POPE   GL112499   7.330   0.678   6.641  0.0140  0.0959 -0.0314
  840POPE   GL212500   7.607   0.495   6.702  0.0001  0.3127  0.2213
  840POPE   C1A12501   7.149   0.592   7.061  0.1378  0.3053  0.0991
  840POPE   D2A12502   6.999   0.662   7.495  0.0269 -0.0525  0.2007
  840POPE   C3A12503   6.734   0.477   7.809 -0.1034  0.3301 -0.0484
  840POPE   C4A12504   6.537   0.149   8.074  0.1160 -0.0656 -0.2902
  840POPE   C1B12505   7.843   0.394   7.054 -0.0884 -0.2065  0.3399
  840POPE   C2B12506   7.864   0.467   7.475  0.1102  0.0040 -0.0324
  840POPE   C3B12507   7.891   0.606   7.880 -0.2701 -0.1751 -0.1985
  840POPE   C4B12508   8.074   0.534   8.247  0.0370 -0.2027 -0.2483
  841POPE   NH312509  13.285   8.456   6.286  0.0364 -0.0559  0.2451
  841POPE   PO412510  13.422   8.086   6.268 -0.1349 -0.0859 -0.0807
  841POPE   GL112511  13.425   7.740   6.620 -0.2634  0.1763  0.0515
  841POPE   GL212512  13.593   7.541   6.698 -0.3991  0.0974  0.4022
  841POPE   C1A12513  13.329   7.922   6.964 -0.0686  0.3043 -0.1620
  841POPE   D2A12514  13.242   8.286   7.412  0.2422  0.3301 -0.2469
  841POPE   C3A12515  13.331   8.048   7.756 -0.0912  0.1099  0.1006
  841POPE   C4A12516  13.698   7.936   7.960 -0.1619  0.1817 -0.2290
  841POPE   C1B12517  13.632   7.345   6.920 -0.2232 -0.0975 -0.0136
  841POPE   C2B12518  13.578   7.246   7.269 -0.0717  0.2148 -0.2345
  841POPE   C3B12519  13.508   7.099   7.652  0.4137 -0.0542  0.1282
  841POPE   C4B12520  13.606   6.910   8.072  0.0708  0.0116 -0.1030
  842POPE   NH312521  16.885  12.913   6.156  0.1446 -0.1374 -0.0649
  842POPE   PO412522  16.483  13.056   6.140 -0.0705  0.2018  0.1910
  842POPE   GL112523  16.152  13.109   6.498  0.0834 -0.3183  0.1457
  842POPE   GL212524  16.003  12.792   6.576  0.0255 -0.1037  0.3540
  842POPE   C1A12525  16.174  13.182   6.878  0.1300 -0.0329  0.0082
  842POPE   D2A12526  16.239  13.541   7.248 -0.0096  0.0891  0.0922
  842POPE   C3A12527  16.347  13.419   7.607  0.3491 -0.0143 -0.1098
  842POPE   C4A12528  16.317  13.396   8.119 -0.1204  0.1800 -0.1810
  842POPE   C1B12529  15.968  12.803   7.044 -0.4452  0.1428 -0.1305
  842POPE   C2B12530  15.957  12.640   7.439  0.2719  0.0108  0.2424
  842POPE   C3B12531  15.932  12.404   7.791 -0.1276  0.1378  0.0272
  842POPE   C4B12532  16.150  12.293   8.196  0.2947  0.1816  0.0273
  843POPE   NH312533   2.672   2.107   6.176  0.2496 -0.0369  0.0414
  843POPE   PO412534   3.160   1.960   6.180 -0.0679  0.0069  0.2050
  843POPE   GL112535   3.044   2.048   6.520 -0.0318  0.0731  0.0663
  843POPE   GL212536   2.959   2.413   6.628  0.1222 -0.1162  0.4142
  843POPE   C1A12537   3.009   1.992   6.866  0.0844 -0.1265  0.0915
  843POPE   D2A12538   3.323   1.946   7.240  0.2771  0.0433  0.0642
  843POPE   C3A12539   3.677   1.865   7.488 -0.3318 -0.0378 -0.2183
  843POPE   C4A12540   3.816   1.886   7.933  0.3123 -0.2971 -0.1719
  843POPE   C1B12541   3.127   2.399   7.090 -0.0767 -0.0899  0.2355
  843POPE   C2B12542   3.261   2.346   7.594 -0.0624  0.0350  0.1531
  843POPE   C3B12543   3.286   2.142   7.896 -0.2521  0.0445  0.0192
  843POPE   C4B12544   3.225   1.850   8.225  0.0997 -0.2499 -0.1354
  844POPE   NH312545  14.314  17.254   6.011  0.2284  0.2422 -0.2746
  844POPE   PO412546  14.593  17.483   5.675  0.2270  0.1440  0.2190
  844POPE   GL112547  14.821  17.733   5.965  0.0635 -0.0328 -0.0737
  844POPE   GL212548  14.507  17.764   6.200 -0.1852  0.2838 -0.1265
  844POPE   C1A12549  15.186  17.990   6.127 -0.0049 -0.0328 -0.0408
  844POPE   D2A12550  15.639  18.143   6.047  0.0540  0.0837  0.4092
  844POPE   C3A12551  15.895  18.392   6.235 -0.0301 -0.0706  0.1565
  844POPE   C4A12552  15.724  18.726   6.557 -0.0606 -0.3843 -0.1915
  844POPE   C1B12553  14.430  17.892   6.600 -0.0153 -0.0955 -0.2620
  844POPE   C2B12554  14.536  17.866   6.938  0.2972 -0.2047 -0.0607
  844POPE   C3B12555  14.503  17.803   7.313 -0.0723  0.0198  0.0594
  844POPE   C4B12556  14.736  17.778   7.677  0.2280 -0.2868 -0.1648
  845POPE   NH312557   8.303   8.569   6.302 -0.0444  0.0269  0.2848
  845POPE   PO412558   8.688   8.687   6.189 -0.2584 -0.1883 -0.2643
  845POPE   GL112559   8.975   8.902   6.449  0.1126  0.1786  0.2055
  845POPE   GL212560   9.315   8.897   6.610  0.1507  0.2020 -0.1920
  845POPE   C1A12561   8.804   9.037   6.879 -0.0680  0.2185  0.0101
  845POPE   D2A12562   8.845   9.082   7.271 -0.1154 -0.4306  0.2365
  845POPE   C3A12563   9.070   8.947   7.645  0.0853  0.0303 -0.0851
  845POPE   C4A12564   9.436   9.079   7.838 -0.2059 -0.2613 -0.1725
  845POPE   C1B12565   9.288   9.119   6.934  0.0919  0.1181 -0.2356
  845POPE   C2B12566   9.544   9.159   7.254  0.2532 -0.0847  0.0501
  845POPE   C3B12567   9.848   9.473   7.326  0.2319  0.2779 -0.2104
  845POPE   C4B12568  10.268   9.509   7.168  0.2110 -0.2420  0.0384
  846POPE   NH312569   3.573  15.838   6.106  0.3525 -0.2672  0.3420
  846POPE   PO412570   3.484  15.400   6.105 -0.2726  0.0605  0.2234
  846POPE   GL112571   3.337  15.435   6.452 -0.0320 -0.0165  0.1410
  846POPE   GL212572   3.033  15.326   6.417  0.3734  0.1290 -0.0919
  846POPE   C1A12573   3.207  15.522   6.912  0.0813 -0.2450  0.2528
  846POPE   D2A12574   3.153  15.636   7.318  0.1696 -0.2234 -0.4356
  846POPE   C3A12575   2.810  15.690   7.600 -0.2491 -0.0644  0.2590
  846POPE   C4A12576   2.470  15.751   7.939 -0.2393 -0.0692  0.2064
  846POPE   C1B12577   2.749  15.316   6.684 -0.1789 -0.2071 -0.0808
  846POPE   C2B12578   2.380  15.419   6.955 -0.1740 -0.0174  0.0926
  846POPE   C3B12579   2.312  15.288   7.365  0.0127  0.2122  0.0382
  846POPE   C4B12580   2.590  15.251   7.737 -0.0392  0.1860  0.0462
  847POPE   NH312581  14.369   6.064   6.176  0.4262  0.1421  0.0032
  847POPE   PO412582  14.519   6.465   6.198  0.1758  0.3575  0.3294
  847POPE   GL112583  14.335   6.251   6.611 -0.1850 -0.0214 -0.1329
  847POPE   GL212584  14.640   6.152   6.720  0.1107 -0.0167  0.2041
  847POPE   C1A12585  14.349   6.534   6.985  0.0031  0.3009  0.1897
  847POPE   D2A12586  14.246   6.560   7.368  0.0029 -0.0396 -0.0083
  847POPE   C3A12587  14.448   6.402   7.570  0.2272 -0.0633 -0.0813
  847POPE   C4A12588  14.590   6.197   7.767 -0.2640 -0.3733  0.0054
  847POPE   C1B12589  14.727   6.149   7.089 -0.1314  0.1458 -0.1224
  847POPE   C2B12590  14.897   5.945   7.464  0.0800  0.0373 -0.1346
  847POPE   C3B12591  14.783   5.745   7.811 -0.1270  0.0955 -0.0776
  847POPE   C4B12592  14.331   5.782   7.744 -0.2093  0.0238  0.1219
  848POPE   NH312593   8.167   9.637   5.912  0.1799  0.1632 -0.4880
  848POPE   PO412594   7.833   9.853   6.196 -0.2014 -0.3400 -0.0244
  848POPE   GL112595   7.561   9.641   6.491  0.0887  0.3516 -0.1073
  848POPE   GL212596   7.575   9.307   6.674 -0.1336 -0.1408 -0.1972
  848POPE   C1A12597   7.285   9.639   6.930 -0.0438  0.0755 -0.0268
  848POPE   D2A12598   7.053   9.833   7.218  0.1196 -0.0970 -0.0494
  848POPE   C3A12599   6.941   9.575   7.645 -0.0259 -0.0539  0.0119
  848POPE   C4A12600   6.840   9.575   8.121 -0.0041  0.0366  0.0517
  848POPE   C1B12601   7.639   9.340   7.159  0.0980 -0.0552 -0.1591
  848POPE   C2B12602   7.388   9.407   7.520 -0.0437 -0.1240 -0.0328
  848POPE   C3B12603   7.418   9.666   7.840 -0.1583  0.1585  0.0333
  848POPE   C4B12604   7.345   9.990   8.202  0.2622 -0.1819 -0.0119
  849POPE   NH312605   4.030   7.522   6.324 -0.2204  0.0465 -0.1281
  849POPE   PO412606   3.597   7.533   6.267 -0.1644 -0.0841 -0.0300
  849POPE   GL112607   3.538   7.455   6.650 -0.3586  0.0577  0.1341
  849POPE   GL212608   3.580   7.141   6.781  0.2403 -0.1363  0.0509
  849POPE   C1A12609   3.470   7.557   7.089 -0.1306  0.1888 -0.0173
  849POPE   D2A12610   3.224   7.748   7.413  0.2326  0.0102 -0.2448
  849POPE   C3A12611   3.204   7.603   7.848 -0.1858  0.0360  0.0433
  849POPE   C4A12612   3.036   7.370   8.214  0.0431 -0.0149  0.2381
  849POPE   C1B12613   3.691   7.045   7.142 -0.2872 -0.0233 -0.2676
  849POPE   C2B12614   3.805   7.102   7.520 -0.2243 -0.5366  0.2713
  849POPE   C3B12615   3.664   7.379   7.953 -0.2477 -0.0558  0.0083
  849POPE   C4B12616   3.511   7.654   8.242  0.0947 -0.0182  0.1910
  850POPE   NH312617  12.389   0.086   5.987 -0.0407  0.1859  0.1998
  850POPE   PO412618  12.552   0.493   5.900  0.0010  0.2973 -0.0966
  850POPE   GL112619  12.677   0.365   6.279 -0.2312  0.0679 -0.2325
  850POPE   GL212620  12.482   0.035   6.507 -0.1357 -0.2547  0.0171
  850POPE   C1A12621  12.799   0.510   6.635  0.1968  0.0275 -0.2430
  850POPE   D2A12622  12.812   0.669   7.082  0.0446 -0.1231  0.5304
  850POPE   C3A12623  12.764   0.560   7.513 -0.0947 -0.2361 -0.0577
  850POPE   C4A12624  12.805   0.519   7.934 -0.0218 -0.1110  0.2042
  850POPE   C1B12625  12.582   0.168   6.930  0.3149 -0.1567  0.1004
  850POPE   C2B12626  12.654   0.068   7.363 -0.1634  0.3906  0.0479
  850POPE   C3B12627  12.601   0.043   7.838  0.0244 -0.2760 -0.0111
  850POPE   C4B12628  12.423  -0.260   8.314 -0.0816 -0.1035 -0.0141
  851YOPE   NH312629   0.615   2.202   6.173 -0.0369  0.0466  0.1808
  851YOPE   PO412630   0.840   2.530   6.278 -0.1226  0.0380  0.0079
  851YOPE   GL112631   1.084   2.465   6.648 -0.1425 -0.1065  0.0620
  851YOPE   GL212632   1.427   2.450   6.660  0.2077  0.1545 -0.1003
  851YOPE   C1A12633   1.114   2.071   6.954  0.4468  0.1649  0.1096
  851YOPE   D2A12634   1.251   1.767   7.315  0.0311  0.0172 -0.0044
  851YOPE   C3A12635   1.241   2.048   7.596  0.1941 -0.1037  0.1461
  851YOPE   C4A12636   1.486   2.123   7.902 -0.1532 -0.2240 -0.2361
  851YOPE   C1B12637   1.685   2.052   6.842 -0.2129 -0.0144 -0.0181
  851YOPE   C2B12638   1.746   1.813   7.145  0.1432 -0.3005  0.1832
  851YOPE   D3B12639   1.988   1.539   7.535  0.3126 -0.1838  0.3867
  851YOPE   C4B12640   2.326   1.646   7.812  0.1740 -0.2583  0.4464
  852YOPE   NH312641  15.432   8.571   6.243  0.1647 -0.0285  0.1475
  852YOPE   PO412642  15.715   8.230   6.316 -0.3262 -0.0083 -0.1039
  852YOPE   GL112643  15.574   8.367   6.689  0.2077 -0.1457  0.0309
  852YOPE   GL212644  15.548   8.722   6.679  0.2781 -0.1914  0.1172
  852YOPE   C1A12645  15.712   8.160   7.019 -0.0967  0.0182  0.1059
  852YOPE   D2A12646  15.552   7.924   7.397 -0.0192 -0.2076  0.0221
  852YOPE   C3A12647  15.453   8.022   7.861 -0.2207 -0.3001  0.1517
  852YOPE   C4A12648  15.474   8.321   8.147  0.0346 -0.1478  0.0146
  852YOPE   C1B12649  15.688   8.632   7.149 -0.0464  0.2417  0.0688
  852YOPE   C2B12650  16.032   8.694   7.346  0.1761 -0.0678 -0.0210
  852YOPE   D3B12651  16.348   8.416   7.567  0.0130  0.2853 -0.0819
  852YOPE   C4B12652  16.471   7.971   7.800  0.1206  0.0241 -0.0403
  853YOPE   NH312653   7.123  14.482   6.106  0.2337 -0.1113 -0.1512
  853YOPE   PO412654   7.384  14.790   5.959 -0.0104  0.0918 -0.1543
  853YOPE   GL112655   7.196  15.043   6.137 -0.1282  0.0465  0.0661
  853YOPE   GL212656   7.052  14.849   6.439 -0.0434  0.0576  0.0800
  853YOPE   C1A12657   7.411  15.234   6.550  0.1905 -0.2514  0.2653
  853YOPE   D2A12658   7.855  15.232   6.615 -0.1360  0.0050 -0.2481
  853YOPE   C3A12659   7.911  15.342   7.001  0.0336  0.1167  0.1829
  853YOPE   C4A12660   8.042  15.088   7.374  0.0142 -0.2945  0.2356
  853YOPE   C1B12661   7.270  14.696   6.911  0.1193  0.0173  0.0229
  853YOPE   C2B12662   7.298  14.882   7.274 -0.0267  0.2149  0.1799
  853YOPE   D3B12663   7.345  14.787   7.676 -0.0246  0.0071  0.0382
  853YOPE   C4B12664   7.407  15.049   8.040  0.1149 -0.1474  0.0282
  854YOPE   NH312665   3.801  12.297   6.110 -0.1847  0.0887 -0.0314
  854YOPE   PO412666   4.216  12.295   5.913  0.1498  0.1010 -0.0037
  854YOPE   GL112667   4.332  12.144   6.226 -0.0809  0.0326 -0.2473
  854YOPE   GL212668   4.070  11.865   6.264  0.0180 -0.1804  0.4382
  854YOPE   C1A12669   4.207  12.031   6.691 -0.0064 -0.2057  0.2128
  854YOPE   D2A12670   3.915  11.781   6.794 -0.0633 -0.0322  0.1454
  854YOPE   C3A12671   3.940  11.659   7.326 -0.0005 -0.1769 -0.3199
  854YOPE   C4A12672   3.983  11.764   7.752  0.2266 -0.0711  0.2424
  854YOPE   C1B12673   4.356  11.549   6.395  0.0601 -0.0525 -0.0223
  854YOPE   C2B12674   4.683  11.511   6.692 -0.0976  0.1110  0.0467
  854YOPE   D3B12675   4.932  11.101   6.863  0.1074 -0.0775  0.0763
  854YOPE   C4B12676   5.202  10.945   7.092 -0.2927  0.0832 -0.0214
  855YOPE   NH312677  13.446   3.700   5.982 -0.0658 -0.0122  0.2092
  855YOPE   PO412678  13.854   3.973   6.006 -0.2450  0.0948 -0.0320
  855YOPE   GL112679  13.685   3.907   6.363  0.1833  0.1940 -0.0842
  855YOPE   GL212680  13.900   3.889   6.595 -0.0197  0.2558  0.0105
  855YOPE   C1A12681  13.327   4.128   6.643  0.0748 -0.1116  0.3055
  855YOPE   D2A12682  13.343   4.282   6.970  0.1246 -0.3183  0.1758
  855YOPE   C3A12683  13.685   4.662   6.771  0.0912  0.0394  0.4337
  855YOPE   C4A12684  13.618   5.131   6.706 -0.1207  0.1738  0.1231
  855YOPE   C1B12685  13.894   4.148   6.959  0.4109 -0.0159 -0.1485
  855YOPE   C2B12686  13.697   4.342   7.365  0.1244  0.3233 -0.1536
  855YOPE   D3B12687  13.743   4.584   7.714 -0.3058 -0.0187  0.3351
  855YOPE   C4B12688  13.668   4.765   8.108  0.0116  0.0755  0.1915
  856YOPE   NH312689  12.973  14.545   5.989  0.0487  0.1620 -0.0748
  856YOPE   PO412690  13.296  14.738   6.056  0.1516  0.1580 -0.1472
  856YOPE   GL112691  13.243  14.470   6.414 -0.0708  0.0754 -0.0591
  856YOPE   GL212692  13.463  14.570   6.546 -0.0563 -0.1504  0.0355
  856YOPE   C1A12693  13.168  14.276   6.797  0.2389 -0.1804 -0.0941
  856YOPE   D2A12694  13.285  14.286   7.259 -0.2035 -0.1966  0.2486
  856YOPE   C3A12695  13.244  14.022   7.588 -0.2071  0.0421  0.2823
  856YOPE   C4A12696  13.316  13.603   7.839  0.2548  0.0188 -0.1606
  856YOPE   C1B12697  13.546  14.648   6.998  0.1726  0.1523  0.1610
  856YOPE   C2B12698  13.767  14.861   7.277 -0.0214 -0.0655 -0.1005
  856YOPE   D3B12699  13.747  14.922   7.717 -0.0460 -0.0881 -0.0367
  856YOPE   C4B12700  13.628  14.692   8.167 -0.1109  0.1288  0.0376
  857YOPE   NH312701   3.150  10.338   6.069 -0.0787 -0.0230  0.0349
  857YOPE   PO412702   3.091  10.790   5.899 -0.0723  0.1106  0.0839
  857YOPE   GL112703   3.114  10.776   6.368  0.1784  0.0050 -0.0229
  857YOPE   GL212704   3.012  10.466   6.580  0.2746 -0.1612  0.1140
  857YOPE   C1A12705   3.263  10.859   6.715 -0.2127  0.0145 -0.3208
  857YOPE   D2A12706   3.446  10.782   7.155  0.1279 -0.1229 -0.1916
  857YOPE   C3A12707   3.228  10.694   7.465 -0.2741  0.1661  0.1750
  857YOPE   C4A12708   3.178  10.581   7.895  0.1238 -0.2039 -0.4717
  857YOPE   C1B12709   2.810  10.170   6.776  0.0313  0.0444 -0.0554
  857YOPE   C2B12710   2.810   9.968   7.167  0.0266 -0.0253 -0.2042
  857YOPE   D3B12711   2.508   9.712   7.331 -0.0344 -0.0543  0.2342
  857YOPE   C4B12712   2.095   9.426   7.487  0.0386 -0.0016  0.0265
  858YOPE   NH312713  10.421  15.772   6.024 -0.0975 -0.1065 -0.0737
  858YOPE   PO412714  10.316  15.389   6.059  0.1827 -0.0859  0.0690
  858YOPE   GL112715  10.187  15.553   6.500 -0.5010  0.1412 -0.0302
  858YOPE   GL212716  10.183  15.884   6.490 -0.0121  0.1044 -0.1754
  858YOPE   C1A12717  10.086  15.579   6.889 -0.1404  0.1741 -0.2607
  858YOPE   D2A12718  10.066  15.353   7.168 -0.0430  0.1596  0.0941
  858YOPE   C3A12719  10.381  15.083   7.455  0.2391 -0.0775 -0.0800
  858YOPE   C4A12720  10.529  14.854   7.756  0.1511  0.1002 -0.1834
  858YOPE   C1B12721  10.357  16.258   6.580 -0.1611  0.1169 -0.0864
  858YOPE   C2B12722  10.271  16.498   6.999 -0.0175 -0.0644 -0.0786
  858YOPE   D3B12723  10.221  16.425   7.425  0.0207 -0.1502 -0.0474
  858YOPE   C4B12724  10.161  16.170   7.773 -0.0453 -0.4006 -0.1769
  859YOPE   NH312725  15.766  14.288   6.295 -0.4218  0.0207 -0.0357
  859YOPE   PO412726  15.492  14.596   6.349 -0.1051  0.3097 -0.0370
  859YOPE   GL112727  15.379  14.930   6.541 -0.0263  0.0600 -0.1475
  859YOPE   GL212728  15.104  14.993   6.581  0.2889 -0.0921  0.1795
  859YOPE   C1A12729  15.528  14.996   6.958  0.0179 -0.0551  0.2006
  859YOPE   D2A12730  15.482  15.068   7.331 -0.3399  0.1628  0.2320
  859YOPE   C3A12731  15.188  15.104   7.410  0.1865 -0.1945 -0.0437
  859YOPE   C4A12732  14.815  15.473   7.279 -0.0290  0.0815  0.1272
  859YOPE   C1B12733  14.908  14.914   6.996 -0.2473 -0.0704  0.2302
  859YOPE   C2B12734  14.686  14.996   7.319 -0.1648  0.1238 -0.0600
  859YOPE   D3B12735  14.408  15.233   7.593 -0.2865  0.2848  0.1237
  859YOPE   C4B12736  14.221  15.420   7.865 -0.1293 -0.0190 -0.3321
  860YOPE   NH312737   9.461  11.431   5.976  0.0212 -0.2651 -0.0948
  860YOPE   PO412738   9.461  11.894   5.827  0.3582  0.1109  0.1592
  860YOPE   GL112739   9.636  11.955   6.158 -0.0918 -0.1282  0.0668
  860YOPE   GL212740   9.512  11.729   6.387 -0.2691  0.2042 -0.1168
  860YOPE   C1A12741   9.656  12.201   6.618  0.0872 -0.2976 -0.1198
  860YOPE   D2A12742   9.602  12.315   7.052 -0.1514 -0.1012 -0.2042
  860YOPE   C3A12743   9.449  12.020   7.441 -0.1694 -0.1156 -0.2239
  860YOPE   C4A12744   9.477  12.116   7.864  0.0397  0.0070 -0.2913
  860YOPE   C1B12745   9.215  11.884   6.706 -0.3632 -0.1565 -0.0023
  860YOPE   C2B12746   9.091  12.129   7.128 -0.0656  0.0316 -0.2501
  860YOPE   D3B12747   9.071  12.355   7.533 -0.1047 -0.0601  0.3188
  860YOPE   C4B12748   9.128  12.406   8.052 -0.0426  0.2583  0.2347
  861YOPE   NH312749   6.964  10.716   5.994 -0.1143 -0.0338 -0.1686
  861YOPE   PO412750   7.179  10.969   5.836  0.0028 -0.0377 -0.2483
  861YOPE   GL112751   7.139  11.315   6.049  0.0151 -0.2974  0.2239
  861YOPE   GL212752   6.996  11.187   6.312 -0.0923 -0.0458 -0.0445
  861YOPE   C1A12753   7.168  11.588   6.453  0.0451 -0.0036 -0.3605
  861YOPE   D2A12754   7.278  12.044   6.671  0.2030  0.1022 -0.1929
  861YOPE   C3A12755   7.836  12.165   6.761  0.0586 -0.2602  0.2251
  861YOPE   C4A12756   8.285  12.280   6.712  0.0192 -0.0955  0.0286
  861YOPE   C1B12757   7.122  11.027   6.662 -0.0993  0.2452  0.1692
  861YOPE   C2B12758   7.191  11.115   7.019  0.1775 -0.0595  0.4457
  861YOPE   D3B12759   7.252  11.075   7.345  0.1789 -0.3003 -0.0563
  861YOPE   C4B12760   7.177  11.094   7.745  0.0367  0.0711 -0.2112
  862YOPE   NH312761  13.033   6.851   6.329  0.0918  0.0223 -0.1498
  862YOPE   PO412762  12.897   7.308   6.296  0.0321  0.0103  0.1649
  862YOPE   GL112763  13.174   7.287   6.695 -0.0418 -0.0544  0.2964
  862YOPE   GL212764  13.287   7.051   6.711 -0.0050  0.1341 -0.0391
  862YOPE   C1A12765  13.178   7.456   7.071 -0.2152  0.1079  0.2422
  862YOPE   D2A12766  13.284   7.649   7.435 -0.2120  0.2030  0.0445
  862YOPE   C3A12767  13.340   7.535   7.882 -0.1702 -0.0191 -0.1011
  862YOPE   C4A12768  13.239   7.207   8.196  0.1809  0.1180  0.0342
  862YOPE   C1B12769  13.172   6.859   7.113 -0.3280  0.1231 -0.1765
  862YOPE   C2B12770  13.202   6.719   7.557  0.0028  0.0347 -0.1293
  862YOPE   D3B12771  13.132   6.770   7.994  0.0494  0.3113 -0.1833
  862YOPE   C4B12772  13.276   6.489   8.318 -0.1676 -0.0023 -0.2840
  863YOPE   NH312773   7.592   4.717   6.132  0.2394  0.0764  0.2195
  863YOPE   PO412774   7.511   4.996   6.325 -0.0521  0.0705 -0.2662
  863YOPE   GL112775   7.325   4.762   6.597  0.3196 -0.2018 -0.0702
  863YOPE   GL212776   7.203   4.912   6.696  0.0488  0.3005  0.2611
  863YOPE   C1A12777   7.486   4.681   7.030  0.0508  0.1622 -0.0076
  863YOPE   D2A12778   7.728   4.618   7.430  0.0736 -0.0166  0.1485
  863YOPE   C3A12779   7.631   4.631   7.897  0.0236 -0.2497  0.0539
  863YOPE   C4A12780   8.031   4.473   8.043 -0.1621 -0.1140 -0.4296
  863YOPE   C1B12781   7.249   5.078   7.074  0.1835 -0.2290  0.1136
  863YOPE   C2B12782   7.171   4.897   7.496  0.0775 -0.0358 -0.1083
  863YOPE   D3B12783   7.129   4.841   7.959  0.3924  0.1197 -0.2533
  863YOPE   C4B12784   7.253   4.689   8.269 -0.1414 -0.1940 -0.2564
  864YOPE   NH312785   6.230  14.712   6.057 -0.2837 -0.0955  0.1206
  864YOPE   PO412786   6.647  14.773   6.187  0.0587  0.0213  0.0440
  864YOPE   GL112787   6.547  14.520   6.384 -0.0266  0.0457 -0.2157
  864YOPE   GL212788   6.805  14.455   6.600  0.3707 -0.1439  0.0776
  864YOPE   C1A12789   6.329  14.457   6.844 -0.0477  0.1185  0.3091
  864YOPE   D2A12790   6.418  14.389   7.327 -0.0249 -0.0032  0.2332
  864YOPE   C3A12791   6.429  14.269   7.706 -0.0667 -0.1582 -0.1075
  864YOPE   C4A12792   6.511  14.255   8.142  0.1751 -0.0582 -0.1471
  864YOPE   C1B12793   6.757  14.261   6.986  0.0907 -0.0250 -0.0124
  864YOPE   C2B12794   6.947  14.032   7.419 -0.1282  0.0188  0.2646
  864YOPE   D3B12795   6.918  13.966   7.898 -0.0956  0.4491  0.1691
  864YOPE   C4B12796   6.934  14.043   8.320  0.1619 -0.1749  0.0554
  865YOPE   NH312797   6.539  16.596   5.999 -0.2464  0.1657  0.1970
  865YOPE   PO412798   6.074  16.554   5.813 -0.2122  0.1822  0.2499
  865YOPE   GL112799   5.853  16.363   6.185 -0.2444 -0.1836  0.0278
  865YOPE   GL212800   5.616  16.632   6.271 -0.3436 -0.1152  0.3592
  865YOPE   C1A12801   5.860  16.292   6.610  0.0530  0.1034 -0.1142
  865YOPE   D2A12802   5.738  16.218   7.075 -0.2530  0.0854  0.1807
  865YOPE   C3A12803   5.787  15.910   7.420  0.0014  0.1527 -0.0969
  865YOPE   C4A12804   5.955  15.476   7.519 -0.3216  0.0837  0.0892
  865YOPE   C1B12805   5.472  16.682   6.697 -0.0509  0.1332 -0.0825
  865YOPE   C2B12806   5.376  16.690   7.131 -0.0176  0.4781  0.0424
  865YOPE   D3B12807   5.520  16.821   7.592  0.0017 -0.1449 -0.0629
  865YOPE   C4B12808   5.426  16.878   8.061 -0.1588 -0.2534  0.0668
  866YOPE   NH312809   4.741  13.645   5.891  0.0708  0.1434  0.1843
  866YOPE   PO412810   4.327  13.678   5.788  0.1159 -0.1170 -0.0904
  866YOPE   GL112811   4.263  13.759   6.304  0.2041  0.0275  0.0226
  866YOPE   GL212812   4.664  13.793   6.437  0.0648 -0.0071 -0.3505
  866YOPE   C1A12813   4.081  14.058   6.682  0.2686 -0.0036  0.0968
  866YOPE   D2A12814   3.951  14.487   6.634 -0.0463 -0.4849 -0.3795
  866YOPE   C3A12815   3.701  14.626   6.900  0.1267  0.0483 -0.0977
  866YOPE   C4A12816   3.649  14.439   7.300  0.0721  0.1537 -0.2387
  866YOPE   C1B12817   4.881  13.988   6.807 -0.0408  0.1371  0.1780
  866YOPE   C2B12818   4.994  14.012   7.289  0.1389  0.0662 -0.1003
  866YOPE   D3B12819   5.082  14.175   7.656 -0.2273 -0.4198 -0.0282
  866YOPE   C4B12820   5.227  14.298   8.047  0.1433  0.1084 -0.0630
  867YOPE   NH312821   1.526  10.688   6.401 -0.0933 -0.2037  0.1437
  867YOPE   PO412822   1.116  10.963   6.262  0.0325  0.1424  0.2939
  867YOPE   GL112823   1.227  11.000   6.711  0.2377  0.0499  0.2805
  867YOPE   GL212824   1.214  10.685   6.843  0.1490  0.1910 -0.0277
  867YOPE   C1A12825   1.071  11.100   7.136 -0.0714 -0.1035  0.2994
  867YOPE   D2A12826   1.115  11.027   7.623  0.2306  0.0796 -0.1632
  867YOPE   C3A12827   1.155  10.710   7.954 -0.1404  0.0739 -0.1880
  867YOPE   C4A12828   1.144  10.534   8.326 -0.1504 -0.0796 -0.1047
  867YOPE   C1B12829   1.138  10.601   7.357  0.0914 -0.1801  0.2031
  867YOPE   C2B12830   1.280  10.305   7.658 -0.1097 -0.4960 -0.5213
  867YOPE   D3B12831   1.602   9.960   7.698 -0.1222  0.3789 -0.2617
  867YOPE   C4B12832   1.687   9.586   7.830  0.2427 -0.3116 -0.0835
  868YOPE   NH312833   7.679  11.045   5.832  0.0925  0.1626  0.0452
  868YOPE   PO412834   7.567  11.449   5.781  0.1685 -0.3161  0.0404
  868YOPE   GL112835   7.625  11.409   6.203 -0.0071  0.0940 -0.4829
  868YOPE   GL212836   7.535  11.198   6.374  0.0920 -0.0328  0.0297
  868YOPE   C1A12837   7.665  11.656   6.546 -0.1557 -0.1290  0.0644
  868YOPE   D2A12838   7.661  11.763   7.003 -0.2035 -0.3950  0.0917
  868YOPE   C3A12839   7.382  12.094   7.224 -0.1150  0.0093  0.2705
  868YOPE   C4A12840   7.422  12.201   7.649  0.2462 -0.0591  0.0435
  868YOPE   C1B12841   7.683  11.160   6.776 -0.0865 -0.0081  0.0811
  868YOPE   C2B12842   7.885  11.300   7.235  0.1543  0.2568  0.0329
  868YOPE   D3B12843   7.657  11.264   7.663 -0.0334  0.0823 -0.0256
  868YOPE   C4B12844   7.560  10.989   8.016  0.2505 -0.3609  0.1710
  869YOPE   NH312845   6.641   1.781   6.024 -0.1284  0.0992  0.0129
  869YOPE   PO412846   6.972   1.504   6.146  0.1862  0.0628 -0.5374
  869YOPE   GL112847   7.131   1.641   6.535  0.0868  0.0402  0.1274
  869YOPE   GL212848   7.465   1.574   6.586 -0.3409  0.2075  0.1682
  869YOPE   C1A12849   7.152   1.592   7.020 -0.1931 -0.0932 -0.0008
  869YOPE   D2A12850   6.839   1.455   7.213 -0.1778  0.0195 -0.1245
  869YOPE   C3A12851   6.649   1.561   7.611 -0.3370  0.1141  0.1137
  869YOPE   C4A12852   6.276   1.370   7.877  0.3598  0.2184 -0.5695
  869YOPE   C1B12853   7.551   1.266   6.955  0.0332  0.2523 -0.1749
  869YOPE   C2B12854   7.589   1.330   7.389  0.2812  0.1434  0.2723
  869YOPE   D3B12855   7.646   1.655   7.649 -0.3613  0.0536  0.1862
  869YOPE   C4B12856   7.897   1.574   7.965 -0.0751  0.0200  0.3115
  870YOPE   NH312857   5.704   7.892   6.364  0.2659  0.2686 -0.2026
  870YOPE   PO412858   6.064   7.982   6.291 -0.1609  0.1750 -0.0273
  870YOPE   GL112859   6.020   8.114   6.749 -0.0764  0.1075  0.0091
  870YOPE   GL212860   5.667   8.326   6.824  0.1572 -0.0277 -0.0127
  870YOPE   C1A12861   5.960   8.139   7.173  0.1128 -0.1364  0.4048
  870YOPE   D2A12862   6.058   8.324   7.518  0.0187  0.1043  0.0992
  870YOPE   C3A12863   6.114   8.482   7.869 -0.2141  0.2115 -0.0403
  870YOPE   C4A12864   6.072   8.468   8.319  0.0823 -0.2464 -0.1788
  870YOPE   C1B12865   5.488   8.262   7.272 -0.2673 -0.0528  0.1364
  870YOPE   C2B12866   5.441   8.346   7.684 -0.2804 -0.0869  0.1356
  870YOPE   D3B12867   5.686   8.238   8.023  0.0866 -0.2455 -0.1817
  870YOPE   C4B12868   5.639   8.368   8.471 -0.0641  0.0914  0.0909
  871YOPE   NH312869   2.274  15.946   5.801  0.1331 -0.1029 -0.2191
  871YOPE   PO412870   2.698  16.162   5.738 -0.1912  0.0248  0.0862
  871YOPE   GL112871   2.744  16.049   6.150 -0.1063 -0.0283  0.3248
  871YOPE   GL212872   2.631  16.212   6.361 -0.1525  0.0758  0.0339
  871YOPE   C1A12873   2.877  15.824   6.530  0.0335  0.0725 -0.1056
  871YOPE   D2A12874   2.763  15.725   7.035 -0.3543  0.0451  0.1233
  871YOPE   C3A12875   2.788  15.305   7.216 -0.3864 -0.1154  0.0248
  871YOPE   C4A12876   2.944  14.975   7.498 -0.1623  0.2539  0.0858
  871YOPE   C1B12877   2.732  16.209   6.863  0.2093  0.1725 -0.1263
  871YOPE   C2B12878   2.780  16.202   7.250 -0.0208 -0.0103  0.1123
  871YOPE   D3B12879   2.705  16.226   7.700 -0.0067 -0.1726 -0.0596
  871YOPE   C4B12880   2.867  16.405   8.010 -0.1626  0.2347  0.1687
  872YOPE   NH312881  14.991   6.712   6.170  0.2940  0.0089  0.0289
  872YOPE   PO412882  15.410   6.873   6.238  0.0010 -0.0924 -0.1591
  872YOPE   GL112883  15.278   6.797   6.631  0.0078 -0.0991  0.0167
  872YOPE   GL212884  15.380   6.553   6.889  0.1497  0.1253  0.1178
  872YOPE   C1A12885  15.384   7.058   6.995  0.0293 -0.0864 -0.1051
  872YOPE   D2A12886  15.411   7.103   7.431  0.0453 -0.1433 -0.1880
  872YOPE   C3A12887  15.613   7.166   7.857  0.0886  0.1489 -0.0113
  872YOPE   C4A12888  15.827   7.336   8.187  0.1634  0.2624  0.2396
  872YOPE   C1B12889  15.450   6.641   7.301  0.2359  0.1096 -0.0966
  872YOPE   C2B12890  15.559   6.669   7.710 -0.2342 -0.0489  0.2100
  872YOPE   D3B12891  15.386   6.745   8.086 -0.4296  0.1997 -0.1575
  872YOPE   C4B12892  15.472   7.045   8.366  0.2979 -0.3454 -0.1306
  873YOPE   NH312893  16.027   2.898   6.173 -0.2180 -0.3175  0.2928
  873YOPE   PO412894  15.696   3.025   6.273  0.2566  0.0914 -0.0800
  873YOPE   GL112895  15.521   3.150   6.665 -0.0502 -0.0673  0.0881
  873YOPE   GL212896  15.689   3.398   6.869 -0.1228  0.0061  0.0282
  873YOPE   C1A12897  15.130   3.163   7.012  0.1864  0.2521 -0.1290
  873YOPE   D2A12898  14.923   2.899   7.281 -0.0006 -0.1290  0.2764
  873YOPE   C3A12899  14.915   2.989   7.739  0.1876 -0.1446  0.2008
  873YOPE   C4A12900  15.141   3.258   8.031  0.1820  0.0782  0.1251
  873YOPE   C1B12901  15.634   3.302   7.291  0.1684  0.1515 -0.0667
  873YOPE   C2B12902  15.276   3.285   7.488  0.2921 -0.1802  0.0238
  873YOPE   D3B12903  14.860   3.417   7.387 -0.0309 -0.0552  0.3406
  873YOPE   C4B12904  14.603   3.403   6.980 -0.1536 -0.2372 -0.3517
  874YOPE   NH312905   6.882   0.184   6.084 -0.0502  0.0121  0.2865
  874YOPE   PO412906   7.226  -0.179   6.141 -0.1141 -0.0015 -0.1209
  874YOPE   GL112907   7.309  -0.113   6.567  0.3765 -0.2196 -0.0696
  874YOPE   GL212908   6.998   0.143   6.575  0.0206  0.0172 -0.0385
  874YOPE   C1A12909   7.283   0.143   6.946  0.1003  0.0966  0.1456
  874YOPE   D2A12910   7.408   0.319   7.315 -0.0142 -0.0067 -0.3298
  874YOPE   C3A12911   7.311   0.185   7.704 -0.0824  0.0967  0.0658
  874YOPE   C4A12912   7.598   0.237   7.998  0.0290  0.2245  0.0159
  874YOPE   C1B12913   6.719   0.311   6.988  0.1084  0.2037  0.2229
  874YOPE   C2B12914   6.533   0.324   7.342  0.0833 -0.0892 -0.0821
  874YOPE   D3B12915   6.233   0.146   7.652 -0.0962 -0.0627 -0.0703
  874YOPE   C4B12916   5.788   0.253   7.732 -0.1226  0.0976 -0.0003
  875YOPE   NH312917  13.995   6.812   6.025 -0.1597  0.2311 -0.0041
  875YOPE   PO412918  13.966   6.344   6.136 -0.1659 -0.1024  0.1830
  875YOPE   GL112919  13.842   6.305   6.573  0.1393  0.1390 -0.0519
  875YOPE   GL212920  13.877   6.073   6.686 -0.0198  0.0969  0.0054
  875YOPE   C1A12921  13.898   6.421   7.050  0.0979 -0.0966  0.0309
  875YOPE   D2A12922  13.636   6.644   7.403 -0.1215  0.2099 -0.2074
  875YOPE   C3A12923  13.616   6.447   7.862 -0.0071 -0.0476 -0.1109
  875YOPE   C4A12924  13.876   6.411   8.299  0.1920 -0.2291  0.2252
  875YOPE   C1B12925  13.739   6.017   7.180 -0.0243 -0.1301 -0.0259
  875YOPE   C2B12926  13.667   5.820   7.557  0.1428 -0.2090 -0.2202
  875YOPE   D3B12927  13.821   5.472   7.716 -0.2846  0.1612 -0.0568
  875YOPE   C4B12928  13.821   5.106   7.805 -0.1074 -0.1293  0.1647
  876YOPE   NH312929   2.896  11.210   5.555 -0.0897 -0.0197 -0.1202
  876YOPE   PO412930   2.540  10.937   5.712 -0.4902 -0.1387  0.0653
  876YOPE   GL112931   2.768  11.065   6.136 -0.2733  0.1714  0.1439
  876YOPE   GL212932   3.023  11.331   6.181  0.0791  0.3962  0.0706
  876YOPE   C1A12933   2.685  10.966   6.553 -0.2814 -0.0246  0.0188
  876YOPE   D2A12934   2.818  10.697   6.961  0.0315  0.0982  0.0774
  876YOPE   C3A12935   2.772  10.445   7.306  0.1565  0.1640 -0.1146
  876YOPE   C4A12936   2.750  10.526   7.680 -0.4563 -0.1389 -0.1634
  876YOPE   C1B12937   3.275  11.338   6.568 -0.0392  0.4612  0.1254
  876YOPE   C2B12938   3.216  11.241   7.013  0.2794  0.1527 -0.1840
  876YOPE   D3B12939   2.959  11.080   7.295 -0.2401 -0.0212 -0.2456
  876YOPE   C4B12940   2.849  11.009   7.723  0.3377 -0.3578  0.2583
  877YOPE   NH312941   4.719   8.924   5.706  0.1030  0.2615 -0.0558
  877YOPE   PO412942   4.442   9.058   5.958  0.0227  0.0767 -0.0709
  877YOPE   GL112943   4.442   8.897   6.368 -0.1944  0.2328 -0.3098
  877YOPE   GL212944   4.683   8.781   6.615 -0.0249  0.0643 -0.0527
  877YOPE   C1A12945   4.225   9.250   6.695 -0.0428  0.2729  0.1178
  877YOPE   D2A12946   3.916   9.423   6.857 -0.3764 -0.5006 -0.0944
  877YOPE   C3A12947   4.022   9.414   7.289 -0.0530  0.1717  0.1412
  877YOPE   C4A12948   4.052   9.542   7.755  0.0339 -0.0715  0.0917
  877YOPE   C1B12949   4.629   8.661   7.084 -0.0541 -0.1389 -0.4886
  877YOPE   C2B12950   4.649   8.926   7.382 -0.0094 -0.1220 -0.3183
  877YOPE   D3B12951   4.650   9.117   7.809  0.0103  0.2525  0.3978
  877YOPE   C4B12952   4.469   9.324   8.136  0.0890 -0.4024 -0.1475
  878YOPE   NH312953  12.746   9.987   6.178  0.0652 -0.1025  0.1987
  878YOPE   PO412954  13.198   9.829   6.109 -0.3847 -0.2727 -0.1190
  878YOPE   GL112955  13.193  10.022   6.519 -0.0437 -0.1351 -0.0632
  878YOPE   GL212956  13.426  10.049   6.734  0.2087 -0.1632 -0.0803
  878YOPE   C1A12957  13.073  10.168   6.970  0.1656 -0.0604 -0.0023
  878YOPE   D2A12958  13.133  10.043   7.363  0.1401  0.2417 -0.1103
  878YOPE   C3A12959  12.849  10.017   7.625 -0.0722 -0.1172  0.1823
  878YOPE   C4A12960  12.476   9.841   7.754 -0.0060  0.2199 -0.2785
  878YOPE   C1B12961  13.319   9.700   7.028  0.0328 -0.2563 -0.0115
  878YOPE   C2B12962  13.346   9.570   7.529 -0.1142 -0.0657 -0.0657
  878YOPE   D3B12963  13.228   9.795   7.866  0.0157 -0.1770 -0.2117
  878YOPE   C4B12964  13.205  10.260   7.878 -0.0061 -0.2457 -0.1884
  879YOPE   NH312965  15.197  12.803   5.966  0.0726  0.0201  0.1169
  879YOPE   PO412966  15.553  12.984   5.898  0.1069  0.0737  0.1793
  879YOPE   GL112967  15.618  13.015   6.374 -0.1296  0.2129  0.1343
  879YOPE   GL212968  15.585  12.709   6.303 -0.2532 -0.0547  0.0686
  879YOPE   C1A12969  15.619  13.134   6.693  0.1314 -0.0041  0.2066
  879YOPE   D2A12970  15.664  13.224   7.113  0.0104  0.1816 -0.1765
  879YOPE   C3A12971  15.888  13.173   7.382  0.0135 -0.0594 -0.1353
  879YOPE   C4A12972  15.802  13.305   7.762 -0.3537 -0.0629  0.0252
  879YOPE   C1B12973  15.438  12.592   6.724 -0.0431  0.2068 -0.2009
  879YOPE   C2B12974  15.480  12.750   7.202 -0.0871 -0.3747  0.1722
  879YOPE   D3B12975  15.392  13.056   7.557 -0.1510  0.0260 -0.0601
  879YOPE   C4B12976  14.909  13.206   7.727  0.0455  0.3859  0.0823
  880YOPE   NH312977  11.795  16.161   5.813 -0.1047  0.1426 -0.0240
  880YOPE   PO412978  12.019  16.469   6.084 -0.1097  0.0145  0.2603
  880YOPE   GL112979  11.981  16.788   6.451  0.1201 -0.1684 -0.2221
  880YOPE   GL212980  12.151  16.645   6.664 -0.1921  0.1156  0.1202
  880YOPE   C1A12981  11.990  17.081   6.821  0.2085 -0.1237 -0.1276
  880YOPE   D2A12982  11.861  17.105   7.261 -0.1161 -0.0166 -0.0007
  880YOPE   C3A12983  12.092  17.047   7.622 -0.1356 -0.0912 -0.3694
  880YOPE   C4A12984  12.163  17.452   7.878 -0.2486 -0.0363 -0.2670
  880YOPE   C1B12985  12.354  16.753   7.167 -0.3005  0.3217  0.1422
  880YOPE   C2B12986  12.514  16.802   7.469  0.0420  0.3864 -0.0745
  880YOPE   D3B12987  12.845  16.966   7.743  0.0281 -0.0442  0.0638
  880YOPE   C4B12988  13.066  16.783   8.112  0.1664 -0.0802 -0.3396
  881YOPE   NH312989   5.473   5.357   6.551 -0.2805 -0.1370  0.2549
  881YOPE   PO412990   5.167   5.090   6.524 -0.2920  0.0618 -0.1179
  881YOPE   GL112991   5.006   5.093   6.872  0.0989  0.0963 -0.2371
  881YOPE   GL212992   5.264   5.299   7.118  0.0822 -0.1731 -0.0340
  881YOPE   C1A12993   4.796   5.157   7.286 -0.0008  0.2837  0.0053
  881YOPE   D2A12994   4.683   5.305   7.635  0.0719 -0.1897  0.0392
  881YOPE   C3A12995   4.477   5.039   7.964  0.1025 -0.3104 -0.1306
  881YOPE   C4A12996   4.789   4.967   8.185 -0.1169  0.3047 -0.0536
  881YOPE   C1B12997   5.219   5.091   7.565 -0.0637 -0.0702  0.0873
  881YOPE   C2B12998   5.084   5.278   7.928  0.0874  0.2112  0.1068
  881YOPE   D3B12999   4.885   5.526   8.206  0.0375  0.0026 -0.1072
  881YOPE   C4B13000   4.489   5.723   8.415 -0.1450 -0.0498  0.6106
  882YOPE   NH313001  12.022   9.456   6.289  0.1024 -0.4785  0.1870
  882YOPE   PO413002  11.637   9.399   6.212  0.2617 -0.0654  0.1686
  882YOPE   GL113003  11.665   9.498   6.692 -0.3571 -0.1475  0.0157
  882YOPE   GL213004  11.418   9.795   6.599  0.0592  0.0004  0.2502
  882YOPE   C1A13005  12.038   9.737   6.965  0.1408 -0.0745  0.1214
  882YOPE   D2A13006  12.138   9.998   7.346  0.0890 -0.0578 -0.0748
  882YOPE   C3A13007  11.933  10.043   7.708  0.2917 -0.2899 -0.0314
  882YOPE   C4A13008  12.017  10.297   8.084 -0.5136  0.1168  0.1610
  882YOPE   C1B13009  11.185   9.752   7.018  0.0160  0.1282 -0.1630
  882YOPE   C2B13010  11.129   9.664   7.432  0.1018 -0.0742  0.2240
  882YOPE   D3B13011  11.075   9.654   7.873  0.1605 -0.3653 -0.3988
  882YOPE   C4B13012  10.912   9.928   8.120  0.1257 -0.0797 -0.0946
  883YOPE   NH313013   2.199   4.777   6.304 -0.1289 -0.2596 -0.1635
  883YOPE   PO413014   2.027   4.618   6.719 -0.0611 -0.0732  0.5692
  883YOPE   GL113015   2.198   4.701   7.010 -0.2147  0.0816 -0.4541
  883YOPE   GL213016   2.147   4.954   7.048  0.0487 -0.0785  0.1407
  883YOPE   C1A13017   2.163   4.378   7.334 -0.1842  0.0418 -0.1425
  883YOPE   D2A13018   2.133   4.232   7.652  0.0606 -0.3302  0.2074
  883YOPE   C3A13019   2.075   4.540   7.969 -0.3237 -0.1236 -0.4074
  883YOPE   C4A13020   1.806   4.849   8.120 -0.0326 -0.0171 -0.1382
  883YOPE   C1B13021   2.232   4.889   7.528  0.0722  0.0803  0.1434
  883YOPE   C2B13022   2.305   4.967   7.920 -0.0673 -0.1763  0.1833
  883YOPE   D3B13023   2.193   4.877   8.424  0.0429  0.1912  0.2147
  883YOPE   C4B13024   1.988   4.493   8.535  0.0190  0.1698 -0.0880
  884YOPE   NH313025  10.794   3.654   6.316  0.3085  0.2860 -0.2323
  884YOPE   PO413026  11.152   3.460   6.275 -0.1808 -0.1140  0.0785
  884YOPE   GL113027  11.452   3.346   6.552  0.1479 -0.0903  0.1010
  884YOPE   GL213028  11.795   3.389   6.508 -0.0636  0.3011  0.1165
  884YOPE   C1A13029  11.492   3.389   7.020  0.1967  0.3072  0.2178
  884YOPE   D2A13030  11.724   3.488   7.345  0.1770 -0.1207 -0.1514
  884YOPE   C3A13031  11.652   3.716   7.705  0.1228 -0.1288 -0.0292
  884YOPE   C4A13032  11.433   3.582   8.067 -0.0758  0.3881 -0.0846
  884YOPE   C1B13033  11.937   3.800   6.771 -0.0773 -0.2356 -0.2983
  884YOPE   C2B13034  12.017   3.960   7.176  0.4463 -0.0096  0.2337
  884YOPE   D3B13035  12.051   3.918   7.459 -0.1528  0.0035  0.5288
  884YOPE   C4B13036  12.183   3.736   7.802 -0.0582 -0.0956  0.2463
  885YOPE   NH313037  14.818   4.282   6.318 -0.1550 -0.0622 -0.1566
  885YOPE   PO413038  15.221   4.310   6.145 -0.1221 -0.1061 -0.3793
  885YOPE   GL113039  15.215   4.561   6.535 -0.0260 -0.0362  0.0845
  885YOPE   GL213040  15.090   4.402   6.730 -0.4287 -0.1389  0.0445
  885YOPE   C1A13041  15.272   4.974   6.677  0.0326  0.3706  0.1001
  885YOPE   D2A13042  15.378   5.333   6.947  0.3591 -0.2648 -0.1804
  885YOPE   C3A13043  15.033   5.398   7.306  0.3033 -0.1107 -0.0163
  885YOPE   C4A13044  14.531   5.611   7.299 -0.1057 -0.1406  0.0580
  885YOPE   C1B13045  15.075   4.276   7.148  0.0528  0.1398  0.0267
  885YOPE   C2B13046  15.280   4.353   7.534 -0.1837  0.0186  0.1456
  885YOPE   D3B13047  15.456   4.207   7.865 -0.2308 -0.0335 -0.0936
  885YOPE   C4B13048  15.437   4.366   8.289  0.1855 -0.0516 -0.0138
  886YOPE   NH313049  17.475   1.252   6.231 -0.2110  0.0220 -0.1186
  886YOPE   PO413050  17.170   0.845   6.200  0.0858  0.0171 -0.2218
  886YOPE   GL113051  17.050   1.154   6.559  0.1985  0.0557 -0.3126
  886YOPE   GL213052  16.665   1.100   6.509 -0.0931 -0.2209  0.1586
  886YOPE   C1A13053  17.147   1.171   6.964  0.0630 -0.0609  0.2006
  886YOPE   D2A13054  16.936   1.096   7.334  0.0692 -0.2896 -0.1541
  886YOPE   C3A13055  17.185   0.943   7.613 -0.1841 -0.1517 -0.4443
  886YOPE   C4A13056  17.522   0.992   7.727  0.0265  0.2134  0.3645
  886YOPE   C1B13057  16.718   0.829   6.891  0.0622 -0.4662 -0.0388
  886YOPE   C2B13058  16.542   0.426   6.974  0.1520 -0.1001 -0.0878
  886YOPE   D3B13059  16.514   0.161   7.253  0.2359 -0.1574  0.0845
  886YOPE   C4B13060  16.772  -0.085   7.691  0.0182 -0.4310 -0.0075
  887YOPE   NH313061   1.252  17.844   5.877 -0.3552 -0.1825  0.1333
  887YOPE   PO413062   1.695  17.963   6.124 -0.0067  0.1577  0.1950
  887YOPE   GL113063   1.827  17.963   6.475 -0.1044  0.2054 -0.0115
  887YOPE   GL213064   1.772  18.236   6.657  0.0830 -0.2269  0.0160
  887YOPE   C1A13065   1.855  17.874   6.942 -0.2139  0.2230 -0.1201
  887YOPE   D2A13066   1.737  17.735   7.307  0.2685  0.1602 -0.0253
  887YOPE   C3A13067   1.354  17.858   7.452 -0.0766 -0.1914  0.3375
  887YOPE   C4A13068   1.022  17.738   7.684 -0.3752 -0.2056 -0.0282
  887YOPE   C1B13069   2.314  18.171   6.702  0.0731  0.1417 -0.0911
  887YOPE   C2B13070   2.695  18.209   6.819  0.2358 -0.0243  0.0342
  887YOPE   D3B13071   2.864  18.381   7.191  0.1764 -0.1118 -0.4699
  887YOPE   C4B13072   3.299  18.505   7.011 -0.1172  0.0265 -0.0409
  888YOPE   NH313073  16.898  17.437   5.734 -0.0790  0.3242 -0.2088
  888YOPE   PO413074  16.468  17.544   5.515 -0.0187  0.3186  0.0866
  888YOPE   GL113075  16.470  17.631   5.963 -0.1657  0.1501 -0.2431
  888YOPE   GL213076  16.691  17.848   6.054 -0.0801 -0.0420  0.1585
  888YOPE   C1A13077  16.489  17.489   6.381  0.1864  0.0275 -0.0784
  888YOPE   D2A13078  16.284  17.418   6.762 -0.0508 -0.1290  0.1590
  888YOPE   C3A13079  16.280  17.374   7.206 -0.0827  0.0730  0.2082
  888YOPE   C4A13080  16.168  17.168   7.587 -0.0495 -0.1892 -0.0936
  888YOPE   C1B13081  16.607  17.937   6.450 -0.2270 -0.1974 -0.1152
  888YOPE   C2B13082  16.404  17.903   6.807 -0.1214 -0.0683 -0.2410
  888YOPE   D3B13083  16.102  17.839   7.009  0.2354 -0.0344 -0.0314
  888YOPE   C4B13084  16.126  17.825   7.499  0.1336 -0.0993 -0.1236
  889YOPE   NH313085  12.616  17.216   5.926  0.2594 -0.1749  0.0700
  889YOPE   PO413086  12.551  17.544   6.201 -0.1270 -0.4012  0.0893
  889YOPE   GL113087  12.850  17.586   6.489 -0.0001 -0.1722 -0.0448
  889YOPE   GL213088  13.077  17.855   6.383  0.1373 -0.1687  0.1372
  889YOPE   C1A13089  12.836  17.568   7.006 -0.5795  0.2358 -0.1927
  889YOPE   D2A13090  13.045  17.617   7.272  0.3599  0.0936  0.0177
  889YOPE   C3A13091  13.024  17.651   7.727  0.1926  0.1705  0.3591
  889YOPE   C4A13092  12.912  17.728   8.194 -0.0344  0.2155  0.0355
  889YOPE   C1B13093  13.120  18.013   6.797 -0.1662  0.0473 -0.1137
  889YOPE   C2B13094  13.108  18.078   7.219 -0.2087  0.1368 -0.0740
  889YOPE   D3B13095  13.203  18.173   7.641  0.1626 -0.0433 -0.1878
  889YOPE   C4B13096  13.319  17.998   8.052 -0.0643  0.0070 -0.0691
  890YOPE   NH313097  15.001  14.130   6.314 -0.0183 -0.1048 -0.0963
  890YOPE   PO413098  15.330  13.943   6.304 -0.0198  0.3227  0.1950
  890YOPE   GL113099  15.449  14.124   6.697 -0.1268  0.0298  0.2214
  890YOPE   GL213100  15.743  14.391   6.779  0.0967  0.2513 -0.0823
  890YOPE   C1A13101  15.578  14.067   7.111  0.2113  0.1244 -0.3899
  890YOPE   D2A13102  15.399  14.096   7.636  0.0628 -0.2874  0.0080
  890YOPE   C3A13103  15.474  14.343   7.860 -0.1942  0.4376 -0.3161
  890YOPE   C4A13104  15.426  14.488   8.289 -0.2744  0.3871 -0.1814
  890YOPE   C1B13105  15.794  14.485   7.081 -0.3996  0.0341 -0.1783
  890YOPE   C2B13106  15.884  14.245   7.482  0.0231  0.0349  0.0087
  890YOPE   D3B13107  16.231  14.333   7.745  0.0476  0.0804 -0.1130
  890YOPE   C4B13108  16.637  14.498   7.573  0.2795  0.1587  0.0604
  891YOPE   NH313109  11.167   4.420   5.814 -0.2701  0.2844  0.0883
  891YOPE   PO413110  11.263   4.814   5.547 -0.0506  0.5295  0.3057
  891YOPE   GL113111  11.484   4.985   5.860  0.0171 -0.0974 -0.0158
  891YOPE   GL213112  11.557   4.796   6.147 -0.0001  0.1376  0.0669
  891YOPE   C1A13113  11.440   5.219   6.239  0.0761 -0.0193  0.0760
  891YOPE   D2A13114  11.359   5.337   6.708  0.2113 -0.0473 -0.0826
  891YOPE   C3A13115  11.484   5.547   7.094  0.0459  0.2883 -0.0775
  891YOPE   C4A13116  11.748   5.721   7.131  0.1495  0.1897  0.0056
  891YOPE   C1B13117  11.320   4.787   6.499  0.1514  0.1016  0.1610
  891YOPE   C2B13118  11.180   4.491   6.805  0.0787  0.1559  0.0807
  891YOPE   D3B13119  11.060   4.605   7.113  0.3062  0.0598  0.0526
  891YOPE   C4B13120  11.332   4.751   7.384  0.2431  0.2681 -0.0445
  892YOPE   NH313121  16.732  10.811   6.145  0.0124  0.0117  0.1177
  892YOPE   PO413122  16.307  11.023   6.229 -0.2139 -0.1354  0.1627
  892YOPE   GL113123  16.495  11.202   6.555 -0.1011  0.2439 -0.1601
  892YOPE   GL213124  16.489  11.479   6.703  0.0042  0.0229 -0.1062
  892YOPE   C1A13125  16.816  10.993   6.929 -0.2463 -0.2500  0.0548
  892YOPE   D2A13126  16.892  10.865   7.325  0.1934 -0.4318  0.0814
  892YOPE   C3A13127  16.455  10.845   7.574  0.2764  0.0200  0.0215
  892YOPE   C4A13128  16.153  10.870   7.895  0.1713 -0.1802  0.2655
  892YOPE   C1B13129  16.469  11.377   7.103  0.0932 -0.1983 -0.0862
  892YOPE   C2B13130  16.484  11.359   7.596 -0.2455  0.1446  0.1330
  892YOPE   D3B13131  16.441  11.235   8.016 -0.1657  0.1054  0.1883
  892YOPE   C4B13132  16.038  11.282   8.204 -0.2737 -0.1217 -0.0133
  893YOPE   NH313133  11.803  11.654   6.022 -0.1169  0.2855 -0.0195
  893YOPE   PO413134  11.673  12.075   5.969 -0.0946  0.0516  0.0119
  893YOPE   GL113135  11.775  12.242   6.390 -0.0153 -0.2667  0.0528
  893YOPE   GL213136  11.805  12.488   6.443  0.0118  0.1777  0.0124
  893YOPE   C1A13137  11.684  12.049   6.749 -0.5237 -0.2252  0.1645
  893YOPE   D2A13138  11.778  12.050   7.180 -0.0072  0.1504  0.1822
  893YOPE   C3A13139  11.744  11.761   7.442  0.0108  0.0222  0.2607
  893YOPE   C4A13140  11.698  11.452   7.823  0.0062 -0.1925 -0.0826
  893YOPE   C1B13141  11.790  12.540   6.964 -0.0204 -0.2618  0.1155
  893YOPE   C2B13142  11.629  12.520   7.382  0.0308  0.2578  0.2634
  893YOPE   D3B13143  11.874  12.311   7.641 -0.0809  0.0749 -0.1238
  893YOPE   C4B13144  11.727  11.979   7.929 -0.0136 -0.0847 -0.0374
  894YOPE   NH313145   6.556   5.513   6.423 -0.1412  0.0429 -0.4065
  894YOPE   PO413146   6.269   5.895   6.448 -0.2366  0.0276 -0.2157
  894YOPE   GL113147   6.259   6.190   6.794  0.1329  0.2824 -0.0726
  894YOPE   GL213148   6.524   6.370   6.799  0.3454 -0.0865 -0.0223
  894YOPE   C1A13149   6.216   5.969   7.207  0.0905 -0.1875 -0.2584
  894YOPE   D2A13150   6.122   6.006   7.695  0.0436 -0.0041  0.0405
  894YOPE   C3A13151   6.425   5.951   8.031  0.1187 -0.0309  0.0554
  894YOPE   C4A13152   6.335   5.811   8.427 -0.0459  0.3143  0.2166
  894YOPE   C1B13153   6.491   6.542   7.187 -0.0334  0.0081  0.5321
  894YOPE   C2B13154   6.447   6.421   7.644  0.0513  0.0819  0.4384
  894YOPE   D3B13155   6.768   6.348   7.913  0.2142 -0.0367 -0.0848
  894YOPE   C4B13156   6.827   6.232   8.375 -0.2281  0.0358 -0.1295
  895YOPE   NH313157   1.697  10.040   6.422 -0.2407 -0.0352 -0.1122
  895YOPE   PO413158   1.309  10.226   6.451 -0.1133  0.0052 -0.0704
  895YOPE   GL113159   1.354  10.090   6.859  0.2900 -0.0716  0.1862
  895YOPE   GL213160   1.472   9.885   6.950  0.2156  0.0164 -0.0699
  895YOPE   C1A13161   1.097   9.932   7.251 -0.0880  0.0867 -0.1347
  895YOPE   D2A13162   0.953   9.881   7.704 -0.0779 -0.1694  0.0482
  895YOPE   C3A13163   0.821  10.265   7.897 -0.2791  0.0177  0.0057
  895YOPE   C4A13164   0.355  10.434   7.836  0.2896  0.1110  0.1764
  895YOPE   C1B13165   1.543   9.657   7.261 -0.1995  0.1954  0.0673
  895YOPE   C2B13166   1.276   9.534   7.530  0.0155  0.0854 -0.1942
  895YOPE   D3B13167   1.157   9.486   7.986 -0.0142 -0.1655 -0.1050
  895YOPE   C4B13168   0.976   9.750   8.357  0.2848 -0.3388 -0.0987
  896YOPE   NH313169   2.299  14.958   5.602 -0.1606 -0.1323 -0.1006
  896YOPE   PO413170   2.657  15.093   5.871 -0.0146 -0.3339 -0.1119
  896YOPE   GL113171   2.625  15.339   6.221 -0.0440  0.4686  0.0291
  896YOPE   GL213172   2.342  15.208   6.416  0.0947  0.0009 -0.1123
  896YOPE   C1A13173   2.414  15.728   6.358  0.0364  0.3066 -0.1850
  896YOPE   D2A13174   2.044  15.748   6.627 -0.1845  0.2701 -0.1328
  896YOPE   C3A13175   2.244  15.933   6.992 -0.4120 -0.0082 -0.1607
  896YOPE   C4A13176   2.379  15.824   7.419 -0.0135 -0.1776  0.1091
  896YOPE   C1B13177   2.035  14.933   6.595 -0.0788  0.0200  0.0997
  896YOPE   C2B13178   1.701  14.881   6.756  0.1111  0.2057  0.0058
  896YOPE   D3B13179   1.527  14.937   7.163  0.2197 -0.1399  0.1063
  896YOPE   C4B13180   1.352  15.080   7.611 -0.1954  0.1776 -0.0727
  897YOPE   NH313181  14.416   9.818   6.504 -0.0240 -0.1995  0.1349
  897YOPE   PO413182  14.070   9.956   6.393  0.0743  0.0827  0.0719
  897YOPE   GL113183  13.930  10.275   6.749  0.2396  0.0881 -0.0777
  897YOPE   GL213184  14.235  10.305   6.657 -0.0028 -0.0046  0.0465
  897YOPE   C1A13185  13.812  10.293   7.216  0.2038  0.2959 -0.2374
  897YOPE   D2A13186  13.629  10.026   7.538 -0.1047  0.0687  0.1558
  897YOPE   C3A13187  13.734   9.845   7.972  0.1119 -0.1636 -0.1022
  897YOPE   C4A13188  14.148   9.694   8.211  0.0285 -0.1463  0.0463
  897YOPE   C1B13189  14.075  10.710   6.863  0.1048  0.1123 -0.1171
  897YOPE   C2B13190  13.974  10.862   7.246 -0.0807 -0.3101 -0.2054
  897YOPE   D3B13191  13.841  10.695   7.545 -0.2433  0.0135  0.2263
  897YOPE   C4B13192  13.648  10.447   7.793 -0.2682  0.0966 -0.1551
  898YOPE   NH313193  12.970   5.973   6.141 -0.3311 -0.2320 -0.1262
  898YOPE   PO413194  12.876   6.315   6.406  0.1815  0.0302 -0.0506
  898YOPE   GL113195  12.905   6.399   6.816 -0.0750 -0.3377  0.0085
  898YOPE   GL213196  12.596   6.240   6.813  0.0970  0.3002 -0.3355
  898YOPE   C1A13197  12.943   6.345   7.300  0.0367  0.2187 -0.0701
  898YOPE   D2A13198  12.706   6.136   7.638 -0.3372  0.3592 -0.3225
  898YOPE   C3A13199  12.385   6.218   7.843  0.2766  0.3578 -0.1802
  898YOPE   C4A13200  12.217   6.563   7.802  0.0678 -0.1929  0.1133
  898YOPE   C1B13201  12.547   5.954   7.147 -0.0386 -0.2222  0.1733
  898YOPE   C2B13202  12.270   5.896   7.493  0.0155  0.0666 -0.0480
  898YOPE   D3B13203  12.037   5.779   7.901  0.3324 -0.1158 -0.4093
  898YOPE   C4B13204  11.697   5.845   8.160  0.0598  0.2389  0.2952
  899YOPE   NH313205  12.936   4.363   6.050 -0.2165 -0.0381 -0.0229
  899YOPE   PO413206  12.972   3.926   5.964 -0.2759  0.0792  0.0670
  899YOPE   GL113207  12.848   3.831   6.417 -0.0318  0.0680 -0.2084
  899YOPE   GL213208  12.751   3.508   6.557  0.1827  0.2340  0.2170
  899YOPE   C1A13209  12.926   3.873   6.886  0.1121 -0.0209 -0.1955
  899YOPE   D2A13210  13.088   3.767   7.373 -0.0988  0.0618 -0.0430
  899YOPE   C3A13211  13.403   4.027   7.526 -0.0315 -0.2341 -0.0790
  899YOPE   C4A13212  13.296   4.369   7.743  0.2420  0.0234 -0.3488
  899YOPE   C1B13213  12.754   3.470   7.027  0.3274  0.0216 -0.0489
  899YOPE   C2B13214  12.684   3.180   7.442  0.0033  0.0562  0.4936
  899YOPE   D3B13215  12.592   2.966   7.778  0.1179 -0.0242  0.2616
  899YOPE   C4B13216  12.320   3.091   8.083 -0.0364 -0.0361  0.0675
  900YOPE   NH313217   1.221   7.406   6.318  0.0603  0.4330  0.0457
  900YOPE   PO413218   1.225   7.866   6.245  0.2302  0.4423  0.0054
  900YOPE   GL113219   1.215   8.122   6.607  0.3718  0.1736 -0.2234
  900YOPE   GL213220   0.800   8.231   6.638 -0.1202 -0.2428 -0.0728
  900YOPE   C1A13221   1.134   8.334   7.036  0.0299 -0.1185  0.1825
  900YOPE   D2A13222   1.165   8.624   7.344 -0.2199 -0.2949 -0.1641
  900YOPE   C3A13223   1.250   8.629   7.802  0.0571  0.0784  0.0646
  900YOPE   C4A13224   1.674   8.554   7.981 -0.0865  0.1209 -0.1638
  900YOPE   C1B13225   0.588   8.367   7.034 -0.0387  0.0754 -0.0468
  900YOPE   C2B13226   0.418   8.113   7.424 -0.2578 -0.0427  0.0044
  900YOPE   D3B13227   0.272   7.987   7.783  0.3116  0.0406 -0.1311
  900YOPE   C4B13228  -0.106   8.025   8.134 -0.0306 -0.0433  0.3850
  901YOPE   NH313229   0.575  13.992   5.780  0.1006  0.3731  0.2017
  901YOPE   PO413230   0.760  13.632   5.884 -0.1737 -0.1742 -0.0248
  901YOPE   GL113231   0.802  13.613   6.295 -0.0496  0.0815 -0.2315
  901YOPE   GL213232   1.054  13.690   6.326 -0.0258 -0.0332  0.1270
  901YOPE   C1A13233   0.596  13.537   6.632  0.1511 -0.1856  0.3968
  901YOPE   D2A13234   0.583  13.573   7.082 -0.0126  0.0017 -0.1645
  901YOPE   C3A13235   0.613  13.857   7.409 -0.0270 -0.1966 -0.0309
  901YOPE   C4A13236   0.383  13.796   7.717  0.1725 -0.0611  0.1122
  901YOPE   C1B13237   1.235  14.033   6.360  0.0706  0.3294 -0.0101
  901YOPE   C2B13238   1.381  14.400   6.530 -0.0677  0.1155  0.0163
  901YOPE   D3B13239   1.519  14.442   6.964 -0.1575  0.1031  0.2075
  901YOPE   C4B13240   1.639  14.537   7.459  0.1331 -0.0391  0.0318
  902YOPE   NH313241   9.421  15.911   6.173  0.1259 -0.0561  0.3949
  902YOPE   PO413242   9.033  15.826   6.140 -0.0741  0.0825  0.1514
  902YOPE   GL113243   9.024  15.787   6.543 -0.3137  0.1086  0.3776
  902YOPE   GL213244   8.645  15.785   6.559 -0.0430 -0.0582  0.1801
  902YOPE   C1A13245   9.149  15.536   6.765 -0.0530  0.0176 -0.2565
  902YOPE   D2A13246   9.188  15.344   7.076  0.0608 -0.1674 -0.1392
  902YOPE   C3A13247   8.922  15.267   7.316 -0.0371 -0.1042 -0.0902
  902YOPE   C4A13248   8.976  15.181   7.699  0.1244 -0.0191  0.0535
  902YOPE   C1B13249   8.677  15.720   6.950  0.0274  0.1904 -0.1660
  902YOPE   C2B13250   8.666  15.773   7.283 -0.0441 -0.1128  0.3613
  902YOPE   D3B13251   8.593  15.821   7.669 -0.0427  0.0932  0.3766
  902YOPE   C4B13252   8.757  15.593   8.028  0.0046  0.1334  0.1606
  903YOPE   NH313253   6.008   4.853   6.455 -0.2683 -0.0717 -0.0516
  903YOPE   PO413254   6.013   5.347   6.539 -0.1959  0.1113  0.1058
  903YOPE   GL113255   6.044   5.567   6.904  0.2888 -0.0888  0.3418
  903YOPE   GL213256   6.385   5.649   6.875  0.0432  0.0278 -0.1275
  903YOPE   C1A13257   6.016   5.523   7.360  0.2083  0.1564 -0.3268
  903YOPE   D2A13258   6.021   5.563   7.778  0.0828  0.2413 -0.1634
  903YOPE   C3A13259   5.677   5.689   8.023 -0.2026  0.0392  0.0392
  903YOPE   C4A13260   5.419   5.572   8.286  0.1554  0.0977 -0.0602
  903YOPE   C1B13261   6.436   5.434   7.204  0.0900 -0.1356 -0.2629
  903YOPE   C2B13262   6.497   5.489   7.663  0.1233  0.0766  0.0624
  903YOPE   D3B13263   6.374   5.422   8.069 -0.0765  0.0285 -0.1693
  903YOPE   C4B13264   6.579   5.359   8.561 -0.2188 -0.1174  0.4936
  904YOPE   NH313265  15.680  17.159   6.056  0.2078  0.0031  0.1359
  904YOPE   PO413266  15.890  16.814   6.048 -0.0522  0.0479  0.2271
  904YOPE   GL113267  16.269  16.683   6.325 -0.1649  0.0569  0.1045
  904YOPE   GL213268  16.315  16.958   6.386  0.1366 -0.2368  0.2766
  904YOPE   C1A13269  16.540  16.446   6.651  0.3387 -0.1645 -0.1294
  904YOPE   D2A13270  16.839  16.116   6.672 -0.1990  0.0376 -0.1319
  904YOPE   C3A13271  17.071  15.994   6.991  0.3041 -0.1862 -0.3783
  904YOPE   C4A13272  17.441  15.755   7.057  0.2783  0.0463  0.0206
  904YOPE   C1B13273  16.330  16.862   6.815  0.1078  0.0590 -0.1066
  904YOPE   C2B13274  16.440  16.676   7.165  0.0725  0.0870  0.2195
  904YOPE   D3B13275  16.495  16.733   7.517 -0.0317 -0.2111 -0.0873
  904YOPE   C4B13276  16.293  16.892   7.942 -0.2365  0.0208  0.0380
  905YOPE   NH313277  15.110   1.951   6.089 -0.2766 -0.0556 -0.1402
  905YOPE   PO413278  15.483   2.238   6.115 -0.2467  0.0504  0.3144
  905YOPE   GL113279  15.487   2.151   6.476  0.1728 -0.1264  0.5550
  905YOPE   GL213280  15.201   1.999   6.572 -0.1526  0.1170 -0.0863
  905YOPE   C1A13281  15.423   2.162   6.965  0.1284 -0.2513 -0.2050
  905YOPE   D2A13282  15.334   2.133   7.413  0.1990 -0.2167  0.0387
  905YOPE   C3A13283  15.249   1.957   7.749  0.1120  0.1338 -0.0897
  905YOPE   C4A13284  14.859   1.780   7.910  0.3002  0.0389  0.0128
  905YOPE   C1B13285  14.839   1.986   6.860  0.0755  0.2946  0.3531
  905YOPE   C2B13286  14.503   1.753   7.152  0.0523  0.2945 -0.0362
  905YOPE   D3B13287  14.424   1.676   7.558  0.0956  0.0364 -0.0886
  905YOPE   C4B13288  14.365   1.626   7.977 -0.2150 -0.0303  0.2013
  906YOPE   NH313289  11.598   8.060   5.844 -0.3519 -0.2178  0.0438
  906YOPE   PO413290  11.285   7.972   6.003 -0.5344  0.1526  0.1518
  906YOPE   GL113291  11.359   8.117   6.388  0.2267  0.1921 -0.1130
  906YOPE   GL213292  11.677   8.094   6.303  0.5044 -0.1072 -0.1279
  906YOPE   C1A13293  11.433   8.131   6.896 -0.2323  0.0976  0.0490
  906YOPE   D2A13294  11.558   7.873   7.258  0.0369  0.2577 -0.1092
  906YOPE   C3A13295  11.799   7.712   7.655  0.1303  0.0723  0.1255
  906YOPE   C4A13296  11.925   7.611   8.113  0.3978  0.2423  0.1656
  906YOPE   C1B13297  11.878   7.995   6.637  0.2745 -0.1489  0.0811
  906YOPE   C2B13298  11.910   8.157   7.042  0.2279  0.1138  0.0659
  906YOPE   D3B13299  11.845   8.241   7.472  0.0457 -0.1764 -0.0455
  906YOPE   C4B13300  11.486   8.091   7.725  0.1419  0.1350 -0.2420
  907YOPE   NH313301   6.766  15.194   5.981  0.0936 -0.1218  0.1945
  907YOPE   PO413302   6.256  15.240   5.920 -0.0847  0.1272 -0.2926
  907YOPE   GL113303   6.346  15.122   6.317  0.1074  0.0143 -0.0492
  907YOPE   GL213304   6.368  15.421   6.456  0.1993  0.0265  0.3473
  907YOPE   C1A13305   6.252  14.918   6.730  0.0119 -0.2723  0.0613
  907YOPE   D2A13306   6.173  14.840   7.214  0.3106 -0.3273  0.1201
  907YOPE   C3A13307   6.107  15.027   7.537  0.0825 -0.0114  0.2817
  907YOPE   C4A13308   5.751  15.012   7.798  0.0389 -0.0297 -0.0814
  907YOPE   C1B13309   6.317  15.334   6.973 -0.1742  0.0792 -0.1026
  907YOPE   C2B13310   6.463  15.254   7.277  0.1146 -0.1252  0.1685
  907YOPE   D3B13311   6.551  14.868   7.695 -0.0773 -0.0725  0.1573
  907YOPE   C4B13312   6.239  14.871   7.978 -0.0287  0.0053 -0.3509
  908YOPE   NH313313  10.034  16.408   5.645  0.1583 -0.1330 -0.0725
  908YOPE   PO413314  10.352  16.228   5.713  0.3576 -0.0491  0.4017
  908YOPE   GL113315  10.447  16.411   6.148  0.1514 -0.2672  0.1515
  908YOPE   GL213316  10.733  16.134   6.304 -0.0271  0.2620  0.4124
  908YOPE   C1A13317  10.624  16.692   6.467 -0.2390 -0.2349 -0.0554
  908YOPE   D2A13318  10.573  17.056   6.760  0.1087 -0.0007  0.0093
  908YOPE   C3A13319  10.425  16.936   7.176 -0.2434 -0.4458 -0.1243
  908YOPE   C4A13320  10.301  17.210   7.555 -0.1918  0.2207 -0.3237
  908YOPE   C1B13321  11.037  16.357   6.533  0.2671 -0.1133 -0.1973
  908YOPE   C2B13322  11.185  16.187   6.861  0.3775 -0.1894  0.3340
  908YOPE   D3B13323  11.193  16.328   7.286  0.1796  0.1262  0.0472
  908YOPE   C4B13324  11.510  16.315   7.559 -0.1852 -0.2773 -0.1732
  909YOPE   NH313325  12.301   1.685   6.131  0.1526 -0.2161  0.0141
  909YOPE   PO413326  11.803   1.760   6.127 -0.2228  0.0114 -0.5231
  909YOPE   GL113327  11.952   1.931   6.506  0.1398 -0.2496  0.1524
  909YOPE   GL213328  12.054   2.036   6.709 -0.2831 -0.1325 -0.1026
  909YOPE   C1A13329  11.872   1.630   6.847  0.1856 -0.2541 -0.1933
  909YOPE   D2A13330  11.880   1.333   7.175 -0.2962  0.0693 -0.0004
  909YOPE   C3A13331  12.149   1.314   7.525 -0.0718  0.1026 -0.0132
  909YOPE   C4A13332  12.263   1.231   7.978  0.1798  0.0978  0.1433
  909YOPE   C1B13333  12.015   2.007   7.179 -0.2681 -0.3044 -0.0812
  909YOPE   C2B13334  12.029   1.780   7.390 -0.1170  0.3393 -0.1962
  909YOPE   D3B13335  12.177   1.733   7.806  0.2598 -0.0686  0.4973
  909YOPE   C4B13336  12.205   1.574   8.314 -0.3118  0.1279  0.5609
  910YOPE   NH313337   6.202   6.722   6.676 -0.1052 -0.2471  0.1643
  910YOPE   PO413338   5.796   6.488   6.452  0.0758 -0.1045 -0.0080
  910YOPE   GL113339   5.777   6.441   6.870  0.2644  0.0295 -0.1710
  910YOPE   GL213340   5.502   6.266   6.930  0.0332  0.2282  0.1749
  910YOPE   C1A13341   6.013   6.492   7.285  0.1637 -0.3147 -0.1203
  910YOPE   D2A13342   5.904   6.429   7.727 -0.0459  0.2304 -0.0961
  910YOPE   C3A13343   6.137   6.396   8.115  0.0479 -0.1325  0.1290
  910YOPE   C4A13344   5.968   6.063   8.243  0.1343 -0.1803  0.0141
  910YOPE   C1B13345   5.604   6.135   7.278  0.1111  0.1957 -0.0325
  910YOPE   C2B13346   5.474   6.098   7.633 -0.0357 -0.0804 -0.1350
  910YOPE   D3B13347   5.537   6.210   8.056  0.1332  0.1179  0.1398
  910YOPE   C4B13348   5.481   6.078   8.545  0.2044 -0.0395 -0.1017
  911YOPE   NH313349   9.702  17.024   6.255  0.0634  0.0771 -0.1758
  911YOPE   PO413350   9.986  16.671   6.181  0.2637  0.1539  0.1686
  911YOPE   GL113351  10.108  16.684   6.567  0.0021  0.0191 -0.0233
  911YOPE   GL213352  10.025  17.018   6.699  0.0692  0.2333 -0.0332
  911YOPE   C1A13353   9.805  16.677   6.967  0.0910 -0.1014 -0.1325
  911YOPE   D2A13354   9.724  16.505   7.416  0.0237 -0.2633 -0.1188
  911YOPE   C3A13355   9.669  16.374   7.841 -0.1371 -0.1101  0.0894
  911YOPE   C4A13356   9.369  16.195   8.214 -0.1360 -0.1668 -0.2486
  911YOPE   C1B13357  10.059  17.202   7.038 -0.1600  0.0763  0.1461
  911YOPE   C2B13358   9.882  16.936   7.350  0.3240  0.0447  0.1180
  911YOPE   D3B13359  10.091  16.760   7.719  0.0318 -0.3287  0.3591
  911YOPE   C4B13360  10.525  16.654   7.779  0.1693  0.0074 -0.0733
  912YOPE   NH313361   9.755   7.290   5.979 -0.0822  0.0180  0.0683
  912YOPE   PO413362   9.530   7.589   6.210  0.2084 -0.0960 -0.2947
  912YOPE   GL113363   9.370   7.409   6.622 -0.0811 -0.2183 -0.5628
  912YOPE   GL213364   9.403   7.622   6.881  0.0423 -0.0442 -0.1213
  912YOPE   C1A13365   9.286   7.122   7.051  0.0015  0.0692 -0.0783
  912YOPE   D2A13366   9.301   6.911   7.445 -0.1266  0.1288 -0.0789
  912YOPE   C3A13367   9.687   6.733   7.684  0.3597  0.0713  0.1224
  912YOPE   C4A13368   9.864   6.388   7.810 -0.0571  0.1583  0.1719
  912YOPE   C1B13369   9.529   7.651   7.273  0.0254 -0.0286 -0.1764
  912YOPE   C2B13370   9.667   7.704   7.609  0.0702  0.1571 -0.0522
  912YOPE   D3B13371   9.957   7.750   7.967 -0.0892  0.2010  0.0069
  912YOPE   C4B13372  10.293   7.990   8.103  0.0966 -0.0797 -0.0899
  913YOPE   NH313373  16.638   9.245   6.387  0.2317 -0.1570 -0.2685
  913YOPE   PO413374  16.503   8.813   6.343  0.0130  0.0342 -0.0523
  913YOPE   GL113375  16.515   8.824   6.750  0.0035 -0.3409  0.2988
  913YOPE   GL213376  16.810   9.057   6.837  0.2386 -0.0235 -0.0507
  913YOPE   C1A13377  16.494   8.812   7.178  0.3955 -0.0575  0.2823
  913YOPE   D2A13378  16.730   8.823   7.520  0.1500 -0.0379  0.0746
  913YOPE   C3A13379  16.554   8.745   7.929  0.0993 -0.1439 -0.1702
  913YOPE   C4A13380  16.263   8.701   8.363  0.0095  0.0491  0.0428
  913YOPE   C1B13381  16.972   9.027   7.090 -0.1717 -0.0696  0.1869
  913YOPE   C2B13382  17.176   8.987   7.482  0.2637 -0.0229 -0.0743
  913YOPE   D3B13383  17.324   8.705   7.708 -0.1037 -0.1048 -0.3346
  913YOPE   C4B13384  17.503   8.508   8.036  0.0192 -0.0756 -0.0535
  914YOPE   NH313385   6.365  10.082   6.072  0.0539  0.0934  0.3255
  914YOPE   PO413386   6.383   9.694   6.385  0.2126 -0.0182 -0.1624
  914YOPE   GL113387   6.326   9.629   6.807  0.1252 -0.0834  0.0901
  914YOPE   GL213388   6.389   9.366   6.783 -0.1289  0.1555 -0.0402
  914YOPE   C1A13389   6.177   9.710   7.106  0.0773 -0.0996  0.2042
  914YOPE   D2A13390   5.969   9.727   7.384  0.1583  0.2455  0.1692
  914YOPE   C3A13391   6.069   9.491   7.633  0.1059  0.0361  0.1354
  914YOPE   C4A13392   5.991   9.209   8.001  0.3931  0.0520  0.1795
  914YOPE   C1B13393   6.498   9.280   7.273 -0.0393 -0.1396  0.2034
  914YOPE   C2B13394   6.469   9.249   7.764  0.3098  0.0484 -0.0038
  914YOPE   D3B13395   6.315   9.520   8.172  0.2249 -0.2464  0.1556
  914YOPE   C4B13396   6.499   9.888   8.458 -0.1734  0.1791  0.1009
  915YOPE   NH313397   7.336   9.811   6.088  0.1894  0.1867  0.1806
  915YOPE   PO413398   7.108  10.215   6.064 -0.1717 -0.0623 -0.1535
  915YOPE   GL113399   7.039   9.944   6.477  0.3085  0.0821  0.1981
  915YOPE   GL213400   6.823   9.617   6.611 -0.2344 -0.2159  0.0481
  915YOPE   C1A13401   6.918  10.105   6.876  0.1642 -0.2115 -0.0280
  915YOPE   D2A13402   6.605   9.949   7.129 -0.2669 -0.1878  0.0856
  915YOPE   C3A13403   6.509   9.732   7.505  0.2194 -0.0044  0.1062
  915YOPE   C4A13404   6.425   9.902   7.830 -0.3387 -0.2754  0.1144
  915YOPE   C1B13405   6.870   9.385   7.026 -0.1473  0.0445 -0.2528
  915YOPE   C2B13406   6.985   9.177   7.269  0.1022  0.1369  0.0049
  915YOPE   D3B13407   6.931   8.983   7.613 -0.2098  0.0558 -0.0152
  915YOPE   C4B13408   6.981   9.116   7.981  0.1584  0.0594  0.3350
  916YOPE   NH313409   0.924  15.225   5.701 -0.2234  0.4074 -0.1914
  916YOPE   PO413410   0.711  15.255   6.061 -0.2585  0.1473  0.2033
  916YOPE   GL113411   0.541  15.148   6.406  0.2032 -0.1882 -0.0309
  916YOPE   GL213412   0.317  15.359   6.433  0.0819 -0.1995  0.0997
  916YOPE   C1A13413   0.671  15.041   6.759 -0.3708 -0.3121  0.0417
  916YOPE   D2A13414   0.938  14.987   7.181 -0.0415 -0.2101  0.0357
  916YOPE   C3A13415   0.760  15.201   7.598  0.0701 -0.1597 -0.0135
  916YOPE   C4A13416   0.520  15.202   8.101 -0.2102  0.1112  0.4666
  916YOPE   C1B13417   0.371  15.421   6.920  0.3410 -0.0219  0.1048
  916YOPE   C2B13418   0.653  15.439   7.171 -0.2020 -0.1817  0.1636
  916YOPE   D3B13419   0.973  15.610   7.354  0.1006  0.2051  0.3027
  916YOPE   C4B13420   1.097  15.473   7.845  0.2284 -0.1100 -0.2938
  917YOPE   NH313421   1.460  16.325   6.227 -0.0536  0.1962  0.4685
  917YOPE   PO413422   1.618  16.704   6.370 -0.3133  0.1721 -0.0922
  917YOPE   GL113423   2.041  16.839   6.540  0.2652  0.4885  0.1392
  917YOPE   GL213424   2.211  16.622   6.469 -0.0660 -0.0604 -0.2395
  917YOPE   C1A13425   2.213  16.911   6.951  0.0526  0.2693 -0.1159
  917YOPE   D2A13426   2.230  16.916   7.349 -0.3908 -0.0149  0.2212
  917YOPE   C3A13427   2.349  17.033   7.746 -0.2684 -0.0672  0.1289
  917YOPE   C4A13428   2.494  16.876   8.223 -0.0008 -0.2828  0.1179
  917YOPE   C1B13429   2.264  16.390   6.824 -0.2057  0.2212 -0.0120
  917YOPE   C2B13430   2.257  16.344   7.337  0.1705 -0.1791  0.0381
  917YOPE   D3B13431   2.103  16.124   7.671 -0.0277 -0.2721 -0.1109
  917YOPE   C4B13432   1.830  15.965   7.853  0.2749  0.0241 -0.0137
  918YOPE   NH313433  15.054   2.556   6.132  0.1588  0.1183  0.0758
  918YOPE   PO413434  15.185   3.011   6.203 -0.0367 -0.3165 -0.0915
  918YOPE   GL113435  14.948   2.895   6.577 -0.4812 -0.0723 -0.5323
  918YOPE   GL213436  14.932   2.541   6.694  0.1461  0.0099  0.2271
  918YOPE   C1A13437  14.648   2.950   6.849 -0.2030  0.1243 -0.0846
  918YOPE   D2A13438  14.445   2.990   7.326 -0.0608  0.2433  0.1057
  918YOPE   C3A13439  14.328   3.403   7.490  0.2610  0.0950  0.1239
  918YOPE   C4A13440  14.223   3.476   8.021  0.0890 -0.3536 -0.2537
  918YOPE   C1B13441  14.955   2.438   7.102  0.2015 -0.0109  0.1073
  918YOPE   C2B13442  14.980   2.441   7.551 -0.1233 -0.0984  0.2882
  918YOPE   D3B13443  14.940   2.325   7.969 -0.1006 -0.0493  0.0222
  918YOPE   C4B13444  14.857   2.395   8.436 -0.0045 -0.2752  0.1436
  919YOPE   NH313445  12.204  12.420   6.124  0.1625  0.0047  0.0952
  919YOPE   PO413446  12.218  11.969   6.134 -0.3176  0.0793 -0.0486
  919YOPE   GL113447  12.075  11.791   6.499 -0.1019 -0.2554 -0.2959
  919YOPE   GL213448  12.404  11.752   6.735 -0.2090  0.0620  0.0674
  919YOPE   C1A13449  11.910  11.619   6.859 -0.0696  0.0138 -0.1806
  919YOPE   D2A13450  11.482  11.547   6.973 -0.1479 -0.2049 -0.2601
  919YOPE   C3A13451  11.354  11.442   7.381 -0.0813 -0.2903 -0.1401
  919YOPE   C4A13452  10.945  11.681   7.422 -0.1731 -0.2265  0.2453
  919YOPE   C1B13453  12.310  11.909   7.204 -0.0362  0.0021 -0.1591
  919YOPE   C2B13454  12.286  12.007   7.578 -0.0549  0.0542 -0.0396
  919YOPE   D3B13455  12.395  11.774   7.950  0.3410 -0.0899  0.0255
  919YOPE   C4B13456  12.433  11.852   8.366 -0.1188 -0.3784  0.3253
  920YOPE   NH313457   7.257  16.807   5.659  0.2127  0.1312 -0.0299
  920YOPE   PO413458   7.525  16.876   5.991 -0.0335 -0.0724 -0.1181
  920YOPE   GL113459   7.599  17.045   6.443  0.1560  0.1943 -0.1255
  920YOPE   GL213460   7.964  17.069   6.522 -0.1053 -0.0444 -0.0362
  920YOPE   C1A13461   7.362  17.310   6.664 -0.2864 -0.0438  0.0789
  920YOPE   D2A13462   7.419  17.534   7.114 -0.0482  0.1605 -0.0113
  920YOPE   C3A13463   7.372  17.611   7.510  0.0641  0.2808  0.0498
  920YOPE   C4A13464   7.381  17.319   7.914  0.1350  0.1741 -0.2054
  920YOPE   C1B13465   7.772  17.029   6.975  0.5090 -0.0533 -0.2796
  920YOPE   C2B13466   7.673  16.707   7.225 -0.1256  0.0027 -0.1840
  920YOPE   D3B13467   7.406  16.623   7.653  0.1961 -0.1725  0.3567
  920YOPE   C4B13468   7.039  16.733   7.953  0.1885 -0.0317  0.0620
  921POPC   NC313469   4.196  16.678   5.540  0.4118 -0.2477 -0.3162
  921POPC   PO413470   4.464  16.627   5.882 -0.0154 -0.1858  0.1189
  921POPC   GL113471   4.361  16.924   6.201  0.3073  0.0379 -0.1541
  921POPC   GL213472   4.366  17.287   6.159  0.1214  0.3134  0.0240
  921POPC   C1A13473   4.070  16.997   6.493 -0.1456 -0.4561 -0.0310
  921POPC   D2A13474   3.967  16.840   6.795 -0.2548  0.0593 -0.1524
  921POPC   C3A13475   3.936  17.039   7.201  0.1084  0.2125  0.0869
  921POPC   C4A13476   3.616  17.233   7.353  0.0796 -0.1480  0.0644
  921POPC   C1B13477   4.626  17.206   6.548 -0.1458  0.1842  0.0836
  921POPC   C2B13478   4.800  17.351   6.973 -0.2163 -0.0167  0.0977
  921POPC   C3B13479   4.856  17.390   7.433  0.1681 -0.0925 -0.2144
  921POPC   C4B13480   4.746  17.665   7.768  0.0994  0.0061 -0.3458
  922POPC   NC313481  11.249   6.520   5.763 -0.3805  0.2814 -0.1396
  922POPC   PO413482  10.835   6.411   5.878 -0.1624  0.0576 -0.3726
  922POPC   GL113483  10.780   6.505   6.456  0.1987  0.1534  0.0587
  922POPC   GL213484  10.496   6.244   6.537 -0.2793 -0.0243 -0.0561
  922POPC   C1A13485  10.917   6.402   6.765 -0.0046  0.4247  0.0841
  922POPC   D2A13486  11.135   6.378   7.187  0.1819  0.0877  0.0494
  922POPC   C3A13487  11.316   5.987   7.427  0.1942  0.1184  0.0730
  922POPC   C4A13488  11.595   5.759   7.607 -0.0888 -0.4160  0.2068
  922POPC   C1B13489  10.616   6.048   6.952  0.3084  0.1474 -0.2119
  922POPC   C2B13490  10.823   5.947   7.334 -0.0105  0.0481 -0.1519
  922POPC   C3B13491  10.869   5.834   7.824  0.1227  0.0060  0.1095
  922POPC   C4B13492  10.724   5.429   7.940 -0.1641 -0.0616 -0.0804
  923POPC   NC313493   4.631  12.520   5.681  0.1455 -0.0806 -0.1343
  923POPC   PO413494   4.773  12.825   5.898 -0.1106  0.0772  0.0115
  923POPC   GL113495   4.842  12.727   6.294  0.1547  0.4611  0.1687
  923POPC   GL213496   4.760  12.413   6.370  0.1508 -0.0033 -0.1062
  923POPC   C1A13497   5.046  12.813   6.632  0.0467 -0.4105 -0.1348
  923POPC   D2A13498   5.096  12.951   6.969  0.0615 -0.2525  0.0598
  923POPC   C3A13499   5.356  12.870   7.297  0.2891  0.1166  0.0158
  923POPC   C4A13500   5.308  12.844   7.725  0.0359 -0.1577  0.0526
  923POPC   C1B13501   4.468  12.487   6.625 -0.0472 -0.2417  0.1730
  923POPC   C2B13502   4.168  12.511   6.980  0.0705 -0.0410 -0.1164
  923POPC   C3B13503   3.977  12.648   7.401 -0.0262  0.2815 -0.0881
  923POPC   C4B13504   4.014  12.685   7.837  0.1507 -0.0592 -0.1628
  924POPC   NC313505   1.252   0.255   6.313 -0.2541  0.0181  0.2630
  924POPC   PO413506   0.868   0.061   6.289  0.1191  0.2162 -0.1102
  924POPC   GL113507   0.942   0.133   6.663  0.1984 -0.0267 -0.0332
  924POPC   GL213508   0.910  -0.163   6.785  0.1747 -0.0298  0.3812
  924POPC   C1A13509   1.308   0.175   6.944  0.1505 -0.1683 -0.0252
  924POPC   D2A13510   1.661   0.370   7.216 -0.4952  0.0817  0.1982
  924POPC   C3A13511   1.736   0.191   7.674  0.0224 -0.3185  0.1663
  924POPC   C4A13512   1.911   0.227   8.177 -0.3146 -0.0579  0.1430
  924POPC   C1B13513   0.892  -0.004   7.228  0.1115  0.2562 -0.1898
  924POPC   C2B13514   0.617   0.097   7.569 -0.0589  0.2302  0.2033
  924POPC   C3B13515   0.261   0.216   7.781  0.0197  0.0682 -0.0190
  924POPC   C4B13516   0.247   0.405   8.158 -0.2120 -0.1075  0.0046
  925POPC   NC313517  14.718  16.958   5.705  0.1795  0.1170 -0.0001
  925POPC   PO413518  15.226  17.126   5.866  0.1335  0.1382 -0.3076
  925POPC   GL113519  15.246  16.998   6.349 -0.0852 -0.4180  0.0109
  925POPC   GL213520  15.375  17.230   6.494  0.1014 -0.0461  0.2453
  925POPC   C1A13521  15.146  16.858   6.777 -0.0661  0.3183  0.2702
  925POPC   D2A13522  15.058  16.588   7.158 -0.5312 -0.0921 -0.2922
  925POPC   C3A13523  14.939  16.554   7.588  0.1228 -0.0832  0.1417
  925POPC   C4A13524  14.764  16.252   7.849  0.2518 -0.3961  0.2559
  925POPC   C1B13525  15.410  17.193   6.995  0.0622  0.0050 -0.2578
  925POPC   C2B13526  15.352  16.994   7.441 -0.1081  0.2712 -0.1240
  925POPC   C3B13527  15.320  16.771   7.858  0.3068  0.2238 -0.1486
  925POPC   C4B13528  15.052  16.755   8.140 -0.0393 -0.0750 -0.1981
  926POPC   NC313529   4.942   8.319   6.344 -0.0098  0.0791  0.0052
  926POPC   PO413530   5.323   8.231   6.445  0.3579 -0.0628  0.1677
  926POPC   GL113531   5.113   8.278   6.857  0.0763 -0.4419  0.0921
  926POPC   GL213532   4.807   8.331   6.843  0.0502  0.0315  0.0764
  926POPC   C1A13533   5.115   8.533   7.260  0.0478  0.0153  0.3880
  926POPC   D2A13534   4.946   8.471   7.677  0.1728  0.1056 -0.2251
  926POPC   C3A13535   4.910   8.643   8.082  0.0339 -0.0281 -0.2284
  926POPC   C4A13536   4.796   8.594   8.493  0.0135  0.2157 -0.0349
  926POPC   C1B13537   4.737   8.212   7.257 -0.0311 -0.3873 -0.0205
  926POPC   C2B13538   4.497   8.118   7.556 -0.0802  0.2209  0.1532
  926POPC   C3B13539   4.384   7.884   7.891  0.0337 -0.1743  0.1662
  926POPC   C4B13540   4.533   7.717   8.184  0.3548 -0.0159  0.0063
  927POPC   NC313541   0.213   4.747   6.114 -0.1401 -0.1892 -0.1743
  927POPC   PO413542   0.640   4.975   6.204 -0.2676  0.0844 -0.2095
  927POPC   GL113543   0.809   4.851   6.614 -0.0893  0.2153 -0.0357
  927POPC   GL213544   0.692   4.554   6.667  0.0482 -0.1267  0.0944
  927POPC   C1A13545   0.800   4.949   7.008 -0.1721 -0.2394  0.0107
  927POPC   D2A13546   0.995   5.120   7.507 -0.0368  0.3438  0.0478
  927POPC   C3A13547   0.998   4.890   7.839 -0.1363  0.0393  0.1033
  927POPC   C4A13548   1.296   4.829   8.112 -0.1084  0.1956  0.0891
  927POPC   C1B13549   0.428   4.564   6.952 -0.3937 -0.1359 -0.0212
  927POPC   C2B13550   0.016   4.634   7.237  0.0081 -0.0654 -0.1473
  927POPC   C3B13551   0.002   4.727   7.603  0.2384 -0.1314 -0.0995
  927POPC   C4B13552   0.142   4.657   7.948  0.1724 -0.1819 -0.0989
  928POPC   NC313553  17.274   3.208   6.142  0.0591  0.0051 -0.0660
  928POPC   PO413554  17.622   3.070   6.341 -0.2544  0.1209 -0.0306
  928POPC   GL113555  17.668   2.946   6.735 -0.1652  0.1120  0.1071
  928POPC   GL213556  17.953   2.834   6.705  0.0968  0.1961  0.1663
  928POPC   C1A13557  17.635   2.799   7.107 -0.1923  0.1161 -0.1100
  928POPC   D2A13558  17.497   2.727   7.568  0.1628 -0.3204 -0.1705
  928POPC   C3A13559  17.329   2.889   7.945  0.2511  0.3007 -0.0836
  928POPC   C4A13560  17.372   2.991   8.373 -0.0362 -0.0902  0.0090
  928POPC   C1B13561  18.211   2.677   7.011  0.1976  0.1754 -0.5014
  928POPC   C2B13562  18.455   2.639   7.407  0.0957  0.2047  0.2314
  928POPC   C3B13563  18.426   2.528   7.753  0.0159 -0.1841  0.1171
  928POPC   C4B13564  18.260   2.145   7.958  0.3075 -0.1348  0.3295
  929POPC   NC313565   9.430   5.010   5.946  0.0204  0.3016 -0.1730
  929POPC   PO413566   9.113   4.757   5.884 -0.0528 -0.0814  0.1955
  929POPC   GL113567   9.051   4.920   6.318  0.0072 -0.2191  0.1891
  929POPC   GL213568   8.959   5.266   6.399 -0.0739 -0.2258  0.2553
  929POPC   C1A13569   8.688   4.791   6.539 -0.0904  0.2322 -0.0140
  929POPC   D2A13570   8.472   4.544   6.826 -0.0739  0.0794 -0.3017
  929POPC   C3A13571   8.743   4.144   6.917 -0.1740 -0.4423  0.0484
  929POPC   C4A13572   8.759   3.704   7.139 -0.2446 -0.3182 -0.0500
  929POPC   C1B13573   9.159   5.084   6.853  0.0031 -0.0824  0.2139
  929POPC   C2B13574   9.139   5.158   7.287 -0.2873  0.1299 -0.1574
  929POPC   C3B13575   9.112   4.950   7.643  0.1998  0.0728 -0.1788
  929POPC   C4B13576   8.907   4.509   7.787 -0.1471 -0.1401 -0.0545
  930POPC   NC313577  11.442  11.934   5.433 -0.2335  0.1356 -0.1744
  930POPC   PO413578  11.161  12.147   5.821  0.0392 -0.4649 -0.0021
  930POPC   GL113579  11.125  11.910   6.198 -0.1310 -0.2532  0.0638
  930POPC   GL213580  10.871  12.095   6.391 -0.0580  0.0233 -0.0032
  930POPC   C1A13581  11.220  11.774   6.581 -0.0925 -0.5530 -0.1806
  930POPC   D2A13582  11.077  11.787   6.931  0.2412  0.1375 -0.2311
  930POPC   C3A13583  11.049  11.289   7.043 -0.2437 -0.0793 -0.2057
  930POPC   C4A13584  11.113  10.973   7.334  0.3481  0.0433  0.1999
  930POPC   C1B13585  10.598  11.987   6.780 -0.1728  0.2228 -0.0504
  930POPC   C2B13586  10.515  11.939   7.208 -0.1280 -0.0407  0.1243
  930POPC   C3B13587  10.498  11.857   7.656  0.1850  0.1017 -0.2867
  930POPC   C4B13588  10.262  11.822   8.000 -0.0905 -0.0535  0.3525
  931POPC   NC313589  10.496  11.211   5.959  0.2608  0.0720 -0.2941
  931POPC   PO413590  10.475  10.762   5.996 -0.1622 -0.3126  0.1722
  931POPC   GL113591  10.584  10.932   6.389  0.0933  0.1595 -0.2080
  931POPC   GL213592  10.764  10.850   6.572  0.1693 -0.0072 -0.0546
  931POPC   C1A13593  10.235  10.936   6.735 -0.2418 -0.0768  0.0074
  931POPC   D2A13594  10.209  11.177   7.178  0.3475  0.1359 -0.0964
  931POPC   C3A13595  10.171  11.567   7.323 -0.1205 -0.0798  0.3574
  931POPC   C4A13596   9.966  11.709   7.627  0.0178 -0.0117 -0.2838
  931POPC   C1B13597  10.616  10.900   7.051  0.0182 -0.1212 -0.1855
  931POPC   C2B13598  10.731  10.711   7.458 -0.1235 -0.1027 -0.0930
  931POPC   C3B13599  10.661  10.901   7.837  0.1262 -0.1848 -0.1354
  931POPC   C4B13600  10.972  10.954   8.180  0.0947 -0.0916  0.0098
  932POPC   NC313601   5.503   9.223   5.332 -0.0510  0.0064  0.2593
  932POPC   PO413602   5.357   9.534   5.778  0.1434  0.3165  0.0980
  932POPC   GL113603   5.201   9.526   6.296  0.0075 -0.1107  0.2316
  932POPC   GL213604   5.005   9.766   6.241 -0.0491 -0.0009  0.0133
  932POPC   C1A13605   5.060   9.213   6.514 -0.1108 -0.1209 -0.2905
  932POPC   D2A13606   5.111   8.925   6.911  0.0156 -0.1989 -0.0225
  932POPC   C3A13607   5.141   9.058   7.390 -0.1681 -0.0629 -0.1582
  932POPC   C4A13608   5.130   9.051   7.803  0.0252 -0.0588 -0.0745
  932POPC   C1B13609   4.679   9.510   6.456 -0.1662 -0.0621  0.0736
  932POPC   C2B13610   4.630   9.274   6.895  0.1139 -0.1805 -0.1394
  932POPC   C3B13611   4.498   9.432   7.248 -0.0091 -0.1016 -0.0503
  932POPC   C4B13612   4.562   9.585   7.694  0.0618 -0.2725 -0.1158
  933POPC   NC313613   1.299   0.862   5.871  0.0082  0.2910 -0.0704
  933POPC   PO413614   1.524   0.555   5.985  0.1005 -0.4427  0.2439
  933POPC   GL113615   1.571   0.741   6.404  0.1996  0.0489 -0.0123
  933POPC   GL213616   1.955   0.881   6.507 -0.1683  0.0035 -0.2910
  933POPC   C1A13617   1.547   0.941   6.732  0.0751  0.2399 -0.0801
  933POPC   D2A13618   1.604   0.916   7.134  0.1499 -0.2173 -0.0212
  933POPC   C3A13619   1.497   0.648   7.575 -0.0316 -0.2667 -0.1301
  933POPC   C4A13620   1.677   0.634   7.999  0.2018 -0.0209 -0.1350
  933POPC   C1B13621   2.007   0.656   7.005  0.1427  0.1462  0.1538
  933POPC   C2B13622   2.249   0.324   7.163 -0.4870  0.1997  0.3093
  933POPC   C3B13623   2.231   0.125   7.524 -0.1790  0.0644  0.1277
  933POPC   C4B13624   2.064  -0.134   7.765  0.1440 -0.0960  0.1343
  934POPC   NC313625   8.464  10.403   5.865  0.0165  0.2020  0.2908
  934POPC   PO413626   8.791  10.736   5.962 -0.3500 -0.2226 -0.0999
  934POPC   GL113627   9.057  10.673   6.344  0.0506 -0.2235  0.1708
  934POPC   GL213628   9.208  10.873   6.408  0.1629 -0.4244  0.2387
  934POPC   C1A13629   8.886  10.615   6.815 -0.3958 -0.0357  0.2362
  934POPC   D2A13630   9.006  10.605   7.138  0.0051  0.0851  0.0180
  934POPC   C3A13631   9.085  10.659   7.575 -0.0282  0.0202  0.0800
  934POPC   C4A13632   8.939  10.695   7.994  0.1502 -0.1468 -0.0565
  934POPC   C1B13633   9.290  10.951   6.907  0.1325 -0.1113 -0.2429
  934POPC   C2B13634   9.286  11.039   7.289 -0.1987  0.2310 -0.0422
  934POPC   C3B13635   9.315  11.055   7.741  0.0890 -0.1090  0.1421
  934POPC   C4B13636   9.203  11.024   8.204  0.1631 -0.2429 -0.1409
  935POPC   NC313637   7.736  14.453   5.774 -0.1290 -0.0647  0.1244
  935POPC   PO413638   7.485  14.098   5.952 -0.1060 -0.0383  0.0869
  935POPC   GL113639   7.574  14.329   6.259  0.0827 -0.1188 -0.2175
  935POPC   GL213640   7.277  14.298   6.527 -0.1774 -0.1528 -0.0717
  935POPC   C1A13641   7.899  14.208   6.530 -0.3039 -0.0358  0.1816
  935POPC   D2A13642   8.020  14.182   6.940  0.0113  0.1051  0.0493
  935POPC   C3A13643   7.679  14.038   7.209  0.2035 -0.2953 -0.1325
  935POPC   C4A13644   7.441  13.863   7.420 -0.2713  0.1103  0.5749
  935POPC   C1B13645   7.243  14.220   6.991  0.0827  0.0288  0.0395
  935POPC   C2B13646   7.317  14.397   7.335 -0.2161  0.0108  0.0808
  935POPC   C3B13647   7.329  14.288   7.714  0.0580  0.1061  0.0222
  935POPC   C4B13648   7.133  14.522   8.079  0.6223  0.0307  0.3407
  936POPC   NC313649   1.766  14.016   5.480  0.0018 -0.2008 -0.0991
  936POPC   PO413650   2.118  13.818   5.717 -0.0550 -0.2406  0.2338
  936POPC   GL113651   2.201  13.917   6.218  0.2775 -0.0022 -0.3344
  936POPC   GL213652   2.402  13.699   6.293  0.0825 -0.0726  0.0170
  936POPC   C1A13653   1.950  13.960   6.717 -0.2400  0.0011  0.1290
  936POPC   D2A13654   1.831  13.697   7.123 -0.1775  0.1012  0.2446
  936POPC   C3A13655   1.656  13.606   7.538 -0.0298  0.1275 -0.1766
  936POPC   C4A13656   1.357  13.611   7.930 -0.1221  0.2171  0.1162
  936POPC   C1B13657   2.359  13.694   6.733  0.0766  0.0853  0.0505
  936POPC   C2B13658   2.314  13.849   7.163  0.3427  0.1479 -0.0246
  936POPC   C3B13659   2.146  13.686   7.592  0.2002  0.1620  0.2302
  936POPC   C4B13660   1.930  13.681   7.940  0.1188 -0.1591  0.0541
  937POPC   NC313661   4.913   9.873   5.769  0.1697  0.0346 -0.1137
  937POPC   PO413662   5.004  10.214   6.014 -0.0521 -0.2209  0.4159
  937POPC   GL113663   5.218  10.204   6.377 -0.1024 -0.0333 -0.1375
  937POPC   GL213664   5.460   9.981   6.499 -0.0360  0.3353 -0.0360
  937POPC   C1A13665   5.160  10.118   6.884 -0.1699  0.0173 -0.2518
  937POPC   D2A13666   5.231   9.937   7.319  0.1055  0.0969 -0.1748
  937POPC   C3A13667   5.483   9.635   7.357  0.1202  0.0556 -0.0433
  937POPC   C4A13668   5.511   9.223   7.065 -0.1823  0.0062 -0.4605
  937POPC   C1B13669   5.270   9.623   6.718 -0.2449 -0.0428 -0.0326
  937POPC   C2B13670   5.081   9.504   7.118  0.1505  0.0554  0.0779
  937POPC   C3B13671   5.026   9.525   7.568  0.1665 -0.2950 -0.2711
  937POPC   C4B13672   4.946   9.504   8.017  0.1808 -0.1476 -0.1082
  938POPC   NC313673  10.266   9.915   5.857  0.0689 -0.2742  0.2777
  938POPC   PO413674   9.877   9.629   6.052 -0.0741  0.0601  0.0056
  938POPC   GL113675  10.016   9.855   6.473 -0.1356  0.2308  0.1020
  938POPC   GL213676   9.781  10.054   6.568 -0.2449  0.2213 -0.0043
  938POPC   C1A13677  10.232   9.893   6.825 -0.0052  0.0488 -0.2596
  938POPC   D2A13678  10.255   9.981   7.279 -0.0239  0.0231 -0.2254
  938POPC   C3A13679  10.206   9.656   7.649 -0.1268 -0.0297 -0.3248
  938POPC   C4A13680  10.567   9.555   7.959 -0.0573  0.1672 -0.0733
  938POPC   C1B13681   9.822   9.885   7.063  0.3070  0.1647  0.0385
  938POPC   C2B13682   9.745   9.931   7.474  0.0185  0.0897 -0.2103
  938POPC   C3B13683   9.506  10.170   7.713  0.3466 -0.2719  0.3313
  938POPC   C4B13684   9.389  10.418   7.991  0.2500  0.0019  0.0631
  939POPC   NC313685  16.624  16.672   5.400  0.1939  0.0976 -0.0904
  939POPC   PO413686  16.842  16.879   5.638 -0.2820 -0.3422 -0.0724
  939POPC   GL113687  16.904  16.651   6.007  0.0280  0.1467  0.0107
  939POPC   GL213688  16.768  16.689   6.284 -0.2414  0.0171  0.0899
  939POPC   C1A13689  17.101  16.329   6.299  0.2174  0.0521  0.1396
  939POPC   D2A13690  17.343  15.999   6.515  0.1662 -0.1059  0.0925
  939POPC   C3A13691  17.241  15.547   6.590 -0.1307  0.0056  0.0374
  939POPC   C4A13692  17.159  15.395   6.882 -0.2683  0.0380 -0.1508
  939POPC   C1B13693  16.764  17.067   6.560  0.0074  0.0722 -0.2594
  939POPC   C2B13694  16.715  17.036   7.004 -0.0802 -0.2253  0.1542
  939POPC   C3B13695  16.992  16.936   7.433 -0.0666 -0.3063 -0.2681
  939POPC   C4B13696  16.873  16.891   7.918 -0.4109  0.2891 -0.0074
  940POPC   NC313697   6.007   1.551   5.726  0.1784  0.0503  0.2362
  940POPC   PO413698   5.721   1.831   6.096 -0.1407  0.1287 -0.0414
  940POPC   GL113699   5.462   1.589   6.416 -0.0483  0.1637 -0.0090
  940POPC   GL213700   5.341   1.342   6.629 -0.0374 -0.0531  0.1383
  940POPC   C1A13701   5.489   1.866   6.782  0.0706  0.0018 -0.1209
  940POPC   D2A13702   5.492   2.184   7.179  0.0677  0.2357  0.3719
  940POPC   C3A13703   5.569   1.975   7.621 -0.3194 -0.2847 -0.1030
  940POPC   C4A13704   5.547   1.849   8.046 -0.0652 -0.2092 -0.3100
  940POPC   C1B13705   5.456   1.305   6.984  0.1283  0.0854  0.1127
  940POPC   C2B13706   5.801   1.193   7.184  0.0804  0.0294 -0.3577
  940POPC   C3B13707   5.825   1.211   7.607  0.2307 -0.1582  0.2221
  940POPC   C4B13708   5.899   1.046   7.946 -0.0020 -0.1169  0.0831
  941POPC   NC313709  16.472  13.350   5.720  0.1445 -0.1339 -0.2577
  941POPC   PO413710  16.809  13.570   5.977 -0.1850 -0.1074 -0.1989
  941POPC   GL113711  16.805  13.355   6.407  0.0332  0.2240 -0.4139
  941POPC   GL213712  17.109  13.236   6.464  0.2422 -0.0992  0.0814
  941POPC   C1A13713  16.658  13.305   6.792  0.2870 -0.1198 -0.1723
  941POPC   D2A13714  16.703  13.445   7.253 -0.6269  0.1283  0.3679
  941POPC   C3A13715  16.961  13.155   7.587 -0.2480 -0.1826  0.2968
  941POPC   C4A13716  16.851  12.781   7.779 -0.1974  0.3092 -0.3342
  941POPC   C1B13717  17.119  12.799   6.731  0.0590  0.0215  0.1927
  941POPC   C2B13718  17.397  12.521   7.005 -0.0777  0.0817  0.1092
  941POPC   C3B13719  17.290  12.382   7.447  0.0241  0.2920  0.0049
  941POPC   C4B13720  17.292  12.531   7.901 -0.2520 -0.1547 -0.1522
  942POPC   NC313721   4.773   5.275   5.716  0.0588  0.2608  0.1074
  942POPC   PO413722   4.487   5.239   6.106 -0.0956  0.0745 -0.0301
  942POPC   GL113723   4.370   5.361   6.546 -0.0229  0.0246  0.1167
  942POPC   GL213724   4.363   5.053   6.814  0.0373 -0.2325 -0.1720
  942POPC   C1A13725   4.130   5.543   6.827 -0.1735  0.0175  0.0121
  942POPC   D2A13726   3.870   5.377   7.113 -0.1544 -0.2869 -0.0923
  942POPC   C3A13727   4.038   5.327   7.617  0.2144 -0.0959 -0.0966
  942POPC   C4A13728   4.061   5.303   8.169  0.2905 -0.4224  0.3040
  942POPC   C1B13729   4.250   5.071   7.215  0.2209 -0.0050  0.3045
  942POPC   C2B13730   4.371   4.933   7.506 -0.1218 -0.1140 -0.1694
  942POPC   C3B13731   4.336   4.623   7.770  0.0196  0.1911 -0.1013
  942POPC   C4B13732   4.182   4.120   7.869 -0.3336  0.0815 -0.1219
  943POPC   NC313733   4.618   5.866   6.494  0.1463 -0.1146  0.1037
  943POPC   PO413734   4.403   6.181   6.285 -0.0916  0.0163 -0.1937
  943POPC   GL113735   3.968   6.289   6.471  0.0372 -0.2500  0.2953
  943POPC   GL213736   3.776   6.552   6.398 -0.1347 -0.0903  0.0484
  943POPC   C1A13737   3.810   6.452   6.917  0.1356 -0.1878 -0.1298
  943POPC   D2A13738   3.770   6.221   7.345  0.0105 -0.0225  0.0929
  943POPC   C3A13739   3.856   5.870   7.375  0.1968  0.2017  0.1033
  943POPC   C4A13740   3.719   5.729   7.781 -0.0071 -0.1241  0.2418
  943POPC   C1B13741   3.373   6.593   6.731  0.0074  0.2203 -0.1626
  943POPC   C2B13742   3.417   6.648   7.140  0.1379 -0.1441 -0.0527
  943POPC   C3B13743   3.590   6.674   7.493  0.2193  0.1314  0.1970
  943POPC   C4B13744   3.840   6.837   7.959 -0.1254 -0.0857 -0.2760
  944POPC   NC313745  17.690  17.703   6.099 -0.4042 -0.0520 -0.1255
  944POPC   PO413746  17.191  17.690   6.008 -0.2162 -0.2971  0.4370
  944POPC   GL113747  17.311  17.628   6.380  0.1943 -0.1352  0.2150
  944POPC   GL213748  17.035  17.463   6.410 -0.2050  0.0844 -0.2288
  944POPC   C1A13749  17.373  17.645   6.830 -0.1067 -0.2087 -0.0921
  944POPC   D2A13750  17.367  18.004   7.130  0.1386  0.1628 -0.1223
  944POPC   C3A13751  17.155  17.807   7.348  0.0126 -0.0752 -0.0023
  944POPC   C4A13752  17.174  17.479   7.577  0.0392  0.2322  0.1316
  944POPC   C1B13753  17.133  17.239   6.825  0.2091 -0.2448  0.0654
  944POPC   C2B13754  17.304  17.128   7.064  0.0238  0.1343  0.2585
  944POPC   C3B13755  17.573  17.170   7.498  0.0123  0.0934 -0.1257
  944POPC   C4B13756  17.924  17.165   7.780 -0.0844  0.1556  0.0128
  945POPC   NC313757   9.853   6.355   6.337 -0.1861  0.0650  0.3318
  945POPC   PO413758  10.013   6.047   6.479 -0.0017 -0.0053  0.0170
  945POPC   GL113759   9.566   6.056   6.658  0.1315 -0.0405 -0.0551
  945POPC   GL213760   9.566   5.785   6.792 -0.2589 -0.1103 -0.0851
  945POPC   C1A13761   9.251   6.186   6.903 -0.1551  0.1974  0.2489
  945POPC   D2A13762   9.473   6.428   7.185 -0.0542 -0.0951 -0.2084
  945POPC   C3A13763   9.439   6.307   7.554  0.0577  0.0803 -0.2600
  945POPC   C4A13764   9.461   6.208   8.038  0.0205 -0.0750  0.0785
  945POPC   C1B13765   9.508   5.911   7.261 -0.2172  0.0493  0.0479
  945POPC   C2B13766   9.682   5.920   7.700 -0.1476  0.0630 -0.3094
  945POPC   C3B13767   9.792   5.694   7.978 -0.0924 -0.2989 -0.1557
  945POPC   C4B13768   9.785   5.287   7.932 -0.3945  0.0802  0.0574
  946POPC   NC313769  15.694  15.002   6.137  0.1741  0.3830 -0.0692
  946POPC   PO413770  15.588  15.360   5.948  0.1639 -0.2381 -0.2044
  946POPC   GL113771  15.496  15.407   6.360 -0.0057  0.1193  0.1239
  946POPC   GL213772  15.822  15.360   6.556  0.1015  0.1156  0.1850
  946POPC   C1A13773  15.250  15.409   6.746  0.1031 -0.0942 -0.1417
  946POPC   D2A13774  15.273  15.667   7.104 -0.1998 -0.1914  0.2982
  946POPC   C3A13775  15.301  15.645   7.472  0.0671  0.2234 -0.0479
  946POPC   C4A13776  15.171  15.464   7.823  0.1922  0.0336  0.2122
  946POPC   C1B13777  15.745  15.414   6.943 -0.0176 -0.0409  0.0596
  946POPC   C2B13778  15.731  15.471   7.335 -0.0895 -0.2601 -0.0071
  946POPC   C3B13779  15.770  15.662   7.626 -0.0906 -0.0322 -0.0387
  946POPC   C4B13780  15.681  15.699   7.949  0.0227 -0.1030 -0.0693
  947POPC   NC313781   1.270   2.769   6.292  0.1119 -0.1132 -0.2740
  947POPC   PO413782   1.033   3.133   6.581  0.0568  0.0649  0.0994
  947POPC   GL113783   1.137   2.924   6.939  0.0662 -0.0926 -0.2364
  947POPC   GL213784   0.860   2.701   7.017  0.1257  0.4766 -0.1842
  947POPC   C1A13785   1.331   2.891   7.368 -0.3412 -0.0457  0.1752
  947POPC   D2A13786   1.278   3.114   7.687  0.3073 -0.1268 -0.2526
  947POPC   C3A13787   1.152   3.007   8.066  0.1037 -0.1978 -0.0728
  947POPC   C4A13788   1.222   2.893   8.458 -0.1434 -0.0063 -0.0024
  947POPC   C1B13789   1.011   2.428   7.415  0.0297 -0.1266 -0.0169
  947POPC   C2B13790   1.270   2.590   7.770  0.1056 -0.2443 -0.0221
  947POPC   C3B13791   1.343   2.512   8.177 -0.3795 -0.1972  0.1954
  947POPC   C4B13792   1.521   2.536   8.520  0.0130  0.0025  0.0778
  948POPC   NC313793   3.907  13.274   5.894 -0.0971  0.0709  0.2271
  948POPC   PO413794   3.672  13.178   6.275 -0.0679  0.1430  0.5443
  948POPC   GL113795   3.723  13.234   6.618 -0.3224 -0.0445  0.0134
  948POPC   GL213796   3.930  13.499   6.679 -0.0148  0.0055  0.1162
  948POPC   C1A13797   3.853  13.173   7.075 -0.1976 -0.3122  0.1348
  948POPC   D2A13798   3.780  13.092   7.492  0.0421 -0.0830 -0.2996
  948POPC   C3A13799   3.940  13.428   7.721  0.2572 -0.0419 -0.0550
  948POPC   C4A13800   4.330  13.493   7.843  0.1159 -0.0092  0.0842
  948POPC   C1B13801   4.001  13.666   7.043 -0.1311 -0.1696 -0.1114
  948POPC   C2B13802   4.251  13.385   7.320 -0.2798  0.0392  0.2912
  948POPC   C3B13803   4.291  13.018   7.615 -0.0849  0.3152 -0.0314
  948POPC   C4B13804   4.259  13.051   8.118 -0.0911 -0.0122  0.1222
  949POPC   NC313805  17.409   9.091   6.088  0.2706  0.1222 -0.1613
  949POPC   PO413806  17.153   9.250   6.354 -0.0547  0.0307 -0.1158
  949POPC   GL113807  17.126   9.480   6.743 -0.0449 -0.2106 -0.0457
  949POPC   GL213808  16.771   9.624   6.727  0.0049 -0.3114  0.0148
  949POPC   C1A13809  17.033   9.470   7.228  0.1290  0.2438  0.1051
  949POPC   D2A13810  17.004   9.497   7.696 -0.1213 -0.0696 -0.2588
  949POPC   C3A13811  16.863   9.100   7.892  0.2299 -0.0528  0.2173
  949POPC   C4A13812  16.571   9.162   8.297 -0.1055 -0.0280 -0.2092
  949POPC   C1B13813  16.824   9.909   7.012 -0.0332 -0.1775  0.2140
  949POPC   C2B13814  16.905   9.931   7.431  0.2714  0.0374 -0.3157
  949POPC   C3B13815  17.151  10.094   7.853  0.0578 -0.1583 -0.1039
  949POPC   C4B13816  17.514  10.210   8.071 -0.3755 -0.1189  0.0693
  950POPC   NC313817   8.461   7.029   6.352  0.0392 -0.2008  0.2870
  950POPC   PO413818   8.615   6.485   6.353  0.3072 -0.0638 -0.0987
  950POPC   GL113819   8.782   6.468   6.844  0.0799  0.2729 -0.4647
  950POPC   GL213820   8.914   6.737   7.016 -0.1481  0.0288  0.1630
  950POPC   C1A13821   8.564   6.408   7.193 -0.0437 -0.2094 -0.0345
  950POPC   D2A13822   8.370   6.531   7.666 -0.0757 -0.1912  0.0909
  950POPC   C3A13823   8.217   6.311   8.012 -0.0456 -0.1199 -0.4086
  950POPC   C4A13824   8.078   6.127   8.345  0.0034 -0.2000  0.1844
  950POPC   C1B13825   8.781   6.782   7.394  0.0937 -0.1426 -0.1973
  950POPC   C2B13826   8.747   6.949   7.808  0.0281  0.1733  0.0726
  950POPC   C3B13827   8.660   7.045   8.313  0.2138 -0.1409  0.1852
  950POPC   C4B13828   8.312   6.894   8.566 -0.2097  0.1275  0.4109
  951POPC   NC313829   2.760   5.673   6.013  0.3465  0.0187  0.0027
  951POPC   PO413830   3.002   5.216   6.132 -0.3022 -0.0894 -0.0498
  951POPC   GL113831   2.981   5.167   6.528  0.2610  0.0855  0.0470
  951POPC   GL213832   3.079   4.889   6.528 -0.0139 -0.3472 -0.1582
  951POPC   C1A13833   2.987   5.336   7.028 -0.0297  0.4394 -0.2103
  951POPC   D2A13834   2.975   5.288   7.471 -0.1552 -0.1882 -0.3536
  951POPC   C3A13835   3.154   5.557   7.675 -0.0963 -0.0301 -0.0240
  951POPC   C4A13836   3.295   5.886   8.017  0.0739  0.1588  0.0223
  951POPC   C1B13837   3.358   5.019   6.817 -0.0311 -0.1664  0.1746
  951POPC   C2B13838   3.425   5.223   7.186  0.3983  0.0793  0.0749
  951POPC   C3B13839   3.578   5.351   7.532 -0.0012 -0.0329  0.0887
  951POPC   C4B13840   3.531   5.289   7.979 -0.2147 -0.1445 -0.1056
  952POPC   NC313841  12.325   9.511   5.496 -0.0649 -0.2712  0.0671
  952POPC   PO413842  12.472   9.578   6.038  0.0031 -0.0448 -0.0068
  952POPC   GL113843  12.565   9.611   6.414  0.0393  0.0803 -0.1287
  952POPC   GL213844  12.328   9.835   6.454  0.0103  0.3582 -0.1954
  952POPC   C1A13845  12.751   9.866   6.781  0.2051 -0.0935 -0.1095
  952POPC   D2A13846  12.672   9.839   7.222 -0.2081  0.1504 -0.0081
  952POPC   C3A13847  12.384   9.542   7.405 -0.1890 -0.1501  0.3597
  952POPC   C4A13848  12.291   9.184   7.595  0.1817  0.1542 -0.4958
  952POPC   C1B13849  12.340  10.140   6.867 -0.1111 -0.1494 -0.2415
  952POPC   C2B13850  12.107  10.488   6.977 -0.0813  0.1315  0.2286
  952POPC   C3B13851  11.876  10.445   7.411 -0.0952 -0.0489 -0.0974
  952POPC   C4B13852  11.663  10.462   7.831  0.1392  0.0305  0.1674
  953POPC   NC313853  13.389  17.716   5.937  0.2048 -0.0995  0.3311
  953POPC   PO413854  13.065  17.431   6.040  0.0733 -0.0169 -0.1136
  953POPC   GL113855  13.042  17.062   6.277  0.3673 -0.2226 -0.0393
  953POPC   GL213856  13.241  16.894   6.328  0.2973 -0.0904  0.1880
  953POPC   C1A13857  12.952  17.054   6.774  0.0490  0.2618  0.0502
  953POPC   D2A13858  12.944  16.784   7.128  0.3301 -0.1627  0.0926
  953POPC   C3A13859  13.063  17.069   7.269  0.2209 -0.3578  0.3235
  953POPC   C4A13860  13.424  17.179   7.630  0.0810  0.2747  0.1140
  953POPC   C1B13861  13.158  16.584   6.614 -0.0622  0.0254  0.3000
  953POPC   C2B13862  13.202  16.396   6.930  0.0042  0.3175  0.2368
  953POPC   C3B13863  13.260  16.246   7.259 -0.1878  0.2076  0.0200
  953POPC   C4B13864  13.623  16.225   7.528  0.1062  0.0154 -0.1320
  954POPC   NC313865  11.761   0.761   5.875 -0.0970  0.1342 -0.0109
  954POPC   PO413866  11.919   1.326   5.744  0.3613  0.0591 -0.2387
  954POPC   GL113867  12.037   1.274   6.200  0.0083  0.2737 -0.1789
  954POPC   GL213868  11.796   1.335   6.429 -0.2503  0.1188 -0.1782
  954POPC   C1A13869  12.053   0.933   6.499  0.0837 -0.0385  0.1297
  954POPC   D2A13870  11.817   0.710   6.798 -0.0634  0.0337  0.2921
  954POPC   C3A13871  11.965   0.844   7.161  0.3306  0.0085 -0.2713
  954POPC   C4A13872  11.940   0.852   7.638  0.0360 -0.0298 -0.0413
  954POPC   C1B13873  11.633   1.154   6.761  0.2200 -0.0608  0.1597
  954POPC   C2B13874  11.461   1.076   7.152 -0.1172  0.0928  0.1259
  954POPC   C3B13875  11.142   1.174   7.596 -0.0737 -0.1351 -0.0687
  954POPC   C4B13876  10.741   0.912   7.632 -0.1183  0.4738  0.1761
  955POPC   NC313877  16.957   7.922   6.204 -0.4684  0.1353  0.3034
  955POPC   PO413878  16.551   8.018   6.319 -0.0162 -0.0404 -0.1172
  955POPC   GL113879  16.635   7.947   6.663 -0.0594 -0.3588  0.1260
  955POPC   GL213880  16.914   7.893   6.688  0.0013  0.1747  0.1258
  955POPC   C1A13881  16.546   7.818   7.113 -0.2571 -0.0852  0.3991
  955POPC   D2A13882  16.762   7.641   7.412 -0.0594  0.0197 -0.0568
  955POPC   C3A13883  16.895   7.747   7.813 -0.0979  0.2002  0.1931
  955POPC   C4A13884  16.764   7.845   8.293 -0.2916 -0.3856 -0.1583
  955POPC   C1B13885  17.082   7.984   7.111  0.3395  0.1710  0.0180
  955POPC   C2B13886  17.178   8.062   7.518 -0.0185  0.1546 -0.0930
  955POPC   C3B13887  17.312   8.016   7.912 -0.2273 -0.3317 -0.0924
  955POPC   C4B13888  17.316   7.731   8.340 -0.1024 -0.2882 -0.2667
  956POPC   NC313889  16.777  12.076   6.111  0.1378 -0.0335  0.0105
  956POPC   PO413890  16.712  11.714   6.278  0.1931 -0.0453  0.0851
  956POPC   GL113891  16.746  11.939   6.629 -0.2131 -0.1881 -0.1638
  956POPC   GL213892  17.041  11.949   6.711 -0.0350  0.3330 -0.2917
  956POPC   C1A13893  16.611  11.951   7.028  0.1680  0.2364 -0.0760
  956POPC   D2A13894  16.686  11.762   7.360  0.1379 -0.2491  0.0313
  956POPC   C3A13895  16.589  11.938   7.659 -0.0125  0.2803  0.2714
  956POPC   C4A13896  16.630  12.027   8.112 -0.0917  0.1933 -0.1133
  956POPC   C1B13897  17.210  11.984   7.103  0.1961  0.0736  0.1480
  956POPC   C2B13898  17.359  11.884   7.524 -0.0422  0.4370  0.1741
  956POPC   C3B13899  17.437  11.559   7.879  0.3337  0.1647  0.0637
  956POPC   C4B13900  17.423  11.368   8.284  0.0340 -0.0124 -0.0688
  957POPC   NC313901  11.047  13.787   5.649  0.0030 -0.0537  0.0136
  957POPC   PO413902  11.114  13.522   5.866 -0.2087  0.0580  0.1921
  957POPC   GL113903  11.218  13.547   6.254 -0.0511 -0.3813 -0.1305
  957POPC   GL213904  11.426  13.421   6.372  0.1444  0.0558  0.0361
  957POPC   C1A13905  11.281  13.805   6.594  0.1148 -0.1637 -0.0553
  957POPC   D2A13906  11.038  14.167   6.625  0.1251 -0.1218 -0.1791
  957POPC   C3A13907  11.075  14.539   6.941 -0.0317  0.1454  0.0228
  957POPC   C4A13908  10.778  14.824   7.196 -0.0838  0.0782  0.1429
  957POPC   C1B13909  11.405  13.309   6.793  0.0637  0.1694  0.0008
  957POPC   C2B13910  11.415  13.288   7.173 -0.1091  0.1713 -0.1411
  957POPC   C3B13911  11.455  13.342   7.610  0.1981  0.1025  0.0224
  957POPC   C4B13912  11.492  13.181   7.978 -0.0439  0.2612  0.1712
  958POPC   NC313913   8.135  13.562   6.005 -0.2016 -0.0674  0.2531
  958POPC   PO413914   8.610  13.362   5.918  0.4818 -0.0239 -0.0771
  958POPC   GL113915   8.745  13.381   6.271 -0.0949  0.1624  0.1896
  958POPC   GL213916   8.585  13.502   6.498 -0.0153 -0.0221 -0.0794
  958POPC   C1A13917   8.822  12.996   6.489  0.0468 -0.1749 -0.1622
  958POPC   D2A13918   8.957  12.557   6.456  0.1507  0.1497 -0.1133
  958POPC   C3A13919   9.101  12.422   6.776 -0.0642  0.2181  0.2278
  958POPC   C4A13920   8.993  12.648   7.156  0.1024  0.1931 -0.1918
  958POPC   C1B13921   8.618  13.259   6.865  0.1406 -0.2663 -0.0216
  958POPC   C2B13922   8.513  13.022   7.329  0.0315 -0.1905 -0.2029
  958POPC   C3B13923   8.659  13.023   7.830 -0.1332  0.1612 -0.1022
  958POPC   C4B13924   8.841  13.260   8.160  0.1409 -0.1869  0.0560
  959POPC   NC313925   5.541   6.873   6.058  0.0132  0.2932 -0.2003
  959POPC   PO413926   5.383   7.237   6.317 -0.0203  0.0722  0.0201
  959POPC   GL113927   5.183   7.133   6.787 -0.2035 -0.1532 -0.2095
  959POPC   GL213928   5.031   7.467   6.803  0.1713  0.1648 -0.2100
  959POPC   C1A13929   5.087   7.060   7.140 -0.1996 -0.0234 -0.2080
  959POPC   D2A13930   5.109   6.976   7.607 -0.0635  0.0873 -0.0692
  959POPC   C3A13931   4.927   6.909   7.986  0.2375 -0.0340 -0.0121
  959POPC   C4A13932   4.661   7.068   8.311 -0.1275  0.0636 -0.0581
  959POPC   C1B13933   5.009   7.761   7.009  0.2729  0.1695  0.0364
  959POPC   C2B13934   5.151   7.924   7.338  0.0178 -0.3424  0.2432
  959POPC   C3B13935   5.024   7.964   7.647 -0.0691  0.0906 -0.1535
  959POPC   C4B13936   4.950   7.912   8.070  0.0448  0.0016  0.1602
  960POPC   NC313937  15.934   1.550   5.920  0.1786  0.2016 -0.0628
  960POPC   PO413938  16.126   1.120   5.840 -0.0152  0.0613  0.0329
  960POPC   GL113939  16.257   0.885   6.134  0.0482  0.0588 -0.3370
  960POPC   GL213940  16.128   1.069   6.358 -0.0334 -0.3381 -0.3826
  960POPC   C1A13941  16.368   0.538   6.537 -0.0335  0.1226 -0.0053
  960POPC   D2A13942  16.031   0.373   6.752  0.0537 -0.3606  0.0169
  960POPC   C3A13943  16.081   0.415   7.187 -0.2112  0.0493  0.1361
  960POPC   C4A13944  16.420   0.706   7.330 -0.2160  0.1279  0.2899
  960POPC   C1B13945  16.136   0.909   6.831  0.0508 -0.1480 -0.0360
  960POPC   C2B13946  15.799   0.777   7.045 -0.0132 -0.2706  0.3145
  960POPC   C3B13947  15.731   0.802   7.505  0.1451  0.3061  0.0460
  960POPC   C4B13948  15.517   0.989   7.877  0.1524  0.2109  0.0241
  961YOPC   NC313949  16.496  14.990   6.017 -0.3412  0.0062 -0.0638
  961YOPC   PO413950  16.675  15.367   6.015 -0.3306  0.2062  0.0877
  961YOPC   GL113951  16.417  15.333   6.376 -0.0663 -0.2327 -0.1525
  961YOPC   GL213952  16.266  15.102   6.433  0.2901 -0.1001 -0.0132
  961YOPC   C1A13953  16.266  15.574   6.716 -0.2018  0.3459  0.0495
  961YOPC   D2A13954  16.229  15.494   7.094 -0.0532 -0.0410 -0.2872
  961YOPC   C3A13955  16.260  15.889   7.453  0.2474  0.0427  0.0358
  961YOPC   C4A13956  16.266  16.319   7.542  0.1001 -0.0230  0.0105
  961YOPC   C1B13957  16.144  15.098   6.841 -0.1151  0.2810  0.1339
  961YOPC   C2B13958  16.054  15.053   7.156 -0.1079  0.0122 -0.2204
  961YOPC   D3B13959  16.082  15.227   7.496 -0.2129  0.2221  0.3229
  961YOPC   C4B13960  16.025  15.250   7.991  0.1333  0.2203 -0.2152
  962YOPC   NC313961  17.830   8.276   6.253  0.0613  0.3325 -0.0811
  962YOPC   PO413962  17.715   8.704   6.040 -0.0191  0.0458  0.0893
  962YOPC   GL113963  17.702   8.702   6.508 -0.0989  0.1713 -0.0234
  962YOPC   GL213964  17.468   8.615   6.604 -0.0333  0.0899 -0.3984
  962YOPC   C1A13965  17.794   8.487   6.936 -0.2247 -0.1094  0.2033
  962YOPC   D2A13966  18.002   8.510   7.273 -0.0779 -0.1436  0.0524
  962YOPC   C3A13967  18.207   8.709   7.514  0.0751  0.2858 -0.1998
  962YOPC   C4A13968  18.242   8.536   7.956 -0.1068  0.0219 -0.1995
  962YOPC   C1B13969  17.475   8.940   6.905 -0.3796 -0.1007 -0.4601
  962YOPC   C2B13970  17.439   9.264   7.064 -0.2079 -0.1085 -0.3687
  962YOPC   D3B13971  17.453   9.473   7.519 -0.1397 -0.0744  0.0696
  962YOPC   C4B13972  17.481   9.721   7.909 -0.0823 -0.0966 -0.3184
  963YOPC   NC313973  12.877  12.069   6.261 -0.0940  0.2708 -0.0931
  963YOPC   PO413974  12.673  12.514   6.057 -0.0224 -0.0205 -0.2811
  963YOPC   GL113975  12.647  12.552   6.463 -0.2867  0.0757 -0.0542
  963YOPC   GL213976  12.420  12.303   6.593 -0.0774 -0.1904  0.0695
  963YOPC   C1A13977  12.702  12.104   6.874 -0.0272  0.1309  0.0214
  963YOPC   D2A13978  12.732  12.103   7.374  0.0709 -0.1263 -0.0379
  963YOPC   C3A13979  12.856  11.956   7.693 -0.1074  0.0001  0.1612
  963YOPC   C4A13980  12.858  11.630   8.044 -0.0385 -0.2544 -0.2569
  963YOPC   C1B13981  12.253  12.377   6.986 -0.0315 -0.0271  0.2019
  963YOPC   C2B13982  12.174  12.564   7.309 -0.1372  0.1559 -0.1822
  963YOPC   D3B13983  12.516  12.442   7.617  0.1708 -0.3731  0.2594
  963YOPC   C4B13984  12.676  12.714   7.907 -0.0472  0.0642 -0.2876
  964YOPC   NC313985   2.916  14.561   6.008  0.1398  0.0146 -0.2589
  964YOPC   PO413986   2.550  14.543   6.010  0.1154 -0.0184  0.0807
  964YOPC   GL113987   2.435  14.407   6.366  0.6099 -0.1311 -0.2919
  964YOPC   GL213988   2.517  14.172   6.635 -0.0786 -0.1635  0.4124
  964YOPC   C1A13989   2.474  14.671   6.776  0.0375 -0.0623 -0.0072
  964YOPC   D2A13990   2.541  14.961   6.968 -0.0346  0.2795  0.1158
  964YOPC   C3A13991   2.502  14.848   7.425  0.1334  0.0385  0.0046
  964YOPC   C4A13992   2.122  14.652   7.741  0.1163 -0.2905  0.2176
  964YOPC   C1B13993   2.704  14.096   6.895 -0.2940 -0.2024  0.1623
  964YOPC   C2B13994   2.744  13.995   7.390 -0.0144 -0.0255 -0.3587
  964YOPC   D3B13995   2.717  14.394   7.733 -0.0174  0.1026  0.2871
  964YOPC   C4B13996   2.601  14.735   7.894  0.1189  0.0107  0.4256
  965YOPC   NC313997   2.714   9.612   6.040  0.2213  0.0806 -0.2724
  965YOPC   PO413998   3.115   9.860   6.050 -0.1294 -0.1188 -0.0017
  965YOPC   GL113999   2.998   9.574   6.451  0.5137  0.2701 -0.0360
  965YOPC   GL214000   2.669   9.639   6.635  0.2815 -0.0820 -0.0424
  965YOPC   C1A14001   3.011   9.523   6.983 -0.1399 -0.2002 -0.1580
  965YOPC   D2A14002   2.991   9.626   7.471  0.1015  0.0311 -0.2878
  965YOPC   C3A14003   3.301   9.479   7.700  0.1183  0.0383 -0.3908
  965YOPC   C4A14004   3.593   9.486   7.957 -0.0427 -0.1000 -0.5949
  965YOPC   C1B14005   2.336   9.552   6.868  0.0909 -0.1441  0.0479
  965YOPC   C2B14006   1.937   9.336   6.919 -0.0295  0.2270 -0.0528
  965YOPC   D3B14007   2.101   8.996   7.222  0.0084 -0.0386 -0.3242
  965YOPC   C4B14008   1.990   8.905   7.721  0.4186 -0.1256  0.1034
  966YOPC   NC314009  10.910   7.999   6.294  0.1755 -0.1020  0.1578
  966YOPC   PO414010  10.522   7.913   6.399 -0.2929 -0.4589 -0.0449
  966YOPC   GL114011  10.465   8.140   6.731 -0.0746 -0.0754  0.2287
  966YOPC   GL214012  10.210   8.258   6.557  0.2163 -0.1773 -0.1341
  966YOPC   C1A14013  10.440   8.363   7.120  0.1551 -0.0619 -0.1017
  966YOPC   D2A14014  10.444   8.314   7.535  0.1119 -0.0258  0.1048
  966YOPC   C3A14015  10.539   8.395   7.950 -0.1534 -0.3790  0.0893
  966YOPC   C4A14016  10.719   8.397   8.343 -0.0866  0.0000 -0.2021
  966YOPC   C1B14017  10.102   8.568   6.851 -0.1115  0.2957  0.1751
  966YOPC   C2B14018   9.693   8.716   6.986  0.1906 -0.1999 -0.1749
  966YOPC   D3B14019   9.821   9.135   6.855  0.1070 -0.1945 -0.1982
  966YOPC   C4B14020   9.599   9.477   6.739  0.0296  0.0270 -0.4904
  967YOPC   NC314021  15.132   3.546   6.156  0.2093  0.2305  0.4218
  967YOPC   PO414022  15.139   3.958   6.438 -0.1322 -0.2554  0.0642
  967YOPC   GL114023  15.163   3.916   6.857 -0.1982  0.2031 -0.0891
  967YOPC   GL214024  15.329   3.653   7.000  0.0287 -0.1851  0.4659
  967YOPC   C1A14025  14.815   3.847   7.139  0.2816 -0.2926  0.0559
  967YOPC   D2A14026  14.591   3.841   7.573  0.1494  0.2581 -0.0683
  967YOPC   C3A14027  14.530   3.907   8.020  0.0113 -0.1864  0.0014
  967YOPC   C4A14028  14.831   4.091   8.354  0.3924  0.0211 -0.0399
  967YOPC   C1B14029  15.294   3.783   7.509 -0.1380 -0.3251  0.1851
  967YOPC   C2B14030  15.531   3.630   7.800 -0.0356  0.1293  0.0624
  967YOPC   D3B14031  15.748   3.896   8.093  0.0847 -0.0728 -0.2046
  967YOPC   C4B14032  16.223   3.871   8.143 -0.1444  0.0916  0.0860
  968YOPC   NC314033  12.014   4.915   5.898  0.0867  0.0418 -0.0252
  968YOPC   PO414034  11.983   5.320   5.838  0.3421  0.0681  0.0332
  968YOPC   GL114035  11.889   5.337   6.216 -0.3902 -0.1518 -0.1541
  968YOPC   GL214036  11.786   5.650   6.379 -0.1539  0.1866  0.1612
  968YOPC   C1A14037  11.865   5.356   6.721  0.1411 -0.0511 -0.2328
  968YOPC   D2A14038  11.645   5.100   7.070  0.1055  0.1372 -0.0341
  968YOPC   C3A14039  11.493   5.256   7.478  0.1977  0.1546  0.0732
  968YOPC   C4A14040  11.141   5.496   7.539  0.2896 -0.0939  0.1103
  968YOPC   C1B14041  11.579   5.824   6.675  0.0799  0.1703 -0.2121
  968YOPC   C2B14042  11.152   5.863   6.737  0.3331 -0.0532  0.3045
  968YOPC   D3B14043  11.028   5.645   7.012 -0.0118 -0.1363  0.1448
  968YOPC   C4B14044  11.064   5.168   7.145 -0.0710 -0.1475  0.1679
  969YOPC   NC314045   6.358   2.791   6.013 -0.1550 -0.0182 -0.1435
  969YOPC   PO414046   6.543   3.225   6.119  0.0018 -0.1006 -0.1650
  969YOPC   GL114047   6.724   3.218   6.557 -0.4979  0.3196  0.0912
  969YOPC   GL214048   6.990   3.470   6.542  0.2755 -0.0878 -0.1354
  969YOPC   C1A14049   6.815   3.367   7.021 -0.0022  0.0459 -0.0789
  969YOPC   D2A14050   7.057   3.409   7.358  0.0666 -0.0496 -0.1985
  969YOPC   C3A14051   6.958   3.464   7.743  0.3439 -0.1215 -0.1448
  969YOPC   C4A14052   6.752   3.395   8.097 -0.2749 -0.1770 -0.0092
  969YOPC   C1B14053   7.159   3.764   6.788 -0.2264  0.0727 -0.0352
  969YOPC   C2B14054   7.403   3.601   7.103 -0.2491 -0.3096  0.1047
  969YOPC   D3B14055   7.435   3.739   7.335 -0.1076  0.1724  0.3583
  969YOPC   C4B14056   7.000   3.910   7.491  0.1915 -0.3318  0.0392
  970YOPC   NC314057  14.742  13.156   5.513  0.1596  0.0285  0.1221
  970YOPC   PO414058  14.755  12.759   5.766  0.2921 -0.1024 -0.1243
  970YOPC   GL114059  14.656  12.762   6.263 -0.2260 -0.4014 -0.2185
  970YOPC   GL214060  14.944  12.882   6.446 -0.2420 -0.0517 -0.0229
  970YOPC   C1A14061  14.526  12.679   6.710  0.2360 -0.0888 -0.1719
  970YOPC   D2A14062  14.561  12.761   7.166 -0.1058 -0.0503 -0.0538
  970YOPC   C3A14063  14.890  13.092   7.229 -0.0389 -0.1023 -0.1915
  970YOPC   C4A14064  15.207  13.015   6.884 -0.4808  0.2188 -0.2996
  970YOPC   C1B14065  14.766  13.110   6.796  0.3541 -0.0894  0.1160
  970YOPC   C2B14066  14.309  13.120   6.898  0.0226  0.1773 -0.0195
  970YOPC   D3B14067  14.306  13.250   7.210 -0.3988 -0.1285  0.3058
  970YOPC   C4B14068  14.434  13.232   7.588 -0.0541 -0.1005 -0.1053
  971YOPC   NC314069   3.876   3.470   5.451  0.0059 -0.3363 -0.1734
  971YOPC   PO414070   3.591   3.405   5.851 -0.0536 -0.0453 -0.2089
  971YOPC   GL114071   3.815   3.430   6.312 -0.0771  0.1800 -0.0973
  971YOPC   GL214072   3.842   3.163   6.517 -0.0216  0.0477  0.4247
  971YOPC   C1A14073   4.147   3.587   6.689  0.2188  0.1034  0.2472
  971YOPC   D2A14074   4.388   3.761   6.946 -0.1065 -0.2167  0.1604
  971YOPC   C3A14075   4.220   3.548   7.370  0.0153 -0.0214  0.3296
  971YOPC   C4A14076   4.355   3.147   7.547  0.0134  0.2483  0.2521
  971YOPC   C1B14077   3.628   3.003   6.842 -0.1051 -0.3397 -0.1806
  971YOPC   C2B14078   3.455   2.743   7.189  0.0597 -0.0502 -0.1213
  971YOPC   D3B14079   3.427   2.808   7.655 -0.0857  0.1190 -0.0000
  971YOPC   C4B14080   3.375   2.605   8.014  0.0199  0.0822  0.3865
  972YOPC   NC314081  17.835   4.119   6.665 -0.1859  0.0296 -0.1647
  972YOPC   PO414082  18.166   4.115   6.382  0.0535 -0.2455 -0.0171
  972YOPC   GL114083  18.125   3.774   6.776 -0.1949  0.1020  0.2729
  972YOPC   GL214084  18.405   3.785   6.789  0.0075  0.0784  0.0660
  972YOPC   C1A14085  18.143   3.604   7.140 -0.1012  0.0671  0.0689
  972YOPC   D2A14086  18.498   3.672   7.412  0.1385 -0.0686 -0.1018
  972YOPC   C3A14087  18.690   4.126   7.611  0.1896  0.3122  0.0292
  972YOPC   C4A14088  18.979   4.335   7.802  0.2820 -0.0162 -0.0717
  972YOPC   C1B14089  18.376   4.102   7.095 -0.0264  0.1454 -0.0815
  972YOPC   C2B14090  18.206   4.140   7.477 -0.3063 -0.1573  0.2883
  972YOPC   D3B14091  18.279   4.169   7.954  0.1745  0.2399  0.0700
  972YOPC   C4B14092  18.602   4.195   8.188 -0.1293 -0.3082  0.0759
  973YOPC   NC314093  12.087  17.018   6.034  0.3150 -0.1339  0.0673
  973YOPC   PO414094  12.129  17.451   6.004 -0.3497 -0.0737 -0.0441
  973YOPC   GL114095  12.064  17.428   6.488 -0.3863 -0.0454  0.2017
  973YOPC   GL214096  12.353  17.509   6.645  0.3063  0.0966  0.1647
  973YOPC   C1A14097  11.783  17.508   6.878 -0.2049  0.0575  0.0663
  973YOPC   D2A14098  11.662  17.606   7.243 -0.4580  0.1442 -0.1468
  973YOPC   C3A14099  11.724  17.705   7.651 -0.0032  0.0961 -0.0133
  973YOPC   C4A14100  11.499  17.709   8.061  0.0702  0.4561 -0.0163
  973YOPC   C1B14101  12.340  17.538   7.025 -0.4163 -0.0500 -0.1106
  973YOPC   C2B14102  12.162  17.565   7.359 -0.0231  0.0447  0.1244
  973YOPC   D3B14103  12.158  17.885   7.590 -0.2927  0.1731  0.0558
  973YOPC   C4B14104  12.011  17.941   8.004  0.1555  0.0808 -0.1519
  974YOPC   NC314105  10.701   4.783   5.627 -0.0531  0.3464  0.0581
  974YOPC   PO414106  10.423   4.868   5.968  0.1343  0.0579  0.0644
  974YOPC   GL114107  10.368   4.609   6.289  0.1763 -0.0286 -0.3764
  974YOPC   GL214108  10.644   4.675   6.467 -0.0710 -0.2202  0.0735
  974YOPC   C1A14109  10.077   4.571   6.735 -0.0156  0.1300 -0.0759
  974YOPC   D2A14110   9.820   4.574   7.198  0.0916  0.2078  0.1814
  974YOPC   C3A14111   9.781   4.428   7.596 -0.0495  0.3791 -0.1874
  974YOPC   C4A14112   9.400   4.611   7.828 -0.1170  0.1937  0.0349
  974YOPC   C1B14113  10.616   4.715   6.902 -0.0680 -0.0807 -0.0142
  974YOPC   C2B14114  10.633   4.741   7.386 -0.2013  0.0409  0.1106
  974YOPC   D3B14115  10.895   4.999   7.663 -0.2249 -0.1180 -0.0121
  974YOPC   C4B14116  11.301   5.026   7.856  0.1058 -0.1372  0.3534
  975YOPC   NC314117  14.958   9.417   6.286  0.1196 -0.1962  0.0528
  975YOPC   PO414118  15.145   9.008   6.299 -0.2262 -0.0743  0.0201
  975YOPC   GL114119  14.713   9.017   6.503  0.4952  0.1840  0.1042
  975YOPC   GL214120  14.615   9.317   6.680  0.2729 -0.0355  0.2435
  975YOPC   C1A14121  14.412   8.953   6.936  0.2659 -0.2607 -0.2005
  975YOPC   D2A14122  14.296   9.120   7.304  0.1049 -0.1381  0.0735
  975YOPC   C3A14123  14.521   9.451   7.382 -0.0801  0.1255  0.0574
  975YOPC   C4A14124  14.670   9.821   7.151  0.0831 -0.2998  0.2600
  975YOPC   C1B14125  14.837   9.248   7.069 -0.0598 -0.1326  0.0191
  975YOPC   C2B14126  15.051   9.523   7.206  0.0933  0.1067  0.0998
  975YOPC   D3B14127  15.147   9.520   7.728  0.0210 -0.1022  0.1362
  975YOPC   C4B14128  15.055   9.714   8.124 -0.4231  0.1238  0.0369
  976YOPC   NC314129  17.770   5.724   6.182 -0.1330  0.0858 -0.0656
  976YOPC   PO414130  17.675   5.435   6.418  0.1191 -0.3512  0.2127
  976YOPC   GL114131  17.409   5.223   6.761 -0.0615 -0.3105 -0.2133
  976YOPC   GL214132  17.698   5.074   6.952  0.0597 -0.2233  0.4749
  976YOPC   C1A14133  17.303   5.416   7.155 -0.0806  0.1477 -0.0646
  976YOPC   D2A14134  17.528   5.565   7.528 -0.0625 -0.0724  0.1825
  976YOPC   C3A14135  17.195   5.647   7.868 -0.2224 -0.0486 -0.1480
  976YOPC   C4A14136  17.057   5.855   8.245  0.4878 -0.0371 -0.0682
  976YOPC   C1B14137  17.692   5.113   7.381 -0.0537 -0.0243  0.0323
  976YOPC   C2B14138  17.714   5.188   7.874 -0.2057  0.2501  0.0912
  976YOPC   D3B14139  17.400   5.187   8.215 -0.1570  0.2062  0.0643
  976YOPC   C4B14140  17.190   4.837   8.580 -0.0315 -0.1354  0.1907
  977YOPC   NC314141   5.835   8.404   6.389 -0.2104  0.1039  0.0191
  977YOPC   PO414142   5.819   8.789   6.162  0.0237 -0.3468  0.1434
  977YOPC   GL114143   5.680   8.905   6.585 -0.1668  0.1208  0.2200
  977YOPC   GL214144   5.935   9.184   6.815 -0.1623 -0.1578 -0.2809
  977YOPC   C1A14145   5.581   8.750   6.973 -0.1812 -0.1349 -0.2394
  977YOPC   D2A14146   5.588   8.780   7.416 -0.0688 -0.0313 -0.0790
  977YOPC   C3A14147   5.618   9.220   7.596  0.3527 -0.0737  0.2540
  977YOPC   C4A14148   5.633   9.624   7.867 -0.2665 -0.3000  0.1668
  977YOPC   C1B14149   6.086   9.083   7.170 -0.4220  0.1180  0.0709
  977YOPC   C2B14150   6.064   8.950   7.604 -0.2526  0.0812  0.1332
  977YOPC   D3B14151   5.746   8.782   7.881 -0.1282  0.1731  0.0710
  977YOPC   C4B14152   5.425   8.725   8.011  0.3795  0.1676  0.0203
  978YOPC   NC314153   3.235   8.114   6.479  0.1717  0.1784  0.0237
  978YOPC   PO414154   2.813   8.055   6.468 -0.0366  0.4529  0.0665
  978YOPC   GL114155   2.386   8.306   6.589  0.1623  0.1682  0.3105
  978YOPC   GL214156   2.275   8.094   6.584 -0.0731  0.2155  0.0588
  978YOPC   C1A14157   2.215   8.347   7.047  0.1149 -0.1124  0.0354
  978YOPC   D2A14158   2.272   8.247   7.449  0.1282 -0.0608 -0.3649
  978YOPC   C3A14159   2.355   7.849   7.702 -0.0172  0.0779  0.3539
  978YOPC   C4A14160   2.349   7.355   7.770 -0.2788  0.1521  0.0679
  978YOPC   C1B14161   2.187   7.804   6.927  0.2342  0.0656  0.0330
  978YOPC   C2B14162   2.417   7.807   7.218 -0.2016 -0.1083  0.0545
  978YOPC   D3B14163   2.713   7.535   7.492 -0.1411 -0.1436 -0.1866
  978YOPC   C4B14164   2.706   7.658   7.952 -0.3085  0.1677 -0.0908
  979YOPC   NC314165   7.791   0.483   5.760  0.2820  0.3374 -0.0787
  979YOPC   PO414166   7.992   0.441   6.047 -0.2318  0.0133 -0.1228
  979YOPC   GL114167   8.269   0.314   6.330 -0.4068  0.2067  0.0603
  979YOPC   GL214168   7.990   0.181   6.471 -0.1795  0.1737 -0.1825
  979YOPC   C1A14169   8.455   0.120   6.716 -0.1259 -0.1647 -0.0251
  979YOPC   D2A14170   8.201   0.080   6.913  0.0491  0.0894  0.3068
  979YOPC   C3A14171   8.283   0.219   7.321  0.1284 -0.2101  0.0678
  979YOPC   C4A14172   8.291   0.410   7.720 -0.0301  0.3480 -0.0943
  979YOPC   C1B14173   7.764  -0.094   6.773  0.0343  0.1547 -0.0496
  979YOPC   C2B14174   7.790  -0.060   7.256  0.0593  0.0691  0.1312
  979YOPC   D3B14175   7.986  -0.035   7.661 -0.1550 -0.4146 -0.2022
  979YOPC   C4B14176   8.153   0.085   8.147  0.0612 -0.0724  0.0212
  980YOPC   NC314177   4.442  16.236   6.157  0.0713  0.2418 -0.4623
  980YOPC   PO414178   4.027  16.058   6.092 -0.0942 -0.2725 -0.1913
  980YOPC   GL114179   3.922  16.036   6.454  0.1312  0.2603 -0.2505
  980YOPC   GL214180   4.089  16.315   6.567 -0.2398  0.0913  0.2047
  980YOPC   C1A14181   4.091  15.755   6.860  0.1239 -0.4363 -0.3858
  980YOPC   D2A14182   4.146  15.405   6.912 -0.0974  0.1289 -0.2788
  980YOPC   C3A14183   4.432  15.357   7.101  0.1706  0.5563  0.0085
  980YOPC   C4A14184   4.264  15.263   7.470 -0.0663 -0.0148  0.0505
  980YOPC   C1B14185   4.430  16.653   6.670  0.0664  0.0992  0.2203
  980YOPC   C2B14186   4.505  16.877   7.032  0.1743  0.0634 -0.0017
  980YOPC   D3B14187   4.351  16.822   7.406  0.1115  0.0010  0.1263
  980YOPC   C4B14188   4.220  16.719   7.787  0.3119 -0.2930 -0.1265
  981YOPC   NC314189   5.663   9.520   6.219 -0.1511  0.2171 -0.3866
  981YOPC   PO414190   5.899   9.931   6.241 -0.2712  0.1672 -0.4524
  981YOPC   GL114191   6.014  10.039   6.617 -0.1576 -0.0148  0.0676
  981YOPC   GL214192   5.809   9.783   6.760  0.0289  0.0067  0.1768
  981YOPC   C1A14193   6.119  10.197   7.065 -0.0505  0.4224 -0.0784
  981YOPC   D2A14194   6.264  10.270   7.510  0.1870  0.1401 -0.0875
  981YOPC   C3A14195   6.428  10.674   7.606  0.2774  0.1053  0.3094
  981YOPC   C4A14196   6.611  11.061   7.747  0.0982  0.0291  0.0598
  981YOPC   C1B14197   5.654   9.962   7.032 -0.0524  0.0743  0.1527
  981YOPC   C2B14198   5.753  10.151   7.445 -0.0197 -0.0739 -0.2767
  981YOPC   D3B14199   5.451  10.157   7.778  0.0261 -0.2307 -0.0628
  981YOPC   C4B14200   5.133  10.001   7.974 -0.2177 -0.0927  0.0285
  982YOPC   NC314201   2.145  17.874   5.874  0.2085 -0.1334 -0.0569
  982YOPC   PO414202   2.414  17.569   5.945  0.1794  0.2095 -0.3652
  982YOPC   GL114203   2.226  17.605   6.399  0.1343  0.1679  0.1688
  982YOPC   GL214204   1.957  17.402   6.604 -0.2080 -0.2455 -0.3661
  982YOPC   C1A14205   2.281  17.702   6.814  0.0315  0.1887  0.2451
  982YOPC   D2A14206   2.294  17.639   7.205 -0.2662  0.3960 -0.2311
  982YOPC   C3A14207   2.457  17.485   7.546  0.0053 -0.1696 -0.0200
  982YOPC   C4A14208   2.727  17.393   7.886  0.1425 -0.1347 -0.0044
  982YOPC   C1B14209   1.945  17.348   7.006 -0.2443  0.0224  0.0423
  982YOPC   C2B14210   1.969  17.354   7.471 -0.0907 -0.2723  0.0461
  982YOPC   D3B14211   1.861  17.196   7.865 -0.1843 -0.0763  0.0068
  982YOPC   C4B14212   1.995  16.887   8.090  0.3484  0.0364 -0.0662
  983YOPC   NC314213   9.078   2.760   6.178  0.0554 -0.0529  0.1989
  983YOPC   PO414214   9.063   3.211   6.253 -0.0632  0.0287  0.0057
  983YOPC   GL114215   9.228   3.295   6.623  0.5355  0.0933  0.2010
  983YOPC   GL214216   9.284   2.955   6.700 -0.0726 -0.1289  0.3050
  983YOPC   C1A14217   9.205   3.596   6.975 -0.0287  0.3326 -0.0011
  983YOPC   D2A14218   9.125   3.700   7.445 -0.3291  0.1550 -0.2218
  983YOPC   C3A14219   8.834   3.605   7.657 -0.1283  0.0001 -0.1627
  983YOPC   C4A14220   8.789   3.598   8.077 -0.3888  0.0667 -0.3345
  983YOPC   C1B14221   9.395   3.131   7.071 -0.3178 -0.3396  0.4908
  983YOPC   C2B14222   9.373   3.117   7.535  0.1446 -0.1341  0.0048
  983YOPC   D3B14223   9.580   3.085   7.959 -0.1382  0.0586  0.3538
  983YOPC   C4B14224   9.721   2.953   8.422  0.1267  0.1345  0.0688
  984YOPC   NC314225   7.765   3.834   5.928  0.1813  0.1610 -0.1774
  984YOPC   PO414226   7.488   3.472   6.301  0.3675 -0.0104 -0.1115
  984YOPC   GL114227   7.520   3.306   6.640  0.1616 -0.3933 -0.1390
  984YOPC   GL214228   7.202   3.133   6.792  0.0073  0.0758  0.2665
  984YOPC   C1A14229   7.835   3.208   6.900  0.2964 -0.2085  0.1024
  984YOPC   D2A14230   7.994   3.108   7.371 -0.2321  0.0114  0.3086
  984YOPC   C3A14231   7.988   3.040   7.881  0.3205 -0.0571 -0.2563
  984YOPC   C4A14232   8.192   3.000   8.374  0.1729 -0.1186 -0.0877
  984YOPC   C1B14233   7.368   3.089   7.119 -0.0474 -0.0991  0.2831
  984YOPC   C2B14234   7.502   3.176   7.544  0.1289 -0.0083  0.0977
  984YOPC   D3B14235   7.259   3.089   7.816  0.1361  0.3041  0.2844
  984YOPC   C4B14236   7.155   3.240   8.319  0.2331  0.1226  0.3320
  985YOPC   NC314237   4.787   2.435   5.325  0.1872  0.0547 -0.3300
  985YOPC   PO414238   4.980   2.153   5.776  0.3249 -0.2407 -0.0761
  985YOPC   GL114239   5.002   2.169   6.191 -0.0312 -0.2165 -0.0542
  985YOPC   GL214240   5.267   2.096   6.342 -0.0015 -0.1733 -0.0973
  985YOPC   C1A14241   4.851   2.247   6.565 -0.0168  0.0368 -0.3507
  985YOPC   D2A14242   4.815   2.220   6.994  0.0762 -0.0289 -0.1478
  985YOPC   C3A14243   4.546   1.905   7.293 -0.0447  0.2734 -0.0228
  985YOPC   C4A14244   4.155   2.008   7.574 -0.1839 -0.0537 -0.3013
  985YOPC   C1B14245   5.005   1.785   6.498 -0.0415  0.0731  0.1796
  985YOPC   C2B14246   5.051   1.609   6.958  0.0459 -0.2788 -0.3504
  985YOPC   D3B14247   5.055   1.908   7.255  0.0808 -0.0222 -0.2212
  985YOPC   C4B14248   5.106   2.149   7.599 -0.1686  0.0959 -0.2454
  986YOPC   NC314249  13.465  11.091   6.161 -0.0269  0.0282  0.1119
  986YOPC   PO414250  13.527  10.731   6.059 -0.2505 -0.1879  0.0832
  986YOPC   GL114251  13.493  10.793   6.575  0.3365  0.0630  0.0648
  986YOPC   GL214252  13.449  10.548   6.692 -0.1833  0.0442 -0.1551
  986YOPC   C1A14253  13.181  10.938   6.831 -0.2927 -0.0667 -0.2248
  986YOPC   D2A14254  13.073  10.956   7.365 -0.3082 -0.0679 -0.1554
  986YOPC   C3A14255  12.785  10.792   7.595  0.0499  0.2212 -0.1729
  986YOPC   C4A14256  12.756  10.415   7.983  0.3211 -0.3004  0.0461
  986YOPC   C1B14257  13.452  10.622   7.114 -0.0726 -0.0973 -0.1907
  986YOPC   C2B14258  13.264  10.483   7.352 -0.2498  0.2021 -0.0203
  986YOPC   D3B14259  13.235  10.729   7.756  0.1799 -0.0773 -0.0853
  986YOPC   C4B14260  13.070  11.213   7.907  0.0557  0.1611 -0.1133
  987YOPC   NC314261   6.738   6.133   6.421  0.2043  0.1071  0.0445
  987YOPC   PO414262   7.027   5.721   6.362  0.2336 -0.2178 -0.2337
  987YOPC   GL114263   6.948   5.703   6.737  0.3496 -0.0520 -0.0745
  987YOPC   GL214264   6.883   5.356   6.801 -0.1423  0.1611 -0.0226
  987YOPC   C1A14265   6.742   5.888   7.081  0.1645 -0.0563 -0.1613
  987YOPC   D2A14266   6.616   5.954   7.528 -0.2166 -0.0450  0.1148
  987YOPC   C3A14267   6.904   5.907   7.719 -0.0301  0.1083 -0.1764
  987YOPC   C4A14268   7.224   6.203   7.745  0.0549 -0.0457 -0.0188
  987YOPC   C1B14269   6.906   5.483   7.280 -0.2322 -0.2413 -0.3052
  987YOPC   C2B14270   7.078   5.421   7.664  0.1284 -0.0589 -0.0037
  987YOPC   D3B14271   6.969   5.264   8.102  0.4586  0.0395  0.1281
  987YOPC   C4B14272   6.970   5.076   8.449 -0.1369  0.1070 -0.1011
  988YOPC   NC314273  13.777  11.846   6.158 -0.0824 -0.1913 -0.1100
  988YOPC   PO414274  13.725  11.438   6.350 -0.1702 -0.1421 -0.2011
  988YOPC   GL114275  13.876  11.631   6.704  0.0340  0.1231  0.0597
  988YOPC   GL214276  14.163  11.880   6.505 -0.2330  0.2870 -0.1719
  988YOPC   C1A14277  13.972  11.603   7.136  0.0475 -0.2271 -0.0957
  988YOPC   D2A14278  13.930  11.638   7.603  0.0246  0.1894 -0.2686
  988YOPC   C3A14279  13.784  11.872   7.958 -0.0575  0.3272 -0.3019
  988YOPC   C4A14280  13.766  11.779   8.427 -0.3852 -0.0957  0.3467
  988YOPC   C1B14281  13.985  12.093   6.790 -0.3510  0.1383  0.0417
  988YOPC   C2B14282  13.961  12.060   7.217  0.0781 -0.2549  0.0315
  988YOPC   D3B14283  14.145  12.102   7.645 -0.0150 -0.2214 -0.0455
  988YOPC   C4B14284  14.108  12.294   8.052  0.2232  0.3224  0.1325
  989YOPC   NC314285   7.745   8.239   6.285 -0.1022  0.2028  0.3644
  989YOPC   PO414286   8.199   8.069   6.259 -0.0964  0.1795 -0.1436
  989YOPC   GL114287   8.403   8.219   6.642 -0.2279 -0.2243 -0.2787
  989YOPC   GL214288   8.628   8.529   6.704 -0.2633  0.0294 -0.5141
  989YOPC   C1A14289   8.425   8.089   7.122  0.4862 -0.0793  0.1879
  989YOPC   D2A14290   8.485   7.847   7.337 -0.0417  0.5461 -0.0816
  989YOPC   C3A14291   8.585   7.882   7.701 -0.0380  0.2228  0.1053
  989YOPC   C4A14292   8.511   7.871   8.084  0.0789 -0.1300  0.5374
  989YOPC   C1B14293   8.687   8.520   7.106 -0.0278  0.1676 -0.1745
  989YOPC   C2B14294   8.638   8.596   7.449 -0.0270  0.0500  0.1490
  989YOPC   D3B14295   8.515   8.321   7.784 -0.1139  0.0627  0.0165
  989YOPC   C4B14296   8.455   8.359   8.199 -0.2150 -0.1227  0.3168
  990YOPC   NC314297  12.935   3.075   6.236 -0.0213  0.1167  0.1398
  990YOPC   PO414298  13.063   2.721   6.245 -0.3391  0.3019  0.2537
  990YOPC   GL114299  13.242   2.948   6.632  0.0701 -0.2766 -0.1260
  990YOPC   GL214300  13.054   3.142   6.713 -0.1185  0.1090 -0.2890
  990YOPC   C1A14301  13.163   2.796   7.053 -0.4369  0.2319 -0.0159
  990YOPC   D2A14302  12.997   2.352   6.926 -0.0727 -0.0463  0.2736
  990YOPC   C3A14303  12.799   2.117   7.275 -0.1158 -0.0962  0.2491
  990YOPC   C4A14304  12.924   1.976   7.490  0.1911 -0.0603 -0.3240
  990YOPC   C1B14305  13.171   3.251   7.242 -0.2867 -0.2004  0.1306
  990YOPC   C2B14306  13.281   3.172   7.708  0.0185 -0.1061 -0.2518
  990YOPC   D3B14307  12.936   3.195   8.148  0.1934 -0.1915 -0.1317
  990YOPC   C4B14308  12.727   2.949   8.370  0.1822 -0.1137 -0.2016
  991YOPC   NC314309  15.548  11.606   5.586  0.3164  0.1626  0.0991
  991YOPC   PO414310  15.328  11.833   5.877  0.1488  0.0553  0.1199
  991YOPC   GL114311  15.417  11.681   6.294  0.2064  0.0548 -0.0829
  991YOPC   GL214312  15.287  11.502   6.478  0.1836  0.0470  0.0405
  991YOPC   C1A14313  15.773  11.582   6.573  0.3221  0.3650 -0.1338
  991YOPC   D2A14314  15.972  11.275   6.867 -0.4091 -0.2531 -0.0894
  991YOPC   C3A14315  15.715  10.860   6.913 -0.1584  0.0869  0.1496
  991YOPC   C4A14316  15.598  10.771   7.352 -0.0001 -0.0056  0.2159
  991YOPC   C1B14317  15.420  11.279   6.939  0.1833 -0.1841 -0.1208
  991YOPC   C2B14318  15.683  11.426   7.239 -0.1255  0.1470  0.0481
  991YOPC   D3B14319  15.489  11.284   7.680 -0.0366  0.0576 -0.2519
  991YOPC   C4B14320  15.580  10.986   7.844 -0.0850 -0.0693  0.2967
  992YOPC   NC314321   6.605   0.542   6.324  0.0131  0.1229  0.1620
  992YOPC   PO414322   6.385   0.321   6.068 -0.1930 -0.0260 -0.1359
  992YOPC   GL114323   6.131   0.350   6.456 -0.1006  0.1959  0.0531
  992YOPC   GL214324   5.973   0.615   6.525 -0.2018 -0.1714  0.0372
  992YOPC   C1A14325   5.842   0.097   6.623  0.2179 -0.0215  0.0405
  992YOPC   D2A14326   5.494  -0.238   6.727  0.2351  0.0288  0.1927
  992YOPC   C3A14327   5.237  -0.399   7.122  0.0216  0.1063 -0.2710
  992YOPC   C4A14328   5.060  -0.847   7.298 -0.0261  0.2200  0.2515
  992YOPC   C1B14329   6.084   0.390   6.921  0.2890  0.0240 -0.2497
  992YOPC   C2B14330   5.862   0.211   7.241 -0.2540 -0.0477 -0.2955
  992YOPC   D3B14331   5.428   0.217   7.070  0.2568 -0.1336  0.0244
  992YOPC   C4B14332   5.049   0.483   7.141  0.0862 -0.2671 -0.0660
  993YOPC   NC314333  11.265   0.320   5.525  0.1252 -0.1654  0.2883
  993YOPC   PO414334  11.156  -0.001   5.829 -0.0726  0.1544  0.1912
  993YOPC   GL114335  11.210   0.131   6.235  0.0244 -0.1258 -0.0805
  993YOPC   GL214336  11.467  -0.076   6.324 -0.0834  0.1915  0.0406
  993YOPC   C1A14337  11.033   0.298   6.550  0.2524  0.2534  0.0236
  993YOPC   D2A14338  10.969   0.409   7.005  0.1436  0.0620 -0.1421
  993YOPC   C3A14339  11.001   0.777   7.098 -0.2829 -0.1014 -0.1354
  993YOPC   C4A14340  10.997   1.180   6.798 -0.0167 -0.2058 -0.0443
  993YOPC   C1B14341  11.305  -0.321   6.689  0.4376  0.1330  0.0828
  993YOPC   C2B14342  11.021  -0.657   6.757  0.2994 -0.0238 -0.0576
  993YOPC   D3B14343  10.986  -0.838   7.211  0.1971 -0.3596  0.1874
  993YOPC   C4B14344  10.800  -0.558   7.515  0.0185  0.0047  0.2929
  994YOPC   NC314345   7.931  10.353   6.186  0.2873  0.3983 -0.0354
  994YOPC   PO414346   7.923  10.770   6.152 -0.2612 -0.1103 -0.1932
  994YOPC   GL114347   7.790  10.653   6.563 -0.0794  0.1126 -0.0264
  994YOPC   GL214348   7.836  10.379   6.689  0.0992 -0.0688  0.1039
  994YOPC   C1A14349   7.900  10.747   6.979  0.0670 -0.2452 -0.1360
  994YOPC   D2A14350   7.683  10.842   7.411  0.0869 -0.3207  0.0091
  994YOPC   C3A14351   7.530  10.585   7.716  0.0298  0.0106 -0.1957
  994YOPC   C4A14352   7.478  10.511   8.134 -0.0241 -0.2538  0.0131
  994YOPC   C1B14353   8.096  10.197   7.075 -0.0797 -0.0697 -0.2252
  994YOPC   C2B14354   7.952   9.874   7.276  0.1894 -0.0900  0.2115
  994YOPC   D3B14355   7.529   9.811   7.363 -0.5481 -0.1001 -0.0241
  994YOPC   C4B14356   7.299  10.124   7.559 -0.0615  0.2510 -0.2613
  995YOPC   NC314357   7.337   6.026   6.129 -0.0796  0.1102 -0.3047
  995YOPC   PO414358   7.168   6.359   6.347 -0.0401 -0.2022  0.2119
  995YOPC   GL114359   7.220   6.116   6.665  0.1050 -0.1373  0.0064
  995YOPC   GL214360   7.472   5.937   6.623 -0.2168  0.0628  0.1930
  995YOPC   C1A14361   7.139   6.166   7.088 -0.2632 -0.0824  0.1758
  995YOPC   D2A14362   6.896   6.318   7.378  0.1059 -0.3521 -0.1999
  995YOPC   C3A14363   6.754   6.773   7.538  0.0415  0.0859 -0.2492
  995YOPC   C4A14364   6.716   7.170   7.727  0.0395  0.0454 -0.1193
  995YOPC   C1B14365   7.681   6.168   6.933 -0.1870 -0.0744 -0.0928
  995YOPC   C2B14366   7.567   6.295   7.332  0.2432 -0.0396  0.2128
  995YOPC   D3B14367   7.749   6.125   7.672  0.0765 -0.1293  0.2734
  995YOPC   C4B14368   7.691   6.128   8.070  0.2244 -0.0845  0.1751
  996YOPC   NC314369   0.530   0.413   6.280 -0.1687 -0.3158  0.1426
  996YOPC   PO414370   0.322  -0.011   6.175 -0.2166 -0.1459 -0.1567
  996YOPC   GL114371   0.463  -0.091   6.573 -0.1668 -0.1617 -0.1249
  996YOPC   GL214372   0.378   0.232   6.716 -0.2093 -0.4533 -0.0744
  996YOPC   C1A14373   0.423  -0.181   7.021  0.0602 -0.0933  0.2186
  996YOPC   D2A14374   0.244  -0.344   7.298 -0.2657  0.0725  0.0176
  996YOPC   C3A14375   0.105  -0.260   7.688  0.3138 -0.2385 -0.0352
  996YOPC   C4A14376   0.096  -0.268   8.114  0.0401 -0.1497  0.0787
  996YOPC   C1B14377   0.530   0.329   7.133 -0.1382 -0.5083 -0.2733
  996YOPC   C2B14378   0.678   0.570   7.470 -0.0436 -0.0074 -0.2653
  996YOPC   D3B14379   0.979   0.408   7.761  0.1375 -0.0083  0.2136
  996YOPC   C4B14380   1.313   0.250   7.951  0.1049  0.0182 -0.4764
  997YOPC   NC314381  10.054   5.225   5.986  0.2186  0.0908 -0.3005
  997YOPC   PO414382   9.890   4.792   5.775  0.3715  0.3738 -0.0348
  997YOPC   GL114383   9.796   4.785   6.219  0.3360 -0.3644  0.0202
  997YOPC   GL214384   9.465   4.707   6.383  0.1618  0.0242 -0.0182
  997YOPC   C1A14385   9.826   5.009   6.564  0.0342  0.3103 -0.0913
  997YOPC   D2A14386   9.641   5.002   6.923  0.4201 -0.0546 -0.2454
  997YOPC   C3A14387   9.602   5.332   7.076 -0.4311 -0.0514 -0.1159
  997YOPC   C4A14388   9.458   5.478   7.555 -0.0405  0.3838  0.0385
  997YOPC   C1B14389   9.585   4.500   6.743  0.1043 -0.1529 -0.1806
  997YOPC   C2B14390   9.330   4.730   7.155 -0.1768  0.0946  0.2690
  997YOPC   D3B14391   8.916   4.449   7.307  0.0942 -0.0471  0.0641
  997YOPC   C4B14392   8.769   4.065   7.505 -0.0782  0.2179 -0.1174
  998YOPC   NC314393  14.176   3.641   6.215  0.2174  0.2734 -0.1922
  998YOPC   PO414394  13.774   3.370   6.121  0.2530 -0.0875 -0.0025
  998YOPC   GL114395  13.892   3.265   6.466  0.0303 -0.1323 -0.1560
  998YOPC   GL214396  13.704   3.197   6.655  0.2073 -0.0033  0.1264
  998YOPC   C1A14397  14.037   3.487   6.867  0.1636 -0.1338 -0.2148
  998YOPC   D2A14398  13.990   3.409   7.168  0.2301 -0.1592 -0.0736
  998YOPC   C3A14399  13.736   3.312   7.478  0.1206 -0.0586 -0.0114
  998YOPC   C4A14400  13.638   3.594   7.832  0.1862 -0.1969  0.1246
  998YOPC   C1B14401  13.585   3.039   7.070 -0.0442 -0.0324 -0.0381
  998YOPC   C2B14402  13.509   2.786   7.434  0.0183  0.2123  0.1095
  998YOPC   D3B14403  13.403   2.726   7.956  0.1975 -0.1100 -0.1887
  998YOPC   C4B14404  13.673   2.716   8.342 -0.0576  0.2910  0.2003
  999YOPC   NC314405  13.187   1.351   5.674 -0.0572  0.0503 -0.2286
  999YOPC   PO414406  13.021   1.322   6.067 -0.4029 -0.2754  0.1602
  999YOPC   GL114407  13.063   0.960   6.257 -0.0362  0.1433  0.0037
  999YOPC   GL214408  12.766   0.882   6.304  0.1156  0.0275 -0.1919
  999YOPC   C1A14409  13.280   0.604   6.480 -0.2114 -0.3298  0.2078
  999YOPC   D2A14410  13.554   0.298   6.706  0.3095 -0.0782 -0.2286
  999YOPC   C3A14411  13.612  -0.132   6.612  0.1674 -0.1756  0.0711
  999YOPC   C4A14412  13.323  -0.444   6.795  0.2001  0.4191 -0.5416
  999YOPC   C1B14413  12.524   1.041   6.627  0.0909 -0.3271 -0.0492
  999YOPC   C2B14414  12.250   1.146   6.928  0.1627  0.3338 -0.2088
  999YOPC   D3B14415  12.415   0.994   7.274  0.1437  0.0613 -0.0604
  999YOPC   C4B14416  12.538   0.981   7.653  0.1343  0.1370 -0.1513
 1000YOPC   NC314417   9.658   1.456   5.965  0.1417  0.1150  0.1102
 1000YOPC   PO414418   9.831   1.163   6.195 -0.0405 -0.0022 -0.2683
 1000YOPC   GL114419   9.537   1.139   6.571 -0.0188  0.2727  0.1965
 1000YOPC   GL214420   9.469   1.408   6.561  0.0362  0.1938 -0.1623
 1000YOPC   C1A14421   9.505   1.228   7.076  0.2221 -0.2976  0.0808
 1000YOPC   D2A14422   9.627   1.163   7.447  0.0547 -0.0650  0.0676
 1000YOPC   C3A14423   9.766   1.429   7.690 -0.0693 -0.0865  0.2718
 1000YOPC   C4A14424   9.779   1.643   8.130 -0.3119  0.2459  0.1286
 1000YOPC   C1B14425   9.809   1.594   6.746  0.0933 -0.1687 -0.1932
 1000YOPC   C2B14426   9.847   1.620   7.182 -0.0576 -0.4412  0.1630
 1000YOPC   D3B14427   9.926   1.966   7.352  0.0935  0.1039 -0.2698
 1000YOPC   C4B14428  10.103   2.268   7.557  0.3349  0.0076  0.2092
 1001YOPC   NC314429   0.585   9.852   5.854 -0.2901 -0.0220 -0.0337
 1001YOPC   PO414430   0.598  10.229   6.034 -0.0347  0.0336 -0.0701
 1001YOPC   GL114431   0.562  10.432   6.443  0.0652  0.1045 -0.3445
 1001YOPC   GL214432   0.811  10.613   6.503  0.0045  0.2930  0.3319
 1001YOPC   C1A14433   0.791  10.268   6.869 -0.0726 -0.1268  0.1063
 1001YOPC   D2A14434   0.761  10.277   7.365 -0.2109 -0.1363  0.2519
 1001YOPC   C3A14435   0.657  10.606   7.505  0.1116 -0.0153 -0.3547
 1001YOPC   C4A14436   0.225  10.763   7.442 -0.2015 -0.0083 -0.1972
 1001YOPC   C1B14437   0.685  10.765   6.925 -0.1503  0.1129  0.1387
 1001YOPC   C2B14438   0.554  11.179   7.308 -0.0503  0.0165  0.0318
 1001YOPC   D3B14439   0.561  11.037   7.732 -0.2593  0.2622 -0.0608
 1001YOPC   C4B14440   0.253  10.895   8.044 -0.2779 -0.0984  0.1568
 1002YOPC   NC314441  11.514   1.293   6.031  0.0333  0.1615 -0.3462
 1002YOPC   PO414442  11.290   0.876   5.788 -0.1117  0.2090  0.3106
 1002YOPC   GL114443  11.229   0.885   6.233  0.3802 -0.1175  0.0750
 1002YOPC   GL214444  11.508   0.860   6.346 -0.1375 -0.1268 -0.2245
 1002YOPC   C1A14445  10.866   0.731   6.525  0.0274 -0.1373 -0.0571
 1002YOPC   D2A14446  10.533   0.720   6.792  0.0088 -0.0186  0.1207
 1002YOPC   C3A14447  10.595   0.579   7.202  0.0661  0.1584  0.3258
 1002YOPC   C4A14448  10.476   0.424   7.616  0.3190 -0.2552 -0.1046
 1002YOPC   C1B14449  11.321   0.762   6.747  0.0629 -0.3299 -0.2382
 1002YOPC   C2B14450  11.464   0.589   7.238  0.1506  0.0758 -0.2745
 1002YOPC   D3B14451  11.437   0.757   7.657  0.0550  0.2261 -0.0447
 1002YOPC   C4B14452  11.179   0.855   7.982 -0.0160  0.1753  0.0288
 1003YOPC   NC314453  16.403   3.560   6.283 -0.0395  0.0341  0.1118
 1003YOPC   PO414454  16.453   3.172   6.177  0.1093  0.0026  0.1985
 1003YOPC   GL114455  16.347   3.033   6.546  0.0485  0.3320  0.1375
 1003YOPC   GL214456  16.013   3.000   6.663  0.2163  0.0394 -0.0968
 1003YOPC   C1A14457  16.476   3.046   6.977  0.0724  0.1060  0.1723
 1003YOPC   D2A14458  16.483   2.994   7.408  0.1724  0.1475  0.1577
 1003YOPC   C3A14459  16.393   3.092   7.814 -0.0905 -0.0306 -0.4016
 1003YOPC   C4A14460  16.400   3.107   8.309  0.0213  0.2867  0.1724
 1003YOPC   C1B14461  16.004   2.999   7.124  0.0033  0.0562  0.1422
 1003YOPC   C2B14462  15.932   3.003   7.588 -0.0457 -0.2481  0.2452
 1003YOPC   D3B14463  15.949   2.622   7.777 -0.0640  0.7467 -0.2033
 1003YOPC   C4B14464  15.640   2.346   7.787 -0.2091 -0.1395  0.1063
 1004YOPC   NC314465   8.993   4.220   5.698 -0.1560 -0.1274  0.2090
 1004YOPC   PO414466   9.065   4.317   6.121  0.1613  0.0903 -0.1267
 1004YOPC   GL114467   9.136   4.365   6.519  0.0728  0.0935 -0.0351
 1004YOPC   GL214468   9.036   4.574   6.768  0.0781  0.1149  0.1112
 1004YOPC   C1A14469   9.301   4.122   6.845  0.1994  0.1681  0.3200
 1004YOPC   D2A14470   9.477   4.240   7.168 -0.1384 -0.4809 -0.0778
 1004YOPC   C3A14471   9.261   4.179   7.583 -0.2315 -0.0325  0.0100
 1004YOPC   C4A14472   9.066   4.058   7.932 -0.3466  0.1317 -0.0531
 1004YOPC   C1B14473   8.778   4.821   7.058 -0.0770 -0.0041 -0.1432
 1004YOPC   C2B14474   8.640   4.854   7.436 -0.0511  0.0684  0.2003
 1004YOPC   D3B14475   8.574   4.852   7.794 -0.1806  0.1013  0.0326
 1004YOPC   C4B14476   8.519   4.593   8.120 -0.0987 -0.2970  0.1303
 1005YOPC   NC314477  12.102   5.789   6.014 -0.0390 -0.0588 -0.3402
 1005YOPC   PO414478  12.486   5.751   6.069 -0.0485 -0.0059  0.2775
 1005YOPC   GL114479  12.295   5.717   6.480  0.2817  0.2278  0.2698
 1005YOPC   GL214480  12.327   5.357   6.533 -0.0436  0.1168 -0.1223
 1005YOPC   C1A14481  12.222   5.661   6.954 -0.1253 -0.0182 -0.1139
 1005YOPC   D2A14482  12.519   5.405   7.322  0.2875 -0.1493  0.2881
 1005YOPC   C3A14483  12.583   5.569   7.694  0.0589  0.0886  0.0113
 1005YOPC   C4A14484  12.499   5.789   8.038  0.1034 -0.0528  0.0099
 1005YOPC   C1B14485  12.709   5.372   6.820  0.0959 -0.1697 -0.2963
 1005YOPC   C2B14486  13.025   5.251   7.105 -0.0231 -0.1652  0.1313
 1005YOPC   D3B14487  12.949   5.209   7.517  0.0112  0.1429  0.1708
 1005YOPC   C4B14488  12.925   4.806   7.790  0.1609 -0.0169 -0.0337
 1006YOPC   NC314489   8.297   8.830   5.789 -0.1018 -0.1805 -0.3198
 1006YOPC   PO414490   8.234   9.154   6.080  0.1848 -0.0264 -0.2826
 1006YOPC   GL114491   8.444   9.180   6.403 -0.1244  0.0820  0.0645
 1006YOPC   GL214492   8.351   8.920   6.603  0.1749 -0.1147  0.1266
 1006YOPC   C1A14493   8.746   9.458   6.705  0.0054  0.0894  0.2054
 1006YOPC   D2A14494   8.929   9.629   7.058 -0.0280  0.0097  0.2979
 1006YOPC   C3A14495   8.812   9.582   7.440  0.1981  0.2905  0.1698
 1006YOPC   C4A14496   8.919   9.404   7.731 -0.0481 -0.1875 -0.0767
 1006YOPC   C1B14497   8.355   8.859   7.043 -0.1526 -0.0529 -0.1725
 1006YOPC   C2B14498   8.317   8.952   7.577  0.0084  0.1727  0.2186
 1006YOPC   D3B14499   8.568   9.060   7.744  0.3301 -0.0020 -0.2173
 1006YOPC   C4B14500   8.754   9.022   8.036  0.1284  0.1732 -0.1633
 1007YOPC   NC314501   3.602   2.940   6.030  0.3747  0.4598 -0.3696
 1007YOPC   PO414502   3.420   2.433   6.003 -0.3463  0.1723 -0.1254
 1007YOPC   GL114503   3.530   2.260   6.450 -0.2692 -0.2128 -0.3465
 1007YOPC   GL214504   3.519   2.467   6.759  0.0440  0.0372 -0.0173
 1007YOPC   C1A14505   3.504   1.935   6.718 -0.0015  0.2181 -0.0592
 1007YOPC   D2A14506   3.503   1.585   6.871  0.3440 -0.4914 -0.0813
 1007YOPC   C3A14507   3.706   1.405   7.247 -0.2702 -0.0879  0.0050
 1007YOPC   C4A14508   3.738   1.318   7.696 -0.3503 -0.2857  0.0014
 1007YOPC   C1B14509   3.837   2.489   6.951  0.3523  0.3454 -0.1887
 1007YOPC   C2B14510   4.064   2.759   7.222 -0.0125 -0.1964 -0.1498
 1007YOPC   D3B14511   4.242   2.635   7.604  0.1135 -0.0985 -0.2952
 1007YOPC   C4B14512   4.307   2.364   7.959  0.0687  0.1795 -0.0703
 1008YOPC   NC314513  17.438  14.164   5.958  0.0527 -0.0061  0.0504
 1008YOPC   PO414514  17.696  13.776   5.930  0.1771 -0.0814 -0.1061
 1008YOPC   GL114515  17.719  13.612   6.299 -0.0522  0.0605 -0.3377
 1008YOPC   GL214516  17.579  13.267   6.327 -0.0936 -0.0254 -0.1094
 1008YOPC   C1A14517  17.999  13.617   6.592 -0.2627  0.0246 -0.1020
 1008YOPC   D2A14518  18.096  13.234   6.635 -0.0591 -0.0367 -0.1793
 1008YOPC   C3A14519  18.046  13.127   7.011  0.0458 -0.4318  0.1737
 1008YOPC   C4A14520  18.261  13.295   7.436  0.2224 -0.0732 -0.2953
 1008YOPC   C1B14521  17.633  13.375   6.844  0.2692 -0.2790  0.1493
 1008YOPC   C2B14522  17.921  13.566   7.171 -0.3274  0.2021 -0.0857
 1008YOPC   D3B14523  17.835  13.727   7.535  0.1225  0.0824  0.0916
 1008YOPC   C4B14524  17.471  13.878   7.675 -0.0012  0.0171  0.0718
 1009YOPC   NC314525   5.313  15.527   5.516  0.0046 -0.0032 -0.0231
 1009YOPC   PO414526   5.206  15.704   5.963 -0.3031  0.1981 -0.2926
 1009YOPC   GL114527   5.126  15.560   6.326 -0.0350 -0.0399  0.1124
 1009YOPC   GL214528   5.317  15.418   6.480 -0.0961 -0.0201 -0.1462
 1009YOPC   C1A14529   5.094  15.815   6.738  0.0363  0.2019 -0.1208
 1009YOPC   D2A14530   4.853  15.971   7.118 -0.3502 -0.2622 -0.0592
 1009YOPC   C3A14531   4.482  15.822   7.245 -0.1798 -0.0064 -0.3077
 1009YOPC   C4A14532   4.012  15.807   7.413 -0.3284 -0.1302 -0.3613
 1009YOPC   C1B14533   5.202  15.367   6.972  0.2034  0.0625  0.0181
 1009YOPC   C2B14534   4.928  15.408   7.276  0.0881 -0.4421 -0.0835
 1009YOPC   D3B14535   4.894  15.851   7.589 -0.1715 -0.1462  0.0717
 1009YOPC   C4B14536   4.735  16.055   7.834 -0.3498  0.2087  0.1275
 1010YOPC   NC314537  15.155  16.417   5.641 -0.0540  0.0813  0.2462
 1010YOPC   PO414538  15.405  16.115   5.883  0.1091  0.0850  0.0928
 1010YOPC   GL114539  15.306  16.345   6.324 -0.0559  0.0644  0.0339
 1010YOPC   GL214540  15.493  16.522   6.410 -0.2266 -0.0090 -0.1093
 1010YOPC   C1A14541  15.269  16.259   6.800  0.1574  0.0579 -0.1558
 1010YOPC   D2A14542  14.991  16.038   7.013  0.0434 -0.2379 -0.1258
 1010YOPC   C3A14543  14.933  16.037   7.428  0.2968 -0.0662  0.0991
 1010YOPC   C4A14544  14.658  15.806   7.682 -0.0388  0.1486  0.0097
 1010YOPC   C1B14545  15.909  16.608   6.651 -0.2516 -0.1299  0.2491
 1010YOPC   C2B14546  16.019  16.431   6.977  0.0159  0.0648 -0.1346
 1010YOPC   D3B14547  15.984  16.693   7.351 -0.0374  0.0859 -0.2125
 1010YOPC   C4B14548  15.809  16.829   7.798  0.0393 -0.0484 -0.0922
 1011YOPC   NC314549   8.799  10.273   6.234  0.0038  0.2936 -0.0040
 1011YOPC   PO414550   8.347  10.098   6.255 -0.0642 -0.0389  0.3383
 1011YOPC   GL114551   8.155  10.064   6.542 -0.0933 -0.1266  0.2207
 1011YOPC   GL214552   8.299   9.869   6.740  0.0451  0.2733 -0.1906
 1011YOPC   C1A14553   7.802   9.861   6.827  0.2755  0.2084  0.0821
 1011YOPC   D2A14554   7.460  10.086   6.913  0.2751  0.0204 -0.2494
 1011YOPC   C3A14555   7.657  10.280   7.292  0.0328  0.0202  0.2374
 1011YOPC   C4A14556   7.960  10.481   7.450  0.3016  0.0260 -0.0327
 1011YOPC   C1B14557   8.465   9.849   7.142  0.2526  0.1551 -0.1151
 1011YOPC   C2B14558   8.491   9.911   7.552 -0.3632 -0.2647  0.0128
 1011YOPC   D3B14559   8.160  10.052   7.691  0.1366  0.2248 -0.0475
 1011YOPC   C4B14560   7.764  10.053   7.859  0.2751 -0.1318  0.4022
 1012YOPC   NC314561   8.312  15.292   6.014  0.2412 -0.0593  0.0390
 1012YOPC   PO414562   8.484  14.949   5.960 -0.0561  0.1136 -0.0821
 1012YOPC   GL114563   8.544  14.648   6.287 -0.1163  0.0687  0.1563
 1012YOPC   GL214564   8.851  14.841   6.373 -0.2820 -0.3591  0.2539
 1012YOPC   C1A14565   8.687  14.500   6.693 -0.0493  0.1054  0.2699
 1012YOPC   D2A14566   8.488  14.423   7.085  0.0326  0.0379  0.2180
 1012YOPC   C3A14567   8.310  14.212   7.327  0.1855 -0.2259 -0.2644
 1012YOPC   C4A14568   8.250  14.159   7.802  0.1029 -0.1194  0.1429
 1012YOPC   C1B14569   9.304  15.093   6.555  0.0641  0.1005 -0.2356
 1012YOPC   C2B14570   9.603  15.211   6.736 -0.0688  0.1502 -0.3546
 1012YOPC   D3B14571   9.583  15.054   7.150  0.2087  0.1752  0.2410
 1012YOPC   C4B14572   9.504  14.764   7.457  0.1661  0.5159 -0.2672
 1013YOPC   NC314573  11.076   2.034   6.186  0.0521 -0.2052 -0.1368
 1013YOPC   PO414574  11.119   1.535   6.208 -0.4482  0.0611 -0.3319
 1013YOPC   GL114575  11.419   1.614   6.529 -0.1753 -0.0345  0.0489
 1013YOPC   GL214576  11.396   1.911   6.569  0.0394 -0.0768 -0.0398
 1013YOPC   C1A14577  11.346   1.539   6.923  0.2229 -0.0194 -0.0357
 1013YOPC   D2A14578  11.376   1.565   7.368  0.2907 -0.0615 -0.2298
 1013YOPC   C3A14579  11.625   1.297   7.678 -0.2553  0.0743 -0.0078
 1013YOPC   C4A14580  11.737   1.520   8.018  0.0184 -0.0625  0.3596
 1013YOPC   C1B14581  11.586   2.043   6.859  0.2538 -0.1041  0.2417
 1013YOPC   C2B14582  11.536   2.083   7.321 -0.0060  0.0955 -0.2906
 1013YOPC   D3B14583  11.384   1.938   7.704  0.2373 -0.0059  0.3648
 1013YOPC   C4B14584  11.219   2.016   8.026 -0.1309  0.1503  0.1038
 1014YOPC   NC314585   7.088   7.928   6.489 -0.2749 -0.1070 -0.0124
 1014YOPC   PO414586   7.493   7.824   6.405 -0.1488 -0.0954 -0.0561
 1014YOPC   GL114587   7.664   7.729   6.827  0.0582  0.1114  0.0589
 1014YOPC   GL214588   7.981   7.918   6.740 -0.0451 -0.1571  0.1275
 1014YOPC   C1A14589   7.438   7.766   7.180 -0.1282 -0.0150  0.1690
 1014YOPC   D2A14590   7.208   7.904   7.433 -0.3940 -0.1610 -0.4487
 1014YOPC   C3A14591   7.166   7.995   7.784  0.0034 -0.3157 -0.1026
 1014YOPC   C4A14592   7.089   8.086   8.154 -0.0180 -0.0776  0.0432
 1014YOPC   C1B14593   7.936   7.947   7.179 -0.1064  0.1477 -0.2069
 1014YOPC   C2B14594   8.096   8.087   7.565  0.2877  0.0552  0.0203
 1014YOPC   D3B14595   8.090   8.090   7.929  0.0478 -0.1720  0.0181
 1014YOPC   C4B14596   7.951   8.365   8.247 -0.1532 -0.0561  0.2235
 1015YOPC   NC314597   7.042   3.365   6.062  0.3088 -0.1497 -0.0206
 1015YOPC   PO414598   7.238   3.003   6.324 -0.2608  0.0789 -0.2087
 1015YOPC   GL114599   7.064   2.561   6.644 -0.1403  0.0986 -0.2123
 1015YOPC   GL214600   6.768   2.252   6.469 -0.0768 -0.2803  0.1622
 1015YOPC   C1A14601   6.958   2.447   7.060  0.3523  0.0544 -0.2372
 1015YOPC   D2A14602   6.926   2.194   7.396  0.2399  0.0395  0.0104
 1015YOPC   C3A14603   6.825   2.353   7.822 -0.1592  0.0945 -0.0783
 1015YOPC   C4A14604   6.781   2.292   8.254 -0.0983  0.2552  0.0140
 1015YOPC   C1B14605   6.766   1.914   6.814  0.0368  0.0286  0.0139
 1015YOPC   C2B14606   6.513   1.833   7.134 -0.0842  0.1676  0.1601
 1015YOPC   D3B14607   6.294   2.063   7.523  0.1582  0.1501 -0.2434
 1015YOPC   C4B14608   6.032   2.215   7.849  0.0689 -0.2983  0.0380
 1016YOPC   NC314609  15.594   4.145   6.494  0.0605 -0.0786  0.1921
 1016YOPC   PO414610  15.734   4.428   6.233  0.1843  0.0544 -0.2574
 1016YOPC   GL114611  15.879   4.569   6.597  0.2797  0.0452  0.0229
 1016YOPC   GL214612  15.745   4.818   6.577 -0.0928 -0.0529  0.0515
 1016YOPC   C1A14613  16.173   4.747   6.865  0.0896 -0.1013  0.2293
 1016YOPC   D2A14614  16.563   4.924   6.774 -0.0531 -0.2038  0.0326
 1016YOPC   C3A14615  16.836   5.104   7.211 -0.1738  0.1646  0.1086
 1016YOPC   C4A14616  16.838   5.533   7.409 -0.0417  0.0118  0.0679
 1016YOPC   C1B14617  15.786   4.990   6.956 -0.2642 -0.3816 -0.1078
 1016YOPC   C2B14618  15.933   5.162   7.308 -0.0269  0.0973 -0.0624
 1016YOPC   D3B14619  15.770   5.190   7.669 -0.2556 -0.0612 -0.2371
 1016YOPC   C4B14620  15.999   4.986   7.867 -0.4570  0.0844  0.1237
 1017YOPC   NC314621  14.498   1.800   5.846  0.0653  0.1941  0.5923
 1017YOPC   PO414622  14.710   1.490   5.919 -0.1268 -0.3290  0.0557
 1017YOPC   GL114623  14.946   1.353   6.295  0.1678  0.0147 -0.1025
 1017YOPC   GL214624  14.840   1.668   6.395  0.0362 -0.2393  0.0960
 1017YOPC   C1A14625  15.178   1.086   6.584 -0.1006 -0.2085 -0.0657
 1017YOPC   D2A14626  15.143   0.916   6.979  0.1227  0.0668  0.2040
 1017YOPC   C3A14627  15.148   0.624   7.314 -0.1266 -0.0961  0.1836
 1017YOPC   C4A14628  15.326   0.509   7.693 -0.0205 -0.1343  0.1347
 1017YOPC   C1B14629  14.958   1.485   6.789  0.2272  0.2194 -0.1283
 1017YOPC   C2B14630  14.827   1.318   7.235 -0.2757  0.2568 -0.1655
 1017YOPC   D3B14631  14.924   1.417   7.617  0.1402 -0.0151 -0.0609
 1017YOPC   C4B14632  15.403   1.495   7.753  0.0734 -0.0976 -0.0144
 1018YOPC   NC314633   3.216   8.829   6.062 -0.3692 -0.3090  0.2416
 1018YOPC   PO414634   3.529   8.495   6.204 -0.1166  0.0045 -0.1128
 1018YOPC   GL114635   3.292   8.750   6.578  0.1655  0.1971 -0.0752
 1018YOPC   GL214636   3.175   8.561   6.814  0.3264 -0.1281 -0.1523
 1018YOPC   C1A14637   3.144   9.054   6.943 -0.0631  0.0003 -0.1282
 1018YOPC   D2A14638   3.077   9.158   7.326  0.2679  0.0054  0.0750
 1018YOPC   C3A14639   2.960   9.159   7.678 -0.1000  0.2760 -0.1682
 1018YOPC   C4A14640   3.071   8.998   8.059 -0.4030  0.1886 -0.3777
 1018YOPC   C1B14641   3.054   8.660   7.257  0.1514 -0.0391 -0.0508
 1018YOPC   C2B14642   3.090   8.615   7.779 -0.0649  0.3775  0.0004
 1018YOPC   D3B14643   3.278   8.526   8.193 -0.2326 -0.0949  0.0590
 1018YOPC   C4B14644   3.318   8.271   8.537  0.1726  0.3436 -0.1040
 1019YOPC   NC314645   4.077   9.307   5.737 -0.2484  0.1171  0.1446
 1019YOPC   PO414646   4.005   9.703   5.953  0.1485 -0.0773  0.0393
 1019YOPC   GL114647   4.259   9.835   6.332  0.3489 -0.0027  0.0582
 1019YOPC   GL214648   4.049  10.122   6.295 -0.0653  0.1259  0.2083
 1019YOPC   C1A14649   4.341   9.807   6.885  0.0626 -0.1164  0.0268
 1019YOPC   D2A14650   4.255   9.861   7.320  0.1996 -0.0884 -0.1060
 1019YOPC   C3A14651   4.046  10.176   7.598  0.1122 -0.0141 -0.0372
 1019YOPC   C4A14652   4.118  10.284   8.020  0.1127  0.1792 -0.1827
 1019YOPC   C1B14653   4.196  10.349   6.699  0.0849 -0.1361  0.0553
 1019YOPC   C2B14654   4.434  10.302   7.057  0.1135  0.1031 -0.0352
 1019YOPC   D3B14655   4.478  10.520   7.519  0.0919 -0.1522 -0.1223
 1019YOPC   C4B14656   4.562  10.548   7.993  0.0638  0.2557 -0.1596
 1020YOPC   NC314657   2.601   7.676   6.208 -0.1058  0.1881  0.1809
 1020YOPC   PO414658   2.666   7.273   6.348  0.1866  0.0101 -0.0576
 1020YOPC   GL114659   2.607   7.407   6.743  0.1508  0.3245  0.1468
 1020YOPC   GL214660   2.311   7.261   6.765 -0.2196  0.0303  0.0396
 1020YOPC   C1A14661   2.928   7.720   7.059  0.1909  0.1474  0.1220
 1020YOPC   D2A14662   3.244   8.065   7.034 -0.0691 -0.0303 -0.2095
 1020YOPC   C3A14663   3.318   8.289   7.416 -0.2084  0.1304 -0.1532
 1020YOPC   C4A14664   3.278   8.127   7.777  0.0828 -0.2157  0.0978
 1020YOPC   C1B14665   2.544   7.169   7.177 -0.0987 -0.2695  0.0442
 1020YOPC   C2B14666   2.652   6.962   7.428 -0.1742 -0.1500  0.0076
 1020YOPC   D3B14667   2.795   7.009   7.916  0.1508 -0.2674 -0.1101
 1020YOPC   C4B14668   2.871   6.762   8.257 -0.0251  0.1633  0.2894
 1021YOPC   NC314669   9.741  13.975   5.702  0.1620  0.2252 -0.0031
 1021YOPC   PO414670   9.574  13.575   5.728 -0.0248 -0.0922 -0.2884
 1021YOPC   GL114671   9.500  13.687   6.097 -0.0799  0.2528  0.2050
 1021YOPC   GL214672   9.787  13.733   6.175 -0.0168  0.1257 -0.0012
 1021YOPC   C1A14673   9.252  13.598   6.566 -0.0434  0.1463  0.0121
 1021YOPC   D2A14674   9.034  13.518   6.856  0.0847  0.1090 -0.2156
 1021YOPC   C3A14675   9.106  13.810   7.186 -0.0398  0.2243 -0.3181
 1021YOPC   C4A14676   9.502  13.789   7.417  0.0987 -0.2440 -0.2711
 1021YOPC   C1B14677   9.721  13.632   6.552  0.1338 -0.1325 -0.1021
 1021YOPC   C2B14678   9.806  13.673   6.946 -0.2916  0.1271  0.0596
 1021YOPC   D3B14679   9.939  13.569   7.325  0.0191  0.1329 -0.3080
 1021YOPC   C4B14680   9.850  13.547   7.775  0.0253 -0.0760  0.0161
 1022YOPC   NC314681   9.299   9.496   5.958 -0.0933  0.1082  0.3231
 1022YOPC   PO414682   8.971   9.834   6.042  0.2556  0.0913 -0.1923
 1022YOPC   GL114683   9.003   9.902   6.513 -0.1226 -0.0063  0.1648
 1022YOPC   GL214684   8.731  10.118   6.666 -0.0155  0.1023 -0.3000
 1022YOPC   C1A14685   9.303   9.871   6.916 -0.3400 -0.0234  0.3737
 1022YOPC   D2A14686   9.380   9.603   7.342 -0.0769  0.1666 -0.2584
 1022YOPC   C3A14687   9.316   9.683   7.813 -0.2074 -0.4593  0.2174
 1022YOPC   C4A14688   9.248   9.497   8.198 -0.0427  0.0774  0.0014
 1022YOPC   C1B14689   8.938  10.117   7.066  0.2906 -0.1310 -0.2106
 1022YOPC   C2B14690   9.142  10.196   7.347 -0.0558  0.0860 -0.2632
 1022YOPC   D3B14691   9.012  10.109   7.705  0.3132 -0.2434  0.1662
 1022YOPC   C4B14692   8.992  10.123   8.129  0.1474  0.3480 -0.3533
 1023YOPC   NC314693  10.771   9.292   6.295 -0.0713  0.0363  0.0927
 1023YOPC   PO414694  10.252   9.274   6.290 -0.1004 -0.0897  0.0427
 1023YOPC   GL114695  10.368   9.348   6.685 -0.0024 -0.2759 -0.1366
 1023YOPC   GL214696  10.715   9.609   6.674  0.3126 -0.0343 -0.0447
 1023YOPC   C1A14697  10.256   9.012   6.952 -0.0462 -0.1475  0.1022
 1023YOPC   D2A14698  10.118   8.850   7.326  0.0214 -0.3861  0.0677
 1023YOPC   C3A14699   9.914   9.130   7.627 -0.0924 -0.0107  0.2590
 1023YOPC   C4A14700   9.802   9.444   7.959 -0.1115  0.0825  0.2107
 1023YOPC   C1B14701  10.723   9.921   7.073  0.0992  0.0079  0.0840
 1023YOPC   C2B14702  11.015  10.186   7.375  0.1988  0.1765  0.0319
 1023YOPC   D3B14703  11.190  10.124   7.725  0.3563 -0.1461  0.3300
 1023YOPC   C4B14704  11.276  10.527   8.088 -0.0222  0.4826  0.0762
 1024YOPC   NC314705   6.246   3.671   5.913 -0.0935 -0.1427 -0.0616
 1024YOPC   PO414706   6.603   3.707   6.159 -0.2155  0.2262 -0.4629
 1024YOPC   GL114707   6.719   3.951   6.515 -0.0572  0.1372 -0.2774
 1024YOPC   GL214708   6.629   3.783   6.797 -0.1423  0.2195  0.3364
 1024YOPC   C1A14709   6.731   4.223   6.882  0.0376 -0.0784 -0.0076
 1024YOPC   D2A14710   6.495   4.556   7.128 -0.1974 -0.3079 -0.2691
 1024YOPC   C3A14711   6.310   4.682   7.493  0.3012  0.2676  0.0265
 1024YOPC   C4A14712   6.206   4.532   7.891 -0.0394 -0.1396 -0.0720
 1024YOPC   C1B14713   6.648   3.811   7.168  0.0149  0.0506  0.2319
 1024YOPC   C2B14714   6.592   4.154   7.417  0.1158  0.1157 -0.0014
 1024YOPC   D3B14715   6.892   4.480   7.418 -0.2514  0.0679  0.3339
 1024YOPC   C4B14716   7.014   4.637   7.103 -0.0286 -0.1108  0.0067
 1025YOPC   NC314717  17.501  15.487   5.787  0.0196  0.3311  0.0374
 1025YOPC   PO414718  17.675  15.889   5.785 -0.1081  0.0504  0.0170
 1025YOPC   GL114719  17.876  16.045   6.156 -0.1094 -0.1934  0.0142
 1025YOPC   GL214720  18.154  15.966   6.215  0.0810 -0.0640 -0.1600
 1025YOPC   C1A14721  17.860  16.029   6.556  0.1498  0.1324 -0.0157
 1025YOPC   D2A14722  17.910  15.821   6.969 -0.0308 -0.0674  0.0202
 1025YOPC   C3A14723  18.295  15.887   7.193 -0.0036  0.0471  0.1349
 1025YOPC   C4A14724  18.393  15.735   7.596  0.1623 -0.0934 -0.0207
 1025YOPC   C1B14725  18.375  15.777   6.526 -0.0577  0.2739  0.0104
 1025YOPC   C2B14726  18.752  15.465   6.687 -0.2183 -0.0342 -0.1210
 1025YOPC   D3B14727  19.093  15.585   6.855  0.3153  0.1985  0.2079
 1025YOPC   C4B14728  19.296  15.454   7.205 -0.0164  0.1236 -0.2755
 1026YOPC   NC314729  12.088  15.847   6.152  0.0749 -0.1420  0.2063
 1026YOPC   PO414730  11.741  15.649   6.303  0.0383  0.1447  0.0703
 1026YOPC   GL114731  11.814  15.743   6.661 -0.0318 -0.1092  0.0847
 1026YOPC   GL214732  12.076  15.929   6.684  0.0593 -0.1557  0.3802
 1026YOPC   C1A14733  11.540  15.871   7.053 -0.2561  0.0968 -0.0795
 1026YOPC   D2A14734  11.494  15.840   7.438  0.0468  0.0204  0.0319
 1026YOPC   C3A14735  11.684  15.941   7.870 -0.1821  0.1000  0.0600
 1026YOPC   C4A14736  11.680  16.341   8.014  0.0539  0.3465  0.0252
 1026YOPC   C1B14737  12.063  16.199   7.009 -0.1008  0.0627 -0.2329
 1026YOPC   C2B14738  11.971  16.133   7.491  0.1101 -0.1869  0.2187
 1026YOPC   D3B14739  12.214  16.414   7.738 -0.2752 -0.1795  0.4944
 1026YOPC   C4B14740  12.558  16.501   7.911 -0.2300  0.0886 -0.0902
 1027YOPC   NC314741   5.139   4.540   6.324  0.1545 -0.0190 -0.1010
 1027YOPC   PO414742   5.035   4.199   6.135 -0.4440 -0.0050  0.1517
 1027YOPC   GL114743   4.956   4.166   6.619 -0.0274 -0.0724  0.1002
 1027YOPC   GL214744   4.677   4.115   6.760  0.3099 -0.2840 -0.0310
 1027YOPC   C1A14745   5.139   4.253   7.125  0.0843  0.1776  0.0508
 1027YOPC   D2A14746   5.523   4.024   7.373 -0.0229 -0.0942 -0.2096
 1027YOPC   C3A14747   5.530   4.028   7.822 -0.0617  0.1699 -0.0309
 1027YOPC   C4A14748   5.538   3.679   8.142  0.1178 -0.3875 -0.2754
 1027YOPC   C1B14749   4.682   4.091   7.160  0.3934 -0.4032 -0.2334
 1027YOPC   C2B14750   4.490   4.094   7.501  0.2450  0.1595  0.1119
 1027YOPC   D3B14751   4.669   4.123   7.903  0.0713  0.1325  0.0270
 1027YOPC   C4B14752   4.749   4.089   8.353 -0.0113  0.2147  0.1031
 1028YOPC   NC314753   6.989   9.020   6.108 -0.0957  0.2477 -0.0698
 1028YOPC   PO414754   7.185   9.329   6.273 -0.0209 -0.1665 -0.2818
 1028YOPC   GL114755   7.058   9.134   6.606 -0.1207 -0.2884  0.2216
 1028YOPC   GL214756   6.727   8.938   6.675  0.0060  0.0319  0.1236
 1028YOPC   C1A14757   7.323   8.910   6.910 -0.0645  0.1898 -0.1409
 1028YOPC   D2A14758   7.380   8.927   7.358 -0.1097 -0.0257 -0.3065
 1028YOPC   C3A14759   7.441   8.952   7.772  0.1021 -0.1718  0.1664
 1028YOPC   C4A14760   7.771   8.880   8.019 -0.1037 -0.0459  0.0585
 1028YOPC   C1B14761   6.675   8.837   7.005  0.1554 -0.2132  0.1248
 1028YOPC   C2B14762   6.460   8.680   7.406  0.1390  0.1798 -0.1305
 1028YOPC   D3B14763   6.558   8.701   7.754  0.0968  0.1370 -0.1732
 1028YOPC   C4B14764   6.318   8.854   8.100  0.2546 -0.0528 -0.0020
 1029YOPC   NC314765  12.463   8.335   6.259  0.1193  0.0529  0.2327
 1029YOPC   PO414766  12.063   8.625   6.400  0.1860  0.1576 -0.1295
 1029YOPC   GL114767  12.043   8.713   6.717  0.0659 -0.1865  0.0079
 1029YOPC   GL214768  12.200   9.068   6.716 -0.2710  0.0412  0.0503
 1029YOPC   C1A14769  11.960   8.671   7.192 -0.3480 -0.2434 -0.1157
 1029YOPC   D2A14770  12.026   8.714   7.666 -0.2545  0.0936  0.2884
 1029YOPC   C3A14771  11.773   9.038   7.885  0.0342  0.0830  0.2249
 1029YOPC   C4A14772  11.493   9.371   8.044 -0.1055 -0.0572  0.2587
 1029YOPC   C1B14773  12.428   8.930   7.061 -0.1908  0.0185 -0.0239
 1029YOPC   C2B14774  12.494   8.734   7.390 -0.2083 -0.2609  0.0065
 1029YOPC   D3B14775  12.637   8.877   7.851  0.0619  0.1359  0.1300
 1029YOPC   C4B14776  13.080   8.872   8.073 -0.0554  0.0286  0.1616
 1030YOPC   NC314777   1.966   9.062   6.266 -0.0144  0.0063 -0.1272
 1030YOPC   PO414778   1.840   8.696   6.464  0.0010  0.0407  0.0094
 1030YOPC   GL114779   1.851   8.377   6.747  0.1222 -0.1400 -0.0589
 1030YOPC   GL214780   1.826   8.606   6.941 -0.0446 -0.1703  0.0340
 1030YOPC   C1A14781   1.754   8.128   7.059 -0.1190  0.0766  0.1503
 1030YOPC   D2A14782   1.865   7.929   7.417  0.1133  0.2353  0.0903
 1030YOPC   C3A14783   1.941   8.120   7.831  0.0257 -0.1722  0.3739
 1030YOPC   C4A14784   1.863   8.133   8.191  0.1832 -0.2439  0.1850
 1030YOPC   C1B14785   1.741   8.561   7.436  0.1543 -0.0884  0.1935
 1030YOPC   C2B14786   1.487   8.241   7.663 -0.1710  0.1204  0.0110
 1030YOPC   D3B14787   1.383   7.825   7.598 -0.0555 -0.1650 -0.1838
 1030YOPC   C4B14788   1.085   7.570   7.457  0.0409 -0.2881  0.4386
 1031YOPC   NC314789   3.401   1.220   5.953  0.0267  0.0504 -0.0268
 1031YOPC   PO414790   3.826   1.349   6.044  0.2506 -0.1495 -0.0089
 1031YOPC   GL114791   3.632   1.366   6.377 -0.4273  0.2202  0.1311
 1031YOPC   GL214792   3.362   1.504   6.391  0.2093  0.1105  0.1808
 1031YOPC   C1A14793   3.940   1.310   6.783 -0.0323  0.1089  0.0129
 1031YOPC   D2A14794   4.115   1.080   7.186 -0.5541  0.0835 -0.0104
 1031YOPC   C3A14795   4.166   0.678   7.369  0.0735  0.1512 -0.0545
 1031YOPC   C4A14796   4.071   0.273   7.365 -0.0727 -0.3776  0.0103
 1031YOPC   C1B14797   3.020   1.535   6.705  0.2536 -0.0018  0.1271
 1031YOPC   C2B14798   3.084   1.486   7.151  0.1180 -0.1513 -0.0154
 1031YOPC   D3B14799   3.226   1.240   7.590 -0.1766 -0.0528  0.0051
 1031YOPC   C4B14800   3.222   1.007   7.906  0.0046  0.2059  0.0090
 1032YOPC   NC314801   4.187   6.690   6.121 -0.3206 -0.3214 -0.3383
 1032YOPC   PO414802   4.697   6.624   6.350  0.0845  0.2053  0.1201
 1032YOPC   GL114803   4.680   6.405   6.698 -0.1940  0.0089 -0.4130
 1032YOPC   GL214804   4.936   6.274   6.717 -0.1876  0.3004 -0.0475
 1032YOPC   C1A14805   4.797   6.529   7.197  0.0166 -0.3494  0.2174
 1032YOPC   D2A14806   4.685   6.583   7.694  0.0254  0.0863 -0.1300
 1032YOPC   C3A14807   4.539   6.308   7.974  0.2921  0.0618  0.1410
 1032YOPC   C4A14808   4.644   6.256   8.397  0.0605 -0.1416 -0.0805
 1032YOPC   C1B14809   5.082   6.085   7.077 -0.0229 -0.3649 -0.2257
 1032YOPC   C2B14810   5.004   6.127   7.474 -0.1538  0.0538 -0.1326
 1032YOPC   D3B14811   4.679   5.822   7.739 -0.1734 -0.1389  0.1205
 1032YOPC   C4B14812   4.424   5.587   7.923 -0.1561  0.0144 -0.3159
 1033YOPC   NC314813  15.994   2.055   6.173  0.0764 -0.3216  0.2483
 1033YOPC   PO414814  16.250   2.430   5.974  0.1358 -0.1062 -0.1778
 1033YOPC   GL114815  16.210   2.516   6.432  0.5233 -0.1268 -0.2515
 1033YOPC   GL214816  15.871   2.456   6.508 -0.1755  0.2052 -0.0215
 1033YOPC   C1A14817  16.236   2.591   6.846 -0.1104  0.1644  0.2462
 1033YOPC   D2A14818  16.261   2.513   7.265  0.2462  0.3818 -0.1683
 1033YOPC   C3A14819  16.483   2.638   7.696  0.0500  0.1667 -0.0755
 1033YOPC   C4A14820  16.329   2.586   8.165 -0.0100 -0.2134  0.1027
 1033YOPC   C1B14821  15.860   2.276   6.827  0.1011  0.1658  0.0694
 1033YOPC   C2B14822  15.828   2.309   7.277  0.0354 -0.4282 -0.1077
 1033YOPC   D3B14823  16.191   2.190   7.633  0.3166  0.0910 -0.2206
 1033YOPC   C4B14824  16.386   1.950   7.850 -0.2886  0.0807 -0.0753
 1034YOPC   NC314825  17.501  14.667   6.041  0.2111 -0.3031 -0.1245
 1034YOPC   PO414826  17.887  14.445   6.156 -0.3380  0.0904 -0.3134
 1034YOPC   GL114827  17.934  14.257   6.505  0.1618  0.0259 -0.0907
 1034YOPC   GL214828  17.628  14.120   6.400  0.0477  0.1166 -0.2196
 1034YOPC   C1A14829  17.918  14.416   6.832  0.0552  0.1180  0.0390
 1034YOPC   D2A14830  17.907  14.706   7.249 -0.0465  0.1558 -0.0836
 1034YOPC   C3A14831  18.032  14.738   7.556  0.2223  0.1655  0.1053
 1034YOPC   C4A14832  18.351  14.850   7.770 -0.2168 -0.2690  0.2447
 1034YOPC   C1B14833  17.667  13.958   6.799 -0.1391  0.0223 -0.0025
 1034YOPC   C2B14834  17.464  13.903   7.141  0.2063  0.0862  0.0708
 1034YOPC   D3B14835  17.437  13.460   7.271 -0.2451 -0.0553 -0.1476
 1034YOPC   C4B14836  17.743  13.226   7.471  0.1514 -0.0337 -0.1914
 1035YOPC   NC314837   0.200  10.559   5.938 -0.3009  0.1746 -0.1674
 1035YOPC   PO414838   0.069  10.330   6.240  0.0553  0.0672  0.2572
 1035YOPC   GL114839   0.007  10.169   6.712 -0.0791 -0.3324  0.0273
 1035YOPC   GL214840   0.344  10.062   6.781  0.2185  0.0917  0.2659
 1035YOPC   C1A14841  -0.302  10.294   7.041 -0.2603 -0.0223 -0.0892
 1035YOPC   D2A14842  -0.697  10.376   7.205  0.0738  0.1768 -0.0216
 1035YOPC   C3A14843  -0.603  10.575   7.632  0.0142  0.0301  0.2764
 1035YOPC   C4A14844  -0.757  10.715   8.041 -0.0154 -0.5296  0.2114
 1035YOPC   C1B14845   0.414   9.976   7.168 -0.0813  0.1716 -0.3899
 1035YOPC   C2B14846   0.476   9.977   7.649 -0.1582  0.0169  0.2227
 1035YOPC   D3B14847   0.059   9.959   7.923 -0.1704  0.2516  0.0340
 1035YOPC   C4B14848  -0.065   9.857   8.338  0.1998 -0.1886 -0.0866
 1036YOPC   NC314849   1.106   4.689   6.216  0.0536 -0.1782 -0.0800
 1036YOPC   PO414850   1.063   4.312   6.526 -0.2092  0.1858 -0.0272
 1036YOPC   GL114851   0.945   4.116   6.788  0.1953  0.1040 -0.3647
 1036YOPC   GL214852   0.926   3.837   7.088  0.0056 -0.2418  0.2257
 1036YOPC   C1A14853   0.886   4.385   7.190 -0.1080 -0.2851  0.1770
 1036YOPC   D2A14854   0.600   4.573   7.417  0.1859  0.1306  0.0041
 1036YOPC   C3A14855   0.631   4.570   7.855  0.1343 -0.2534  0.2085
 1036YOPC   C4A14856   0.615   4.730   8.224  0.1349 -0.0100 -0.0189
 1036YOPC   C1B14857   1.261   3.949   7.432 -0.2964 -0.1857  0.1206
 1036YOPC   C2B14858   1.437   3.858   7.849  0.1260 -0.1032  0.3789
 1036YOPC   D3B14859   1.272   3.962   8.223  0.1784 -0.0017 -0.0057
 1036YOPC   C4B14860   1.250   4.399   8.268  0.1893  0.2621 -0.0521
 1037YOPC   NC314861   6.747  17.443   6.060 -0.1661 -0.1595  0.0823
 1037YOPC   PO414862   6.814  16.990   5.877 -0.1108 -0.0726  0.2575
 1037YOPC   GL114863   6.729  17.012   6.317 -0.5448 -0.0886  0.2326
 1037YOPC   GL214864   6.818  17.379   6.512  0.2164  0.3240 -0.0214
 1037YOPC   C1A14865   6.701  16.704   6.708 -0.1716 -0.0783 -0.0502
 1037YOPC   D2A14866   6.640  16.693   7.107 -0.1734 -0.0990  0.2440
 1037YOPC   C3A14867   6.494  17.071   7.328 -0.1681 -0.0685 -0.2827
 1037YOPC   C4A14868   6.109  17.232   7.223 -0.1987 -0.1435  0.3778
 1037YOPC   C1B14869   6.917  17.672   6.919 -0.0762 -0.1086  0.0405
 1037YOPC   C2B14870   6.943  17.897   7.355 -0.0159  0.2340  0.2114
 1037YOPC   D3B14871   6.878  17.773   7.792  0.1144 -0.0128  0.1300
 1037YOPC   C4B14872   6.846  17.654   8.136  0.0527 -0.1284 -0.0158
 1038YOPC   NC314873  14.578   4.847   5.539 -0.1782 -0.1572  0.0867
 1038YOPC   PO414874  14.692   4.845   5.993  0.0603  0.2002 -0.0798
 1038YOPC   GL114875  14.501   4.752   6.350  0.3470 -0.1071  0.0469
 1038YOPC   GL214876  14.759   4.768   6.542  0.1567  0.5190  0.0980
 1038YOPC   C1A14877  14.330   4.558   6.750  0.2690  0.1131 -0.1866
 1038YOPC   D2A14878  14.116   4.542   7.118  0.0831  0.2491 -0.0391
 1038YOPC   C3A14879  14.329   4.689   7.526  0.1751  0.1439 -0.1029
 1038YOPC   C4A14880  14.225   4.842   7.869  0.2302  0.0924 -0.0702
 1038YOPC   C1B14881  14.836   4.751   6.993  0.2927  0.0409 -0.0051
 1038YOPC   C2B14882  14.795   4.850   7.399  0.3738 -0.1656  0.2303
 1038YOPC   D3B14883  14.943   4.741   7.851 -0.0777  0.0535 -0.2072
 1038YOPC   C4B14884  14.694   4.976   8.141 -0.0140 -0.2244  0.0875
 1039YOPC   NC314885  12.500   3.737   6.077  0.1249 -0.0791 -0.0419
 1039YOPC   PO414886  12.515   3.322   6.179 -0.0591 -0.0875 -0.0694
 1039YOPC   GL114887  12.485   3.018   6.517 -0.1244  0.1578 -0.2406
 1039YOPC   GL214888  12.197   3.020   6.547  0.1357  0.1136  0.1593
 1039YOPC   C1A14889  12.633   3.002   6.928 -0.0416  0.0114 -0.2022
 1039YOPC   D2A14890  12.633   2.642   7.231  0.3237 -0.0420 -0.0073
 1039YOPC   C3A14891  12.895   2.621   7.541 -0.0257  0.2452 -0.1427
 1039YOPC   C4A14892  13.275   2.339   7.395  0.0052 -0.3917 -0.1956
 1039YOPC   C1B14893  12.185   2.842   6.992 -0.0222  0.4597  0.0250
 1039YOPC   C2B14894  12.159   2.780   7.408 -0.2931 -0.1258 -0.0221
 1039YOPC   D3B14895  12.129   2.674   7.821 -0.3221 -0.0616 -0.1633
 1039YOPC   C4B14896  11.935   2.668   8.212 -0.0585 -0.0154 -0.0396
 1040YOPC   NC314897   2.106  12.215   5.878  0.0372  0.0487 -0.0207
 1040YOPC   PO414898   2.162  12.654   5.756 -0.2009  0.1725  0.0781
 1040YOPC   GL114899   1.966  12.593   6.162 -0.1050  0.1507  0.1315
 1040YOPC   GL214900   1.636  12.565   6.369  0.1496 -0.1006  0.1173
 1040YOPC   C1A14901   2.002  12.666   6.655 -0.0189  0.0170  0.1528
 1040YOPC   D2A14902   2.329  12.820   6.895  0.2214  0.1608  0.3034
 1040YOPC   C3A14903   2.405  12.877   7.355  0.0527 -0.1410 -0.0989
 1040YOPC   C4A14904   2.747  13.006   7.595 -0.2440  0.2162  0.0962
 1040YOPC   C1B14905   1.597  12.924   6.654 -0.2068  0.0347 -0.0137
 1040YOPC   C2B14906   1.646  13.192   6.956 -0.0977  0.1833 -0.0463
 1040YOPC   D3B14907   1.463  13.057   7.270 -0.0520 -0.0846 -0.3399
 1040YOPC   C4B14908   1.292  13.055   7.603  0.2862  0.2269  0.0561
 1041YOPC   NC314909   8.017  16.575   5.883  0.0808  0.0020  0.2124
 1041YOPC   PO414910   8.399  16.708   6.173 -0.1457  0.2616  0.0726
 1041YOPC   GL114911   8.417  16.607   6.599 -0.0439  0.1344 -0.3075
 1041YOPC   GL214912   8.689  16.587   6.528 -0.0911  0.2164 -0.2837
 1041YOPC   C1A14913   8.263  16.909   6.906 -0.1649  0.0405 -0.2181
 1041YOPC   D2A14914   8.232  17.041   7.369  0.0111  0.3449  0.1484
 1041YOPC   C3A14915   8.660  17.287   7.428 -0.1600  0.0903 -0.1061
 1041YOPC   C4A14916   8.993  17.612   7.423  0.2980 -0.1039  0.0276
 1041YOPC   C1B14917   8.817  16.677   6.938 -0.1545  0.1623 -0.0575
 1041YOPC   C2B14918   8.608  16.736   7.211 -0.2624  0.4318 -0.0912
 1041YOPC   D3B14919   8.688  16.826   7.702 -0.0359  0.2108  0.1279
 1041YOPC   C4B14920   8.428  16.865   8.115  0.2868 -0.1279 -0.1156
 1042YOPC   NC314921  16.417   7.474   6.371 -0.1529 -0.1726  0.2302
 1042YOPC   PO414922  16.725   7.532   6.381  0.0287 -0.1979  0.0803
 1042YOPC   GL114923  16.870   7.411   6.812 -0.3499  0.0850  0.0355
 1042YOPC   GL214924  17.078   7.260   6.799 -0.0143 -0.3030  0.2730
 1042YOPC   C1A14925  16.830   7.118   7.163  0.0933 -0.0660  0.1102
 1042YOPC   D2A14926  16.863   7.221   7.597 -0.2324 -0.1154  0.0209
 1042YOPC   C3A14927  16.617   7.030   7.944  0.0560  0.0136  0.0429
 1042YOPC   C4A14928  16.275   6.789   8.043 -0.3103  0.2113  0.2173
 1042YOPC   C1B14929  17.160   7.492   7.245  0.1756 -0.1054 -0.2260
 1042YOPC   C2B14930  17.295   7.490   7.765 -0.0312 -0.1715 -0.0577
 1042YOPC   D3B14931  17.084   7.249   8.106 -0.0631  0.2254  0.0124
 1042YOPC   C4B14932  16.861   7.395   8.450 -0.0000 -0.2027  0.1158
 1043YOPC   NC314933   4.099  17.294   5.765 -0.1250 -0.1134  0.0905
 1043YOPC   PO414934   3.710  17.623   5.873  0.2328  0.1441  0.2420
 1043YOPC   GL114935   3.927  17.525   6.174  0.0553 -0.1254  0.3819
 1043YOPC   GL214936   4.126  17.835   6.143  0.0617 -0.1188  0.2958
 1043YOPC   C1A14937   4.143  17.574   6.600  0.4576  0.0293 -0.4703
 1043YOPC   D2A14938   4.229  17.294   6.887 -0.0104  0.4078 -0.1564
 1043YOPC   C3A14939   4.370  17.337   7.268  0.0644  0.0240 -0.0561
 1043YOPC   C4A14940   4.521  17.768   7.344 -0.0133  0.1835  0.0446
 1043YOPC   C1B14941   4.597  17.815   6.301  0.0385  0.0259  0.1039
 1043YOPC   C2B14942   4.988  17.687   6.447 -0.1687 -0.3095 -0.0218
 1043YOPC   D3B14943   5.110  17.230   6.502 -0.1128  0.3178  0.4698
 1043YOPC   C4B14944   4.989  16.881   6.762 -0.1485 -0.4163 -0.2472
 1044YOPC   NC314945  17.581  11.182   6.058  0.1179 -0.2296 -0.0280
 1044YOPC   PO414946  17.185  11.018   5.888 -0.1982 -0.1522  0.1968
 1044YOPC   GL114947  17.248  10.930   6.299 -0.0154  0.3390  0.0716
 1044YOPC   GL214948  17.012  11.019   6.469  0.3416  0.3242 -0.0591
 1044YOPC   C1A14949  17.546  10.848   6.677  0.1454  0.1658 -0.0560
 1044YOPC   D2A14950  17.903  10.717   6.915 -0.0119 -0.0399 -0.2700
 1044YOPC   C3A14951  18.094  10.411   7.062 -0.1320  0.4521 -0.0667
 1044YOPC   C4A14952  17.949  10.255   7.425 -0.0979  0.2606 -0.1184
 1044YOPC   C1B14953  17.039  10.631   6.661  0.0297  0.2461 -0.0703
 1044YOPC   C2B14954  16.808  10.361   6.878 -0.0914 -0.1585  0.1694
 1044YOPC   D3B14955  16.704  10.419   7.301  0.1405 -0.0100  0.1718
 1044YOPC   C4B14956  16.716  10.422   7.666  0.4128  0.2979 -0.1080
 1045YOPC   NC314957  17.183   8.579   5.856  0.0777 -0.2405  0.3259
 1045YOPC   PO414958  17.345   8.363   6.159 -0.2275  0.1092 -0.0329
 1045YOPC   GL114959  17.376   8.114   6.605 -0.3215  0.0100 -0.1717
 1045YOPC   GL214960  17.693   8.051   6.666 -0.1485 -0.3001  0.3404
 1045YOPC   C1A14961  17.414   7.678   6.860 -0.2688 -0.0257 -0.2622
 1045YOPC   D2A14962  17.922   7.551   7.042 -0.1566  0.0799 -0.2073
 1045YOPC   C3A14963  18.092   7.626   7.429 -0.2873 -0.0711  0.0034
 1045YOPC   C4A14964  18.120   7.326   7.779  0.3612  0.1470  0.0420
 1045YOPC   C1B14965  17.613   8.085   7.076 -0.0226 -0.2173 -0.1145
 1045YOPC   C2B14966  17.579   7.735   7.423  0.2208 -0.0436 -0.3544
 1045YOPC   D3B14967  17.765   7.661   7.842 -0.0352  0.0688  0.1136
 1045YOPC   C4B14968  17.692   7.373   8.184  0.0886 -0.1256 -0.0028
 1046YOPC   NC314969   5.376   6.218   6.478  0.1953  0.3866 -0.1073
 1046YOPC   PO414970   5.294   5.832   6.373 -0.1993  0.0504  0.0652
 1046YOPC   GL114971   5.260   5.759   6.775 -0.2227 -0.3570  0.0784
 1046YOPC   GL214972   5.014   5.720   6.758 -0.1042 -0.1013 -0.1638
 1046YOPC   C1A14973   5.526   5.677   7.102  0.3907 -0.0658  0.0317
 1046YOPC   D2A14974   5.456   5.619   7.598  0.1902  0.2746 -0.1084
 1046YOPC   C3A14975   5.162   5.798   7.888 -0.0295 -0.2106  0.1968
 1046YOPC   C4A14976   5.071   6.000   8.315  0.1271 -0.0752 -0.0300
 1046YOPC   C1B14977   4.601   5.451   6.948 -0.0100 -0.2247 -0.1151
 1046YOPC   C2B14978   4.394   5.559   7.299 -0.3429  0.0595 -0.1818
 1046YOPC   D3B14979   4.294   5.983   7.518 -0.0722 -0.0206 -0.1685
 1046YOPC   C4B14980   4.201   5.974   7.987 -0.0301  0.1190 -0.1068
 1047YOPC   NC314981  11.836   6.206   5.309  0.0252 -0.1416  0.4324
 1047YOPC   PO414982  11.632   6.181   5.743 -0.0683 -0.2145  0.1400
 1047YOPC   GL114983  11.644   6.100   6.183  0.1289 -0.0105  0.1185
 1047YOPC   GL214984  11.924   6.133   6.285 -0.1475 -0.2807  0.0576
 1047YOPC   C1A14985  11.331   5.864   6.296  0.1076 -0.0547  0.3317
 1047YOPC   D2A14986  11.060   5.657   6.184  0.0441  0.0844  0.1142
 1047YOPC   C3A14987  10.977   5.278   6.370 -0.1364  0.0300  0.1098
 1047YOPC   C4A14988  10.812   5.128   6.696 -0.0017  0.2548 -0.1178
 1047YOPC   C1B14989  12.076   6.125   6.639  0.2085  0.2164  0.2136
 1047YOPC   C2B14990  12.134   6.166   7.090  0.0468 -0.1196  0.0162
 1047YOPC   D3B14991  12.448   6.413   7.324 -0.0852  0.1796  0.0913
 1047YOPC   C4B14992  12.707   6.650   7.637  0.1724  0.1128 -0.1101
 1048YOPC   NC314993   5.921   0.491   5.969 -0.0720  0.1234  0.0673
 1048YOPC   PO414994   5.717   0.901   6.254  0.3050 -0.1949 -0.0072
 1048YOPC   GL114995   5.786   1.191   6.629 -0.0589 -0.0158 -0.1761
 1048YOPC   GL214996   5.989   1.029   6.760  0.0112  0.1678 -0.0616
 1048YOPC   C1A14997   5.875   1.588   6.816  0.0979 -0.0813  0.1488
 1048YOPC   D2A14998   5.847   1.790   7.219  0.0778 -0.0575 -0.1723
 1048YOPC   C3A14999   5.414   1.574   7.383 -0.1100 -0.1773 -0.0756
 1048YOPC   C4A15000   5.259   1.504   7.807 -0.2694  0.0748 -0.0770
 1048YOPC   C1B15001   6.185   0.896   7.171 -0.0420 -0.1885 -0.0440
 1048YOPC   C2B15002   6.255   0.673   7.572  0.0709  0.0478 -0.1555
 1048YOPC   D3B15003   6.142   0.559   7.979 -0.1670  0.2643 -0.0058
 1048YOPC   C4B15004   5.819   0.612   8.193  0.0946  0.1059 -0.3243
 1049YOPC   NC315005  13.654   6.122   5.765 -0.3026 -0.1467 -0.2108
 1049YOPC   PO415006  13.378   5.837   5.900  0.3628  0.1348  0.3689
 1049YOPC   GL115007  13.344   5.676   6.317  0.0251  0.0658 -0.0008
 1049YOPC   GL215008  13.622   5.701   6.481 -0.1610  0.0173  0.1177
 1049YOPC   C1A15009  13.179   5.395   6.612  0.1294  0.3289 -0.0740
 1049YOPC   D2A15010  13.035   4.953   6.645 -0.1068 -0.5778 -0.2713
 1049YOPC   C3A15011  13.281   4.808   7.029 -0.1625  0.2763  0.1688
 1049YOPC   C4A15012  13.321   4.771   7.452  0.1230 -0.1093 -0.1691
 1049YOPC   C1B15013  13.564   5.701   6.862  0.0241 -0.1114  0.1057
 1049YOPC   C2B15014  13.610   5.373   7.150  0.0642 -0.0999  0.3947
 1049YOPC   D3B15015  13.434   5.263   7.506  0.1258 -0.0862  0.0435
 1049YOPC   C4B15016  13.336   5.102   7.946  0.3017 -0.2089  0.1380
 1050YOPC   NC315017  10.850  10.395   5.640  0.0851  0.2344  0.4078
 1050YOPC   PO415018  10.688  10.098   5.942  0.0310  0.0106  0.0363
 1050YOPC   GL115019  10.505  10.265   6.285  0.0812  0.1927 -0.0645
 1050YOPC   GL215020  10.588  10.224   6.677 -0.1453 -0.3287  0.1853
 1050YOPC   C1A15021  10.186  10.465   6.505 -0.1186 -0.0980 -0.0577
 1050YOPC   D2A15022  10.104  10.364   6.975  0.0224  0.2260 -0.0703
 1050YOPC   C3A15023  10.116  10.610   7.235  0.0198 -0.2289 -0.0395
 1050YOPC   C4A15024  10.235  10.742   7.563 -0.1223  0.2485 -0.0126
 1050YOPC   C1B15025  10.580  10.377   7.115  0.1671  0.1135  0.0237
 1050YOPC   C2B15026  10.507  10.284   7.542 -0.1192 -0.1840  0.4803
 1050YOPC   D3B15027  10.019  10.258   7.662  0.3259 -0.0274  0.2381
 1050YOPC   C4B15028   9.861   9.944   7.938  0.1092  0.4770 -0.0075
 1051YOPC   NC315029   1.805   4.094   6.812 -0.0420  0.1132  0.3279
 1051YOPC   PO415030   1.425   3.979   6.749  0.0974  0.0595 -0.1293
 1051YOPC   GL115031   1.372   4.327   7.019 -0.0377 -0.1023  0.0042
 1051YOPC   GL215032   1.686   4.675   7.110 -0.1395 -0.0057  0.2022
 1051YOPC   C1A15033   1.248   4.697   7.348 -0.0979 -0.2119 -0.1785
 1051YOPC   D2A15034   1.486   4.785   7.584  0.1841 -0.0376 -0.1948
 1051YOPC   C3A15035   1.420   5.192   7.771  0.1774 -0.0289 -0.0940
 1051YOPC   C4A15036   1.447   5.353   8.164 -0.0842  0.0891  0.3263
 1051YOPC   C1B15037   1.673   4.381   7.383  0.0061 -0.2689 -0.0691
 1051YOPC   C2B15038   1.575   4.328   7.869 -0.1778 -0.2835 -0.2298
 1051YOPC   D3B15039   1.673   4.154   8.282  0.0557  0.1974 -0.0908
 1051YOPC   C4B15040   1.572   4.014   8.637  0.1443  0.0277 -0.1451
 1052YOPC   NC315041  17.705  12.752   5.914 -0.0195 -0.0170  0.0425
 1052YOPC   PO415042  17.941  12.831   6.280  0.0665 -0.1577  0.0803
 1052YOPC   GL115043  17.716  12.902   6.649  0.1557  0.2930 -0.0649
 1052YOPC   GL215044  17.832  12.637   6.780  0.3980  0.1237  0.0109
 1052YOPC   C1A15045  17.518  12.945   7.095 -0.1440 -0.1089  0.3030
 1052YOPC   D2A15046  17.385  12.913   7.548 -0.1641  0.1443  0.1007
 1052YOPC   C3A15047  17.363  13.364   7.790  0.1129 -0.0665  0.0874
 1052YOPC   C4A15048  17.027  13.486   7.968 -0.0633 -0.0662  0.0623
 1052YOPC   C1B15049  17.862  12.624   7.242  0.1066 -0.1895 -0.2642
 1052YOPC   C2B15050  17.930  12.839   7.725 -0.0066  0.0709  0.0754
 1052YOPC   D3B15051  17.656  13.007   7.978  0.0377 -0.0454  0.0123
 1052YOPC   C4B15052  17.739  13.308   8.324 -0.0198 -0.0802 -0.0696
 1053YOPC   NC315053  14.382   2.553   5.875 -0.0203 -0.0498 -0.2353
 1053YOPC   PO415054  14.752   2.217   5.902 -0.1717 -0.1243 -0.0718
 1053YOPC   GL115055  14.569   2.392   6.347  0.0197 -0.1470  0.0661
 1053YOPC   GL215056  14.754   2.141   6.384  0.0583  0.1619 -0.3731
 1053YOPC   C1A15057  14.468   2.429   6.785 -0.0415 -0.6265 -0.1744
 1053YOPC   D2A15058  14.471   2.415   7.262  0.0419 -0.0549 -0.0808
 1053YOPC   C3A15059  14.261   2.579   7.670  0.1004  0.1789  0.2438
 1053YOPC   C4A15060  13.943   2.583   7.980 -0.1396 -0.0602  0.2206
 1053YOPC   C1B15061  14.446   1.953   6.558  0.1913  0.1225 -0.1313
 1053YOPC   C2B15062  14.061   1.702   6.672  0.1615 -0.1681  0.1142
 1053YOPC   D3B15063  14.042   1.630   7.063  0.1007  0.0488  0.1242
 1053YOPC   C4B15064  13.976   1.482   7.501 -0.2355  0.0043 -0.0611
 1054YOPC   NC315065  12.399   7.050   6.317 -0.1293  0.0354 -0.1112
 1054YOPC   PO415066  12.529   6.659   6.126 -0.2841  0.1425 -0.1320
 1054YOPC   GL115067  12.508   6.671   6.622 -0.0008  0.0624  0.4461
 1054YOPC   GL215068  12.796   6.911   6.796  0.0090  0.1035 -0.2298
 1054YOPC   C1A15069  12.329   6.703   6.925  0.1457  0.1260 -0.0440
 1054YOPC   D2A15070  12.016   6.686   7.256  0.0187  0.1619 -0.3100
 1054YOPC   C3A15071  11.642   6.846   7.213 -0.3747  0.2034  0.1884
 1054YOPC   C4A15072  11.236   6.837   7.017  0.1360 -0.0747 -0.1570
 1054YOPC   C1B15073  12.680   6.906   7.172 -0.0866 -0.1408  0.2103
 1054YOPC   C2B15074  12.391   7.024   7.541  0.1157  0.2168 -0.0290
 1054YOPC   D3B15075  12.306   7.395   7.852 -0.0574 -0.2419  0.1265
 1054YOPC   C4B15076  12.375   7.526   8.301 -0.0337  0.0635 -0.1725
 1055YOPC   NC315077   5.420  14.712   5.892 -0.1533 -0.0364 -0.0120
 1055YOPC   PO415078   5.833  14.439   5.970 -0.0216  0.1389  0.0106
 1055YOPC   GL115079   5.861  14.709   6.378 -0.0107  0.1444 -0.0741
 1055YOPC   GL215080   5.516  14.864   6.418 -0.0796  0.0720 -0.0551
 1055YOPC   C1A15081   5.815  14.673   6.820 -0.0456  0.1328  0.2567
 1055YOPC   D2A15082   5.706  14.706   7.321 -0.2024 -0.0352  0.0846
 1055YOPC   C3A15083   6.029  14.553   7.606  0.2282  0.0771  0.0400
 1055YOPC   C4A15084   6.022  14.297   8.012 -0.0713  0.3432 -0.4729
 1055YOPC   C1B15085   5.352  14.881   6.746  0.3047  0.0917 -0.1761
 1055YOPC   C2B15086   5.267  14.843   7.123  0.0744 -0.0135 -0.0676
 1055YOPC   D3B15087   5.199  14.655   7.568  0.0474  0.0309 -0.1861
 1055YOPC   C4B15088   4.851  14.531   7.887 -0.2989 -0.0248  0.0898
 1056YOPC   NC315089   3.458  17.244   5.709 -0.2513  0.0928  0.0025
 1056YOPC   PO415090   3.755  16.938   5.634  0.0433  0.0289 -0.2084
 1056YOPC   GL115091   3.677  17.114   6.152  0.0472 -0.0744  0.0068
 1056YOPC   GL215092   3.360  17.393   6.189 -0.0270  0.2877  0.0005
 1056YOPC   C1A15093   3.509  16.984   6.581 -0.0470  0.2171 -0.0938
 1056YOPC   D2A15094   3.372  17.023   6.955  0.2929  0.0739  0.0447
 1056YOPC   C3A15095   3.499  16.724   7.269 -0.1237 -0.1184 -0.2521
 1056YOPC   C4A15096   3.793  16.687   7.565 -0.2428 -0.0738  0.0964
 1056YOPC   C1B15097   3.523  17.523   6.513 -0.1653 -0.0223  0.3129
 1056YOPC   C2B15098   3.755  17.344   6.842 -0.2661 -0.2577  0.1729
 1056YOPC   D3B15099   3.881  17.658   7.200  0.1657 -0.3241  0.1606
 1056YOPC   C4B15100   4.075  17.703   7.639 -0.1814 -0.2480  0.1184
 1057YOPC   NC315101  13.795   8.929   6.094  0.1115 -0.2871  0.0796
 1057YOPC   PO415102  13.804   8.564   6.308 -0.1418 -0.0740 -0.1611
 1057YOPC   GL115103  13.585   8.693   6.616  0.1430  0.0315 -0.1853
 1057YOPC   GL215104  13.513   8.330   6.722  0.0043 -0.2493  0.0665
 1057YOPC   C1A15105  13.327   8.796   6.890 -0.1267  0.0296  0.2516
 1057YOPC   D2A15106  13.023   8.853   7.150 -0.2122 -0.0419 -0.3314
 1057YOPC   C3A15107  13.050   8.773   7.507 -0.1884  0.1787  0.1056
 1057YOPC   C4A15108  13.358   8.603   7.772 -0.1052 -0.1272 -0.0938
 1057YOPC   C1B15109  13.775   8.338   7.094 -0.4607  0.2104 -0.1541
 1057YOPC   C2B15110  13.884   8.144   7.514 -0.0679 -0.0487 -0.3827
 1057YOPC   D3B15111  13.898   8.360   7.864  0.3305  0.0104  0.0013
 1057YOPC   C4B15112  14.022   8.581   8.210 -0.0922 -0.1302  0.0311
 1058YOPC   NC315113  14.545   0.411   5.342  0.2685 -0.1900 -0.1729
 1058YOPC   PO415114  14.282   0.630   5.716 -0.0431  0.1333  0.3214
 1058YOPC   GL115115  14.106   0.450   6.173 -0.0366 -0.3299 -0.3030
 1058YOPC   GL215116  14.379   0.404   6.266  0.2056  0.2872  0.0769
 1058YOPC   C1A15117  14.052   0.293   6.601  0.2824  0.0683  0.0377
 1058YOPC   D2A15118  14.044  -0.041   6.877  0.0213 -0.2421  0.0207
 1058YOPC   C3A15119  14.020  -0.199   7.323  0.1738 -0.1751  0.2196
 1058YOPC   C4A15120  14.156  -0.283   7.783 -0.2292 -0.0242  0.0250
 1058YOPC   C1B15121  14.759   0.300   6.336 -0.1060 -0.2722 -0.3125
 1058YOPC   C2B15122  15.022   0.072   6.636 -0.1113 -0.4573  0.3005
 1058YOPC   D3B15123  15.378  -0.111   6.613  0.0641  0.0590  0.0707
 1058YOPC   C4B15124  15.722  -0.053   6.454  0.0753  0.1148  0.0490
 1059YOPC   NC315125  10.829   2.824   6.072  0.0086 -0.1625 -0.0184
 1059YOPC   PO415126  10.774   3.134   6.331 -0.2704  0.2173  0.0256
 1059YOPC   GL115127  10.955   3.150   6.744  0.0514 -0.0257 -0.4279
 1059YOPC   GL215128  11.085   3.580   6.884  0.0141  0.1743 -0.3825
 1059YOPC   C1A15129  11.129   3.101   7.205  0.0517 -0.1098 -0.1729
 1059YOPC   D2A15130  11.334   3.307   7.622  0.1009  0.1845  0.0061
 1059YOPC   C3A15131  11.387   3.075   8.072 -0.2564 -0.1292  0.0970
 1059YOPC   C4A15132  11.199   2.705   8.328  0.0456  0.2364  0.1498
 1059YOPC   C1B15133  11.065   3.777   7.333  0.0354  0.3140 -0.0471
 1059YOPC   C2B15134  11.005   3.807   7.751 -0.2207  0.0396 -0.1592
 1059YOPC   D3B15135  11.308   4.084   7.866 -0.0996  0.2148 -0.1507
 1059YOPC   C4B15136  11.448   4.387   8.279  0.2098 -0.2156 -0.1189
 1060YOPC   NC315137  11.255  13.031   6.007 -0.1956 -0.4422  0.0803
 1060YOPC   PO415138  11.642  13.018   6.219 -0.3405  0.3626 -0.0744
 1060YOPC   GL115139  11.413  12.899   6.534  0.0173  0.0267  0.2461
 1060YOPC   GL215140  11.107  12.994   6.502 -0.0673 -0.2555  0.0517
 1060YOPC   C1A15141  11.385  12.768   7.065  0.0496 -0.3032 -0.2391
 1060YOPC   D2A15142  11.270  12.845   7.562 -0.1282  0.3799  0.0775
 1060YOPC   C3A15143  10.996  13.106   7.678  0.0603 -0.0441 -0.1164
 1060YOPC   C4A15144  10.877  13.387   8.135 -0.1864  0.0796  0.1907
 1060YOPC   C1B15145  10.946  12.875   6.841 -0.2386 -0.1210  0.1121
 1060YOPC   C2B15146  10.888  12.994   7.163  0.2746 -0.3071  0.0501
 1060YOPC   D3B15147  10.641  12.833   7.466  0.0447  0.1884 -0.1022
 1060YOPC   C4B15148  10.501  12.928   7.908  0.2155 -0.2628  0.1883
 1061YOPC   NC315149   1.427   5.002   6.008 -0.2598 -0.3417 -0.1257
 1061YOPC   PO415150   1.281   5.224   6.419 -0.3368  0.2237  0.3323
 1061YOPC   GL115151   1.176   5.284   6.904 -0.1049 -0.1577 -0.0928
 1061YOPC   GL215152   1.364   5.543   6.867  0.1073  0.1985  0.1120
 1061YOPC   C1A15153   0.877   5.492   7.181 -0.0416 -0.0536  0.1078
 1061YOPC   D2A15154   0.641   5.544   7.587  0.0946  0.0261  0.1251
 1061YOPC   C3A15155   0.663   5.903   7.831 -0.0011 -0.0812  0.0850
 1061YOPC   C4A15156   0.753   6.194   8.072  0.0822 -0.0927 -0.2926
 1061YOPC   C1B15157   1.344   5.438   7.342  0.0150 -0.0110  0.0622
 1061YOPC   C2B15158   1.134   5.581   7.691  0.0541  0.2605  0.5747
 1061YOPC   D3B15159   0.914   5.410   8.008 -0.0643 -0.0917 -0.2569
 1061YOPC   C4B15160   0.703   5.613   8.335  0.2240  0.3284  0.0183
 1062YOPC   NC315161  16.827   9.785   5.629  0.1081  0.0031  0.0984
 1062YOPC   PO415162  16.735  10.310   5.879  0.0249  0.1284  0.1338
 1062YOPC   GL115163  16.698  10.247   6.253 -0.0983  0.3170 -0.2156
 1062YOPC   GL215164  16.485   9.928   6.276 -0.1815 -0.2325  0.0258
 1062YOPC   C1A15165  16.980  10.039   6.522 -0.2222 -0.4524 -0.0177
 1062YOPC   D2A15166  17.332   9.950   6.819 -0.0978  0.1692  0.0597
 1062YOPC   C3A15167  17.407   9.865   7.247  0.0688 -0.0396 -0.1588
 1062YOPC   C4A15168  17.524  10.030   7.514  0.0423  0.0517  0.2079
 1062YOPC   C1B15169  16.400  10.110   6.722  0.2107  0.1315  0.2360
 1062YOPC   C2B15170  16.252  10.090   7.142 -0.0762  0.0300  0.1484
 1062YOPC   D3B15171  16.321   9.969   7.599  0.0390 -0.1920  0.0841
 1062YOPC   C4B15172  16.690   9.896   7.912  0.1451 -0.1160 -0.0503
 1063YOPC   NC315173   6.212  15.865   5.680  0.2512 -0.3397  0.1845
 1063YOPC   PO415174   6.492  16.129   5.724 -0.2492 -0.1918 -0.0318
 1063YOPC   GL115175   6.359  16.191   6.147 -0.0462  0.0910 -0.0343
 1063YOPC   GL215176   6.679  16.143   6.240 -0.5105  0.1593  0.1840
 1063YOPC   C1A15177   6.334  16.330   6.550 -0.0106 -0.0591  0.0954
 1063YOPC   D2A15178   6.227  16.444   6.939  0.1047  0.0677  0.1270
 1063YOPC   C3A15179   6.134  16.308   7.362  0.1597 -0.0071  0.1558
 1063YOPC   C4A15180   5.737  16.400   7.523  0.0061 -0.0965  0.0832
 1063YOPC   C1B15181   6.647  15.860   6.523  0.1119  0.0252 -0.0975
 1063YOPC   C2B15182   6.646  15.699   6.964 -0.0292 -0.1660  0.4416
 1063YOPC   D3B15183   6.890  15.471   7.213 -0.0648 -0.0647  0.0060
 1063YOPC   C4B15184   7.284  15.316   7.042  0.3590  0.1282  0.1804
 1064YOPC   NC315185   7.249   2.491   6.231  0.0005 -0.1429 -0.2181
 1064YOPC   PO415186   7.622   2.652   6.185  0.0342  0.1562  0.0030
 1064YOPC   GL115187   7.662   2.586   6.495 -0.0946 -0.1679 -0.1560
 1064YOPC   GL215188   7.571   2.810   6.675 -0.3731  0.0396  0.0378
 1064YOPC   C1A15189   7.888   2.285   6.740 -0.1461 -0.2637 -0.0210
 1064YOPC   D2A15190   8.157   1.910   6.845  0.2190  0.0233  0.0322
 1064YOPC   C3A15191   7.992   1.680   7.162 -0.3436  0.0403 -0.0825
 1064YOPC   C4A15192   8.088   1.409   7.528 -0.0339  0.2442  0.1072
 1064YOPC   C1B15193   7.816   2.690   7.086  0.0824 -0.3194 -0.1266
 1064YOPC   C2B15194   8.038   2.589   7.525  0.1431 -0.0593  0.5447
 1064YOPC   D3B15195   7.605   2.682   7.778 -0.1011  0.2831 -0.3467
 1064YOPC   C4B15196   7.211   2.587   8.025  0.2003  0.2125  0.1175
 1065YOPC   NC315197   9.487   3.504   6.174 -0.1742  0.1385  0.1444
 1065YOPC   PO415198   9.861   3.156   5.999  0.0617  0.3079  0.0110
 1065YOPC   GL115199   9.991   3.220   6.411  0.1717  0.1416 -0.2547
 1065YOPC   GL215200   9.740   3.174   6.669 -0.0437  0.0586  0.3315
 1065YOPC   C1A15201  10.172   3.446   6.771  0.0750  0.3066  0.0837
 1065YOPC   D2A15202  10.109   3.575   7.229  0.2234  0.5747 -0.1960
 1065YOPC   C3A15203  10.273   3.379   7.446  0.3429 -0.2756 -0.3618
 1065YOPC   C4A15204  10.399   3.096   7.619  0.0768  0.0172 -0.1699
 1065YOPC   C1B15205   9.905   3.105   7.153  0.0941  0.0714  0.1180
 1065YOPC   C2B15206   9.889   3.077   7.601 -0.2897 -0.0622  0.2563
 1065YOPC   D3B15207  10.019   2.685   7.833  0.0259 -0.2366  0.2473
 1065YOPC   C4B15208   9.967   2.569   8.286 -0.0238 -0.3329  0.0177
 1066YOPC   NC315209  10.835  17.088   5.673 -0.0167  0.1233 -0.0570
 1066YOPC   PO415210  10.569  17.405   5.911 -0.0871 -0.1217  0.0127
 1066YOPC   GL115211  10.348  17.629   6.272 -0.2086  0.0961  0.0334
 1066YOPC   GL215212  10.196  17.863   6.395  0.0996 -0.0691 -0.1976
 1066YOPC   C1A15213  10.387  17.539   6.707  0.0469 -0.0294 -0.1875
 1066YOPC   D2A15214  10.510  17.439   7.123 -0.1771 -0.2362  0.0882
 1066YOPC   C3A15215  10.463  17.662   7.588 -0.0754 -0.0363  0.0189
 1066YOPC   C4A15216  10.313  17.565   8.030 -0.2947  0.3901 -0.0655
 1066YOPC   C1B15217  10.051  18.054   6.802  0.1753 -0.1951  0.3337
 1066YOPC   C2B15218  10.066  18.207   7.212 -0.3311  0.2105 -0.1035
 1066YOPC   D3B15219  10.082  17.953   7.662 -0.1129  0.0643 -0.1257
 1066YOPC   C4B15220   9.831  17.863   8.036  0.0754  0.0035  0.3050
 1067YOPC   NC315221  17.742   6.821   6.207 -0.1337  0.2411  0.0750
 1067YOPC   PO415222  18.072   7.146   6.135 -0.1444  0.0045  0.0056
 1067YOPC   GL115223  18.131   6.855   6.571  0.3148  0.0810  0.1633
 1067YOPC   GL215224  18.412   6.825   6.607 -0.0518 -0.0420  0.4205
 1067YOPC   C1A15225  18.201   6.656   7.006  0.0008  0.1262  0.1873
 1067YOPC   D2A15226  18.545   6.781   7.232 -0.1448 -0.0666 -0.1725
 1067YOPC   C3A15227  18.914   6.538   7.453  0.1283 -0.0495 -0.0678
 1067YOPC   C4A15228  19.128   6.237   7.672 -0.1784 -0.3172 -0.2708
 1067YOPC   C1B15229  18.817   6.687   6.895  0.3303 -0.1179  0.1285
 1067YOPC   C2B15230  18.927   6.200   7.025 -0.0729  0.0232 -0.3549
 1067YOPC   D3B15231  18.772   5.877   6.893 -0.1199  0.0616 -0.0421
 1067YOPC   C4B15232  18.656   5.652   6.700  0.0676  0.2259  0.0739
 1068YOPC   NC315233   1.928   1.710   6.092 -0.1127  0.2629  0.0231
 1068YOPC   PO415234   2.361   1.706   6.123 -0.0599 -0.2037 -0.0612
 1068YOPC   GL115235   2.554   1.800   6.538 -0.3142 -0.3227 -0.0630
 1068YOPC   GL215236   2.505   2.156   6.686 -0.1479  0.3030  0.1923
 1068YOPC   C1A15237   2.549   1.614   6.913 -0.1330  0.2900  0.0347
 1068YOPC   D2A15238   2.604   1.289   7.176  0.2769  0.2693 -0.0155
 1068YOPC   C3A15239   2.746   1.351   7.564  0.1977 -0.0122 -0.1432
 1068YOPC   C4A15240   3.004   1.439   7.983 -0.0330  0.1187 -0.3392
 1068YOPC   C1B15241   2.663   2.252   7.137  0.2771  0.1816 -0.1746
 1068YOPC   C2B15242   2.554   2.231   7.497  0.2182 -0.0836  0.1517
 1068YOPC   D3B15243   2.798   1.989   7.805 -0.0088  0.0097 -0.2494
 1068YOPC   C4B15244   2.744   1.898   8.146 -0.0609 -0.1048  0.0219
 1069YOPC   NC315245  13.663   1.978   5.797  0.0755  0.0774  0.0624
 1069YOPC   PO415246  13.343   2.296   6.006 -0.0416 -0.0376 -0.1294
 1069YOPC   GL115247  13.605   2.252   6.304 -0.2058 -0.0886 -0.0853
 1069YOPC   GL215248  13.536   2.444   6.579  0.1311 -0.0925  0.2355
 1069YOPC   C1A15249  13.950   2.164   6.654 -0.2110  0.5343  0.3078
 1069YOPC   D2A15250  14.048   2.184   7.026 -0.2742  0.1415  0.1617
 1069YOPC   C3A15251  14.149   1.999   7.356  0.0311  0.0033 -0.4163
 1069YOPC   C4A15252  13.973   1.949   7.823 -0.2034  0.0245  0.0261
 1069YOPC   C1B15253  13.633   2.495   7.017  0.1056  0.0611 -0.1714
 1069YOPC   C2B15254  13.789   2.326   7.463  0.2657 -0.0757  0.1440
 1069YOPC   D3B15255  13.566   2.282   7.815  0.2691  0.1820 -0.0415
 1069YOPC   C4B15256  13.193   1.986   7.919 -0.2041  0.1701 -0.1035
 1070YOPC   NC315257  11.549   2.197   6.115  0.2076 -0.1825 -0.4112
 1070YOPC   PO415258  11.234   2.540   6.120 -0.0578 -0.1079 -0.0399
 1070YOPC   GL115259  11.138   2.401   6.537 -0.1518  0.1041  0.2832
 1070YOPC   GL215260  11.341   2.658   6.844 -0.0758 -0.0853 -0.0124
 1070YOPC   C1A15261  11.069   2.196   6.897  0.1278 -0.1075  0.0416
 1070YOPC   D2A15262  10.975   2.076   7.288 -0.0842  0.0099  0.3868
 1070YOPC   C3A15263  11.007   2.280   7.601  0.0610  0.4876 -0.0386
 1070YOPC   C4A15264  10.956   2.544   7.893  0.1182 -0.0734  0.1294
 1070YOPC   C1B15265  11.287   2.536   7.293 -0.2287  0.0067  0.0340
 1070YOPC   C2B15266  11.214   2.798   7.582  0.2306 -0.0514 -0.0602
 1070YOPC   D3B15267  10.884   3.058   7.808 -0.0033 -0.0354 -0.1802
 1070YOPC   C4B15268  10.632   3.435   7.915 -0.3524  0.2609 -0.0300
 1071YOPC   NC315269   9.563  12.352   5.647  0.2055 -0.1646 -0.2020
 1071YOPC   PO415270   9.292  12.679   5.886  0.0723  0.0158 -0.2162
 1071YOPC   GL115271   9.323  12.939   6.293  0.1566  0.0027  0.0517
 1071YOPC   GL215272   9.291  13.110   6.435 -0.0845 -0.1680  0.1425
 1071YOPC   C1A15273   9.552  12.718   6.667  0.2499 -0.1060 -0.0220
 1071YOPC   D2A15274   9.514  12.811   7.123  0.2428  0.0527  0.0461
 1071YOPC   C3A15275   9.813  13.029   7.314  0.2922 -0.0095  0.2458
 1071YOPC   C4A15276  10.130  13.204   7.592 -0.1789 -0.2739 -0.2557
 1071YOPC   C1B15277   9.169  13.035   6.823  0.0893 -0.2827 -0.0226
 1071YOPC   C2B15278   9.068  13.145   7.267 -0.0979 -0.0830  0.2372
 1071YOPC   D3B15279   9.118  12.857   7.661 -0.2113 -0.1377  0.3685
 1071YOPC   C4B15280   9.501  12.767   7.695 -0.0676 -0.1961 -0.1563
 1072YOPC   NC315281   0.269  12.420   6.083  0.0473  0.0064 -0.1512
 1072YOPC   PO415282   0.648  12.603   6.179 -0.1187 -0.0035  0.1127
 1072YOPC   GL115283   0.539  12.863   6.502 -0.3253  0.1641 -0.2370
 1072YOPC   GL215284   0.418  12.665   6.716 -0.0081 -0.1050  0.2721
 1072YOPC   C1A15285   0.739  13.148   6.895 -0.1891  0.0760  0.2000
 1072YOPC   D2A15286   0.905  13.074   7.307  0.1247  0.3768 -0.2087
 1072YOPC   C3A15287   0.951  12.712   7.682  0.2441 -0.0635  0.1053
 1072YOPC   C4A15288   0.984  12.278   7.914  0.1299 -0.0458  0.1819
 1072YOPC   C1B15289   0.304  12.265   7.077  0.1290 -0.4120  0.3565
 1072YOPC   C2B15290   0.355  12.311   7.470  0.1114 -0.1024 -0.3010
 1072YOPC   D3B15291   0.428  12.545   7.895  0.1173  0.1318 -0.0825
 1072YOPC   C4B15292   0.258  12.824   8.204 -0.2620  0.0897 -0.0255
 1073YOPC   NC315293  10.082  14.676   5.631 -0.1933 -0.1988 -0.1245
 1073YOPC   PO415294  10.153  14.237   5.738  0.2503 -0.0228  0.0429
 1073YOPC   GL115295   9.878  14.441   6.051 -0.0168 -0.1610  0.1851
 1073YOPC   GL215296   9.620  14.316   6.011  0.2312  0.1427  0.1680
 1073YOPC   C1A15297  10.019  14.517   6.427  0.2313  0.0923  0.3519
 1073YOPC   D2A15298  10.224  14.521   6.802  0.0450 -0.0898 -0.2561
 1073YOPC   C3A15299  10.711  14.652   6.622 -0.0712  0.1257 -0.1139
 1073YOPC   C4A15300  11.032  15.064   6.791 -0.1587 -0.0011  0.2573
 1073YOPC   C1B15301   9.636  14.172   6.401  0.2697  0.1518 -0.0401
 1073YOPC   C2B15302   9.994  14.049   6.684 -0.1446 -0.0376 -0.2819
 1073YOPC   D3B15303  10.388  14.026   6.689 -0.0047 -0.0234 -0.1889
 1073YOPC   C4B15304  10.717  14.163   7.001  0.0236  0.2551  0.0448
 1074YOPC   NC315305   1.155   9.196   5.836  0.1321  0.0323 -0.1239
 1074YOPC   PO415306   1.222   8.808   6.056  0.0549 -0.0436 -0.0346
 1074YOPC   GL115307   1.182   8.667   6.496 -0.4343 -0.0760 -0.1124
 1074YOPC   GL215308   1.360   8.744   6.764 -0.1416  0.0685  0.0274
 1074YOPC   C1A15309   0.856   8.734   6.864  0.1026 -0.4038 -0.0645
 1074YOPC   D2A15310   0.641   8.980   7.180  0.0230  0.2215  0.1261
 1074YOPC   C3A15311   0.442   9.145   7.610 -0.0489  0.0696  0.1031
 1074YOPC   C4A15312   0.356   9.135   8.083  0.1449 -0.1310  0.0937
 1074YOPC   C1B15313   1.485   8.942   7.171 -0.0366 -0.0890  0.1758
 1074YOPC   C2B15314   1.597   9.206   7.509 -0.0331 -0.1478 -0.1252
 1074YOPC   D3B15315   1.608   9.101   7.934  0.0055  0.2340 -0.0731
 1074YOPC   C4B15316   1.741   9.207   8.392 -0.0627 -0.1397  0.1009
 1075YOPC   NC315317  12.392  15.013   5.788 -0.0868 -0.1104  0.0045
 1075YOPC   PO415318  12.493  14.615   5.963 -0.1726 -0.0888  0.2553
 1075YOPC   GL115319  12.719  14.678   6.409  0.0774  0.0056  0.1724
 1075YOPC   GL215320  12.982  14.853   6.470  0.2029  0.0891 -0.2476
 1075YOPC   C1A15321  12.607  14.864   6.826 -0.3242  0.0574 -0.1733
 1075YOPC   D2A15322  12.371  15.154   7.038  0.2154 -0.1123 -0.0805
 1075YOPC   C3A15323  12.234  15.264   7.439 -0.3439  0.2308 -0.2346
 1075YOPC   C4A15324  11.924  15.589   7.546 -0.0516  0.2311 -0.3674
 1075YOPC   C1B15325  13.067  14.769   6.902  0.0901 -0.1380  0.0757
 1075YOPC   C2B15326  12.868  14.547   7.139 -0.0580 -0.0661 -0.0089
 1075YOPC   D3B15327  12.610  14.820   7.412 -0.2244 -0.2692  0.1935
 1075YOPC   C4B15328  12.607  15.111   7.788 -0.0540 -0.1039  0.2205
 1076YOPC   NC315329   8.410   4.494   5.951 -0.2717  0.1500  0.2231
 1076YOPC   PO415330   8.065   4.752   5.869 -0.2427  0.0625 -0.1810
 1076YOPC   GL115331   8.188   4.628   6.386  0.0006 -0.2834  0.2298
 1076YOPC   GL215332   7.882   4.688   6.505 -0.1933  0.2581  0.0875
 1076YOPC   C1A15333   8.110   4.186   6.656 -0.0705 -0.0975 -0.1367
 1076YOPC   D2A15334   8.331   3.880   6.865 -0.0929 -0.3951  0.1793
 1076YOPC   C3A15335   8.323   3.912   7.216 -0.0038 -0.1483  0.1259
 1076YOPC   C4A15336   8.242   3.837   7.627  0.2719 -0.0910 -0.2400
 1076YOPC   C1B15337   8.026   4.593   6.985  0.0037  0.1803 -0.2591
 1076YOPC   C2B15338   8.371   4.415   7.280  0.2191  0.0659  0.0297
 1076YOPC   D3B15339   8.390   4.375   7.665 -0.2614 -0.2304 -0.0744
 1076YOPC   C4B15340   8.533   4.071   7.970 -0.0463  0.4214 -0.1064
 1077YOPC   NC315341   9.000  13.726   5.998  0.0450 -0.0739 -0.0812
 1077YOPC   PO415342   9.265  14.053   5.828 -0.1311  0.0523 -0.1009
 1077YOPC   GL115343   9.138  14.042   6.375 -0.2271 -0.0865  0.0895
 1077YOPC   GL215344   8.913  13.950   6.482  0.0248  0.0385 -0.2060
 1077YOPC   C1A15345   9.450  13.969   6.775 -0.0995  0.1960  0.0447
 1077YOPC   D2A15346   9.405  14.295   7.150 -0.0110 -0.2724 -0.2184
 1077YOPC   C3A15347   9.287  14.327   7.595 -0.2660  0.0762 -0.2776
 1077YOPC   C4A15348   8.975  14.146   7.894  0.0598 -0.0873  0.0831
 1077YOPC   C1B15349   9.024  14.179   6.907 -0.0757  0.0152  0.0890
 1077YOPC   C2B15350   8.898  14.267   7.322  0.3566  0.1897 -0.1570
 1077YOPC   D3B15351   8.633  13.981   7.595  0.3215 -0.0905 -0.3931
 1077YOPC   C4B15352   8.651  13.706   7.916 -0.0389  0.0491  0.0702
 1078YOPC   NC315353   6.167  12.041   5.146 -0.1455 -0.1089  0.0953
 1078YOPC   PO415354   5.820  12.097   5.352  0.0673  0.0082  0.1179
 1078YOPC   GL115355   5.822  12.252   5.828  0.2458  0.0728 -0.1523
 1078YOPC   GL215356   5.701  12.132   6.128 -0.2024  0.2721  0.1536
 1078YOPC   C1A15357   6.081  12.551   6.081  0.0845  0.0653 -0.1252
 1078YOPC   D2A15358   6.330  12.630   6.342  0.2253  0.0594 -0.2560
 1078YOPC   C3A15359   6.653  12.273   6.349 -0.0303  0.1165  0.1673
 1078YOPC   C4A15360   6.973  12.129   6.255 -0.0752  0.1471  0.0660
 1078YOPC   C1B15361   5.717  11.955   6.515 -0.0211 -0.0597 -0.0136
 1078YOPC   C2B15362   5.500  11.912   6.963  0.0795 -0.1524 -0.0451
 1078YOPC   D3B15363   5.545  12.035   7.440 -0.3360  0.2547  0.1845
 1078YOPC   C4B15364   5.288  12.220   7.760  0.2090 -0.0194 -0.1373
 1079YOPC   NC315365  11.282  15.462   6.175 -0.0515 -0.0520  0.0715
 1079YOPC   PO415366  11.716  15.133   6.136  0.1120 -0.3551 -0.0328
 1079YOPC   GL115367  11.502  15.144   6.552  0.1105 -0.1304 -0.0058
 1079YOPC   GL215368  11.510  15.389   6.808  0.2059  0.0784 -0.1606
 1079YOPC   C1A15369  11.526  14.913   7.027 -0.2171  0.4665 -0.2546
 1079YOPC   D2A15370  11.252  14.828   7.398  0.0687 -0.1350  0.0109
 1079YOPC   C3A15371  11.285  14.953   7.755 -0.0683 -0.2883  0.0309
 1079YOPC   C4A15372  11.657  14.937   7.979  0.0607  0.1294 -0.0326
 1079YOPC   C1B15373  11.334  15.309   7.261  0.1751 -0.0707 -0.1580
 1079YOPC   C2B15374  11.276  15.461   7.680 -0.3178 -0.1368 -0.0100
 1079YOPC   D3B15375  11.596  15.424   7.967  0.0371 -0.0665  0.0642
 1079YOPC   C4B15376  12.070  15.207   7.866 -0.0178  0.1044 -0.3162
 1080YOPC   NC315377   2.338   6.153   5.750 -0.2726  0.0410  0.3230
 1080YOPC   PO415378   2.274   6.515   6.047 -0.2172 -0.1410  0.2136
 1080YOPC   GL115379   2.314   6.795   6.376  0.1079  0.0814 -0.0867
 1080YOPC   GL215380   2.018   6.847   6.454  0.1643  0.2878 -0.0636
 1080YOPC   C1A15381   2.639   6.741   6.786  0.1269 -0.2601  0.1787
 1080YOPC   D2A15382   2.934   6.654   7.056 -0.0603 -0.1052  0.0242
 1080YOPC   C3A15383   3.063   6.714   7.521  0.4124 -0.0132 -0.0858
 1080YOPC   C4A15384   3.124   6.502   7.943  0.0458  0.3104 -0.2350
 1080YOPC   C1B15385   1.888   7.012   6.870  0.0972  0.1199 -0.1784
 1080YOPC   C2B15386   1.869   6.806   7.274 -0.0098 -0.0633 -0.4511
 1080YOPC   D3B15387   1.896   6.972   7.678  0.2626  0.0774 -0.2564
 1080YOPC   C4B15388   2.255   6.899   8.037  0.1329 -0.0388 -0.0188
 1081YOPC   NC315389  14.293  14.028   5.829  0.3508  0.1406  0.1539
 1081YOPC   PO415390  14.534  13.924   6.203 -0.0103 -0.1180 -0.0528
 1081YOPC   GL115391  14.623  13.980   6.647 -0.0434  0.1512  0.2108
 1081YOPC   GL215392  14.986  13.938   6.733  0.0205  0.3806  0.0386
 1081YOPC   C1A15393  14.651  14.152   7.026  0.1419  0.0157 -0.3560
 1081YOPC   D2A15394  14.625  14.498   7.184 -0.2361 -0.1862 -0.0198
 1081YOPC   C3A15395  14.733  14.606   7.632 -0.1397 -0.2087 -0.1340
 1081YOPC   C4A15396  14.954  14.513   7.958 -0.1175  0.1995  0.1559
 1081YOPC   C1B15397  15.065  14.021   7.218  0.0785 -0.0344  0.2214
 1081YOPC   C2B15398  14.827  14.159   7.555 -0.1761 -0.0983  0.1332
 1081YOPC   D3B15399  14.980  13.988   7.866 -0.1284 -0.0992 -0.1913
 1081YOPC   C4B15400  15.352  13.909   8.166  0.1400 -0.2114  0.0169
 1082YOPC   NC315401  12.624  11.085   6.099  0.0858 -0.3627 -0.0988
 1082YOPC   PO415402  12.239  10.902   6.004 -0.0186  0.3633  0.1904
 1082YOPC   GL115403  12.259  10.667   6.387 -0.2178  0.1246 -0.3845
 1082YOPC   GL215404  12.135  10.942   6.500  0.3031  0.1182  0.2517
 1082YOPC   C1A15405  12.584  10.739   6.767 -0.0259 -0.0423 -0.2019
 1082YOPC   D2A15406  12.832  10.639   7.024 -0.0115  0.1739 -0.2607
 1082YOPC   C3A15407  12.617  10.392   7.265  0.1427 -0.1788  0.1771
 1082YOPC   C4A15408  12.317  10.340   7.619 -0.0407 -0.0209 -0.2272
 1082YOPC   C1B15409  12.230  11.006   6.871  0.0090  0.4305 -0.1832
 1082YOPC   C2B15410  12.242  11.394   7.222 -0.2461  0.3732 -0.0652
 1082YOPC   D3B15411  12.134  11.480   7.535  0.1091  0.1512 -0.2590
 1082YOPC   C4B15412  12.167  11.278   7.915  0.0553  0.0070  0.0719
 1083YOPC   NC315413   3.419   6.072   5.905 -0.0736 -0.1014  0.0624
 1083YOPC   PO415414   3.006   6.065   6.199 -0.3576 -0.1838 -0.1528
 1083YOPC   GL115415   2.845   5.966   6.550 -0.2086 -0.0592 -0.0331
 1083YOPC   GL215416   3.007   6.102   6.735 -0.1232  0.2623 -0.0033
 1083YOPC   C1A15417   2.733   5.768   6.939  0.3305  0.0903 -0.1085
 1083YOPC   D2A15418   2.829   5.774   7.401 -0.0957  0.0342  0.1063
 1083YOPC   C3A15419   2.836   5.954   7.769 -0.2721  0.1056 -0.1407
 1083YOPC   C4A15420   2.892   6.083   8.181 -0.3391  0.0946  0.2254
 1083YOPC   C1B15421   2.602   6.293   6.939  0.1598 -0.0735  0.0004
 1083YOPC   C2B15422   2.303   6.559   7.080 -0.0451 -0.2657 -0.2176
 1083YOPC   D3B15423   2.232   6.617   7.521  0.0386 -0.3127 -0.1706
 1083YOPC   C4B15424   2.145   6.342   7.843 -0.0495  0.1118 -0.2755
 1084YOPC   NC315425   9.095   2.338   5.843 -0.0851 -0.1243 -0.1034
 1084YOPC   PO415426   9.459   2.606   5.961 -0.0719 -0.0578 -0.2189
 1084YOPC   GL115427   9.658   2.538   6.394  0.4609 -0.2138 -0.0323
 1084YOPC   GL215428   9.340   2.508   6.515  0.1140 -0.2092 -0.1405
 1084YOPC   C1A15429   9.742   2.251   6.714 -0.2593  0.1380 -0.0431
 1084YOPC   D2A15430  10.024   2.151   6.931 -0.0300  0.3928  0.0514
 1084YOPC   C3A15431  10.164   2.453   7.114 -0.1355 -0.3543  0.0461
 1084YOPC   C4A15432  10.206   2.751   7.344  0.0695  0.1588 -0.1675
 1084YOPC   C1B15433   9.261   2.319   6.910 -0.0557  0.2956  0.1210
 1084YOPC   C2B15434   9.164   2.263   7.326 -0.2113  0.0622  0.0888
 1084YOPC   D3B15435   8.738   2.351   7.366  0.0026 -0.1159  0.2325
 1084YOPC   C4B15436   8.479   2.371   7.682 -0.1653 -0.0591 -0.2035
 1085YOPC   NC315437   4.827   0.522   5.544  0.2063  0.0394  0.1422
 1085YOPC   PO415438   5.225   0.437   5.702  0.0106 -0.1157 -0.1644
 1085YOPC   GL115439   5.311   0.650   6.089  0.1173  0.1220 -0.1422
 1085YOPC   GL215440   5.402   0.411   6.267 -0.1081 -0.1274 -0.1134
 1085YOPC   C1A15441   5.021   0.703   6.404 -0.0080  0.0775  0.0563
 1085YOPC   D2A15442   4.909   0.949   6.779  0.0225 -0.0920 -0.0791
 1085YOPC   C3A15443   5.073   1.033   7.184 -0.0061 -0.2419  0.1532
 1085YOPC   C4A15444   5.329   1.095   7.551 -0.2341 -0.2375 -0.0943
 1085YOPC   C1B15445   5.168   0.323   6.629 -0.1548 -0.2379 -0.1975
 1085YOPC   C2B15446   5.008   0.001   6.906  0.0745 -0.3499 -0.1917
 1085YOPC   D3B15447   4.989   0.012   7.325 -0.1881  0.1756 -0.1679
 1085YOPC   C4B15448   5.456  -0.083   7.473 -0.2884 -0.0999 -0.0843
 1086YOPC   NC315449   6.922  13.511   5.711 -0.1316 -0.2129  0.2055
 1086YOPC   PO415450   6.599  13.701   5.999  0.2212 -0.2316 -0.3646
 1086YOPC   GL115451   6.726  13.623   6.386 -0.0428 -0.1443 -0.0488
 1086YOPC   GL215452   6.976  13.804   6.610  0.1559  0.0793  0.0001
 1086YOPC   C1A15453   6.497  13.445   6.713 -0.2449  0.2001 -0.2792
 1086YOPC   D2A15454   6.652  13.306   7.099 -0.3267  0.0370  0.1998
 1086YOPC   C3A15455   6.493  12.887   7.195 -0.0028  0.1779 -0.4702
 1086YOPC   C4A15456   6.586  12.528   7.476 -0.0115 -0.0457 -0.1356
 1086YOPC   C1B15457   7.043  13.757   7.033  0.0153 -0.4123 -0.0272
 1086YOPC   C2B15458   7.042  13.542   7.376  0.2168 -0.3189 -0.3990
 1086YOPC   D3B15459   6.686  13.479   7.776  0.2980 -0.0756 -0.2038
 1086YOPC   C4B15460   6.537  13.354   8.028  0.0626 -0.1202 -0.1553
 1087YOPC   NC315461   8.898  16.633   6.044 -0.2216 -0.0654 -0.5420
 1087YOPC   PO415462   8.882  17.034   5.876 -0.1331  0.4166 -0.0514
 1087YOPC   GL115463   8.812  17.033   6.340  0.1813  0.1548 -0.0721
 1087YOPC   GL215464   8.503  17.085   6.552  0.2893  0.0824 -0.1631
 1087YOPC   C1A15465   9.081  16.983   6.650 -0.2835 -0.0031  0.0149
 1087YOPC   D2A15466   9.469  17.085   6.882  0.0576 -0.1590 -0.0632
 1087YOPC   C3A15467   9.603  17.399   7.206 -0.0909 -0.0984  0.1842
 1087YOPC   C4A15468   9.425  17.360   7.544  0.0730  0.0977 -0.1567
 1087YOPC   C1B15469   8.654  17.218   6.932 -0.1255  0.0821 -0.2067
 1087YOPC   C2B15470   8.563  17.631   7.008  0.0021  0.0110  0.1484
 1087YOPC   D3B15471   8.298  17.605   7.382  0.0180 -0.2466  0.0560
 1087YOPC   C4B15472   8.458  17.766   7.801  0.0382 -0.1852  0.1176
 1088YOPC   NC315473   4.033   8.808   6.013  0.0201 -0.1073 -0.1413
 1088YOPC   PO415474   3.656   9.123   6.000 -0.0569  0.2117 -0.3652
 1088YOPC   GL115475   3.569   9.482   6.321  0.0656 -0.0196  0.0045
 1088YOPC   GL215476   3.738   9.717   6.472 -0.1942  0.1569  0.2872
 1088YOPC   C1A15477   3.410   9.347   6.665 -0.0107 -0.0926  0.1722
 1088YOPC   D2A15478   3.528   9.283   7.148 -0.1068 -0.0570 -0.0933
 1088YOPC   C3A15479   3.667   9.232   7.534 -0.3611 -0.2517 -0.1636
 1088YOPC   C4A15480   3.499   9.008   7.754  0.0258 -0.1577  0.0661
 1088YOPC   C1B15481   3.854  10.059   6.796  0.0598  0.7066 -0.0187
 1088YOPC   C2B15482   3.880  10.175   7.151  0.1010 -0.2480  0.1416
 1088YOPC   D3B15483   3.604  10.315   7.334  0.1665  0.1378 -0.1741
 1088YOPC   C4B15484   3.623  10.327   7.785 -0.2337 -0.4451  0.3876
 1089YOPC   NC315485   6.095  17.572   5.531  0.2164 -0.1435 -0.0642
 1089YOPC   PO415486   5.777  17.500   5.885 -0.4217  0.3221  0.2966
 1089YOPC   GL115487   5.823  17.384   6.289 -0.0615 -0.1298 -0.0834
 1089YOPC   GL215488   5.627  17.140   6.433 -0.2371 -0.0878 -0.0474
 1089YOPC   C1A15489   5.984  17.446   6.759  0.0480  0.2583 -0.1108
 1089YOPC   D2A15490   5.830  17.639   7.077  0.1540 -0.2963 -0.0734
 1089YOPC   C3A15491   5.928  17.651   7.571 -0.3388 -0.1014  0.0904
 1089YOPC   C4A15492   5.929  17.402   7.890  0.7313  0.0538  0.0046
 1089YOPC   C1B15493   5.588  17.183   6.932 -0.1038 -0.1028 -0.0847
 1089YOPC   C2B15494   5.675  17.229   7.313  0.1962 -0.0205  0.0517
 1089YOPC   D3B15495   5.466  17.287   7.669 -0.1753 -0.2155  0.0457
 1089YOPC   C4B15496   5.211  17.510   7.825  0.0509  0.1470 -0.0039
 1090YOPC   NC315497  15.798   9.708   6.168 -0.1225 -0.0230  0.0129
 1090YOPC   PO415498  16.187   9.488   6.310  0.1117  0.2029 -0.0967
 1090YOPC   GL115499  15.975   9.698   6.687 -0.3569 -0.2647 -0.2698
 1090YOPC   GL215500  15.784   9.502   6.708  0.1114 -0.0153 -0.0504
 1090YOPC   C1A15501  16.031   9.656   7.178 -0.1349 -0.1438  0.0437
 1090YOPC   D2A15502  15.944   9.590   7.600  0.1051  0.0928 -0.2698
 1090YOPC   C3A15503  15.629   9.322   7.773 -0.0556 -0.2441  0.0053
 1090YOPC   C4A15504  15.585   8.987   7.955  0.2501  0.1159 -0.0533
 1090YOPC   C1B15505  15.499   9.663   7.032 -0.1388 -0.0352  0.4461
 1090YOPC   C2B15506  15.464   9.664   7.419 -0.1068 -0.0725  0.2863
 1090YOPC   D3B15507  15.386   9.949   7.804  0.2310  0.1596  0.2734
 1090YOPC   C4B15508  15.053  10.182   8.013  0.1284 -0.0491 -0.1617
 1091YOPC   NC315509  15.370   8.253   5.670  0.1339 -0.0150  0.5246
 1091YOPC   PO415510  15.249   8.142   6.073  0.0528  0.0378 -0.2368
 1091YOPC   GL115511  15.132   8.179   6.488  0.0837  0.1864 -0.2239
 1091YOPC   GL215512  15.048   8.529   6.607 -0.0443  0.0297 -0.1184
 1091YOPC   C1A15513  14.750   8.164   6.798 -0.3697 -0.2941  0.1893
 1091YOPC   D2A15514  14.702   8.390   7.186 -0.4367 -0.0755 -0.0286
 1091YOPC   C3A15515  14.858   8.476   7.536 -0.1939  0.2210 -0.0608
 1091YOPC   C4A15516  15.011   8.316   7.939  0.2070  0.2495  0.2842
 1091YOPC   C1B15517  14.896   8.753   6.936 -0.2388  0.0070  0.0385
 1091YOPC   C2B15518  14.707   8.891   7.401  0.1836 -0.1916  0.1268
 1091YOPC   D3B15519  14.835   9.099   7.636  0.1132  0.1830 -0.1592
 1091YOPC   C4B15520  15.041   9.201   8.089  0.2184 -0.0313 -0.1531
 1092YOPC   NC315521   2.703  16.682   5.656  0.2263  0.0408 -0.1296
 1092YOPC   PO415522   2.970  17.001   5.932  0.1002  0.0075 -0.0314
 1092YOPC   GL115523   2.857  17.172   6.268 -0.1681 -0.0925 -0.3363
 1092YOPC   GL215524   3.044  16.970   6.469  0.1104  0.2097 -0.0298
 1092YOPC   C1A15525   3.084  17.407   6.652  0.2248 -0.1038 -0.0524
 1092YOPC   D2A15526   3.359  17.582   6.990  0.1571 -0.0280  0.0858
 1092YOPC   C3A15527   3.203  17.507   7.472 -0.1073 -0.2691 -0.0758
 1092YOPC   C4A15528   3.168  17.763   7.811  0.1240  0.4862 -0.1956
 1092YOPC   C1B15529   2.646  16.734   6.711 -0.1504 -0.0371 -0.0614
 1092YOPC   C2B15530   2.621  16.674   7.132 -0.0478  0.2407  0.1364
 1092YOPC   D3B15531   2.666  16.719   7.509  0.1113  0.0779 -0.0665
 1092YOPC   C4B15532   2.881  16.891   7.898 -0.0527  0.0299 -0.0101
 1093YOPC   NC315533   3.940  14.969   6.113 -0.0196  0.0135  0.1056
 1093YOPC   PO415534   3.712  14.689   6.262  0.0861 -0.0220  0.1260
 1093YOPC   GL115535   3.634  15.020   6.520 -0.0998  0.0874  0.1838
 1093YOPC   GL215536   3.955  15.032   6.600 -0.1591 -0.1927  0.0922
 1093YOPC   C1A15537   3.684  15.406   6.797  0.1204  0.2231  0.0312
 1093YOPC   D2A15538   3.622  15.728   7.060 -0.1032  0.1046 -0.1420
 1093YOPC   C3A15539   3.710  16.065   7.016 -0.2155  0.0259  0.0463
 1093YOPC   C4A15540   3.559  16.430   6.866 -0.1248  0.1217  0.2417
 1093YOPC   C1B15541   3.847  15.101   7.104 -0.1501 -0.1428  0.1463
 1093YOPC   C2B15542   3.772  14.889   7.330  0.3196 -0.0180 -0.0462
 1093YOPC   D3B15543   3.528  15.006   7.753 -0.0585  0.3079 -0.0710
 1093YOPC   C4B15544   3.079  14.910   7.937 -0.0997  0.0059  0.0599
 1094YOPC   NC315545   0.319   3.184   5.849 -0.1723 -0.1643  0.0846
 1094YOPC   PO415546   0.215   3.088   6.317 -0.0574 -0.0683  0.1427
 1094YOPC   GL115547   0.066   3.324   6.674 -0.1777 -0.2691 -0.1651
 1094YOPC   GL215548   0.299   3.251   6.835  0.0206  0.2217  0.0139
 1094YOPC   C1A15549  -0.167   3.356   7.070  0.1859 -0.1842 -0.0571
 1094YOPC   D2A15550  -0.229   3.187   7.523  0.0727  0.0435  0.3341
 1094YOPC   C3A15551  -0.353   3.388   7.916  0.0726 -0.3385 -0.1300
 1094YOPC   C4A15552   0.020   3.553   8.158  0.1757  0.0623  0.0130
 1094YOPC   C1B15553   0.253   3.074   7.252  0.1776  0.0238 -0.2713
 1094YOPC   C2B15554   0.061   2.784   7.488 -0.1390  0.1565 -0.1666
 1094YOPC   D3B15555   0.111   2.903   7.890  0.0578 -0.2320 -0.1957
 1094YOPC   C4B15556   0.049   3.011   8.293  0.0895  0.0990  0.0482
 1095YOPC   NC315557   5.819  13.566   5.461  0.0852  0.0632 -0.0430
 1095YOPC   PO415558   5.952  13.171   5.311 -0.1642 -0.0145 -0.0589
 1095YOPC   GL115559   6.041  12.869   5.703 -0.1275  0.2624 -0.0753
 1095YOPC   GL215560   5.990  12.999   6.026 -0.0591  0.1032 -0.0228
 1095YOPC   C1A15561   6.516  12.773   5.883  0.0607 -0.1209  0.2598
 1095YOPC   D2A15562   6.909  12.527   5.967  0.1064  0.0496  0.1576
 1095YOPC   C3A15563   7.289  12.583   6.132 -0.0554  0.1907  0.1189
 1095YOPC   C4A15564   7.561  12.387   6.421 -0.0593  0.1354  0.0338
 1095YOPC   C1B15565   5.990  12.980   6.500 -0.2634 -0.0981  0.1273
 1095YOPC   C2B15566   6.306  12.927   6.772  0.2615  0.1599 -0.2221
 1095YOPC   D3B15567   6.479  12.535   6.838 -0.0187 -0.0737 -0.1759
 1095YOPC   C4B15568   6.190  12.204   6.764  0.5940  0.0783  0.1033
 1096YOPC   NC315569  14.715   7.522   6.180  0.0006 -0.2699  0.1930
 1096YOPC   PO415570  15.084   7.699   6.196  0.0686  0.0526  0.2094
 1096YOPC   GL115571  15.054   7.752   6.687 -0.2441 -0.0550 -0.3309
 1096YOPC   GL215572  14.663   7.662   6.647 -0.2871  0.1529  0.0776
 1096YOPC   C1A15573  15.246   8.131   6.946  0.3475 -0.1214  0.0976
 1096YOPC   D2A15574  15.196   8.419   7.148  0.2689  0.3093 -0.0767
 1096YOPC   C3A15575  15.361   8.341   7.483 -0.0995 -0.0464  0.0626
 1096YOPC   C4A15576  15.665   8.524   7.637 -0.1167 -0.1695 -0.1572
 1096YOPC   C1B15577  14.765   7.743   7.120  0.1844 -0.1956  0.0914
 1096YOPC   C2B15578  14.985   7.982   7.359  0.0937 -0.1120  0.1057
 1096YOPC   D3B15579  14.919   7.776   7.789 -0.3833  0.0856 -0.1792
 1096YOPC   C4B15580  14.853   7.569   8.117 -0.3228 -0.1638 -0.1018
 1097YOPC   NC315581  14.849  10.480   6.396  0.2391  0.2086  0.0110
 1097YOPC   PO415582  15.266  10.241   6.408 -0.1702 -0.1426  0.1697
 1097YOPC   GL115583  15.219  10.474   6.839  0.1526 -0.0161 -0.2587
 1097YOPC   GL215584  15.196  10.754   6.644 -0.1887 -0.1940  0.0477
 1097YOPC   C1A15585  15.142  10.687   7.171 -0.2791 -0.3800 -0.3058
 1097YOPC   D2A15586  15.080  10.995   7.521  0.1259 -0.2604 -0.0743
 1097YOPC   C3A15587  14.931  10.723   7.814  0.0110  0.1737  0.0356
 1097YOPC   C4A15588  14.887  10.689   8.367  0.0611  0.0905 -0.2069
 1097YOPC   C1B15589  14.945  10.967   6.856 -0.1106  0.0010 -0.4208
 1097YOPC   C2B15590  14.795  11.268   7.216  0.1359 -0.1121 -0.0500
 1097YOPC   D3B15591  14.667  11.221   7.642  0.0691 -0.0586 -0.0328
 1097YOPC   C4B15592  14.609  11.032   8.085  0.3577 -0.0523  0.0882
 1098YOPC   NC315593  16.168   6.235   5.566  0.0381 -0.2820 -0.2020
 1098YOPC   PO415594  16.019   6.220   6.024  0.0757  0.2150 -0.0690
 1098YOPC   GL115595  16.204   6.067   6.459 -0.3783  0.0627  0.0501
 1098YOPC   GL215596  15.975   5.830   6.486 -0.1467  0.1132 -0.0399
 1098YOPC   C1A15597  16.267   6.229   6.908 -0.0961 -0.0486  0.1400
 1098YOPC   D2A15598  16.376   6.362   7.354  0.2317  0.1617  0.1180
 1098YOPC   C3A15599  16.234   6.053   7.649 -0.1269 -0.0561  0.0390
 1098YOPC   C4A15600  16.071   5.723   7.883  0.2618 -0.0530 -0.3427
 1098YOPC   C1B15601  15.894   5.612   7.024  0.1953  0.3234 -0.1898
 1098YOPC   C2B15602  15.947   5.683   7.414  0.2340  0.4723  0.0110
 1098YOPC   D3B15603  16.237   5.352   7.617  0.1771  0.0383 -0.0327
 1098YOPC   C4B15604  16.382   5.336   8.082 -0.3411 -0.2312 -0.0779
 1099YOPC   NC315605  16.747   0.515   5.585  0.2612  0.0044  0.0179
 1099YOPC   PO415606  16.920   0.424   6.019  0.0500  0.3498  0.0567
 1099YOPC   GL115607  17.079   0.200   6.482 -0.1346  0.0555  0.0649
 1099YOPC   GL215608  17.392   0.190   6.628  0.2529  0.0233  0.2805
 1099YOPC   C1A15609  16.958   0.030   6.865 -0.1824  0.0764 -0.2205
 1099YOPC   D2A15610  16.790  -0.317   6.883 -0.0303  0.0679 -0.1413
 1099YOPC   C3A15611  16.780  -0.487   7.303  0.2823 -0.1294 -0.0921
 1099YOPC   C4A15612  16.696  -0.592   7.698  0.2168 -0.0246  0.2325
 1099YOPC   C1B15613  17.713   0.467   6.811 -0.2590 -0.0958 -0.1296
 1099YOPC   C2B15614  18.107   0.690   6.992 -0.0443  0.0905 -0.0114
 1099YOPC   D3B15615  18.584   0.676   6.849  0.1201 -0.0788 -0.0084
 1099YOPC   C4B15616  19.045   0.670   6.821  0.2920 -0.2567 -0.1440
 1100YOPC   NC315617  13.556  15.641   6.088  0.0537 -0.1514 -0.1510
 1100YOPC   PO415618  13.810  15.360   6.376 -0.4498 -0.0739  0.1049
 1100YOPC   GL115619  13.542  15.371   6.683 -0.0098  0.0767 -0.5616
 1100YOPC   GL215620  13.448  15.069   6.713 -0.0825  0.3446 -0.1258
 1100YOPC   C1A15621  13.226  15.585   6.836  0.1912  0.0468  0.0055
 1100YOPC   D2A15622  12.996  15.918   7.022  0.0881  0.1729  0.0681
 1100YOPC   C3A15623  12.931  15.899   7.478  0.1909  0.3540 -0.0352
 1100YOPC   C4A15624  12.765  15.948   7.920  0.0172  0.0862 -0.0436
 1100YOPC   C1B15625  13.399  15.107   7.131  0.3388  0.1656  0.0942
 1100YOPC   C2B15626  13.281  14.767   7.410  0.1883 -0.1068 -0.1770
 1100YOPC   D3B15627  13.118  14.854   7.754  0.4500 -0.0561 -0.2072
 1100YOPC   C4B15628  12.904  15.014   8.188  0.1238 -0.1111  0.0506
 1101YOPC   NC315629   2.689  14.079   6.081  0.0192 -0.2555  0.2922
 1101YOPC   PO415630   2.826  13.652   6.077 -0.0744 -0.0567  0.0893
 1101YOPC   GL115631   3.097  13.374   6.246  0.1600 -0.2605  0.1520
 1101YOPC   GL215632   2.971  13.030   6.190 -0.0294  0.1122  0.1162
 1101YOPC   C1A15633   3.168  13.195   6.643 -0.2025 -0.0270  0.2258
 1101YOPC   D2A15634   3.388  13.026   6.958 -0.1514 -0.4081  0.1205
 1101YOPC   C3A15635   3.230  13.187   7.372  0.0947 -0.3722 -0.3723
 1101YOPC   C4A15636   3.356  13.043   7.716  0.1413  0.0483  0.3158
 1101YOPC   C1B15637   2.904  12.738   6.467  0.2712 -0.1476 -0.4905
 1101YOPC   C2B15638   2.661  12.469   6.724  0.4297  0.0111 -0.0300
 1101YOPC   D3B15639   2.646  12.500   7.156  0.1439  0.0606  0.0180
 1101YOPC   C4B15640   2.606  12.406   7.636 -0.0091 -0.0366  0.0805
 1102YOPC   NC315641   5.875  16.951   6.011 -0.2405 -0.1305 -0.2343
 1102YOPC   PO415642   6.267  17.278   5.988 -0.1316  0.0893 -0.4159
 1102YOPC   GL115643   6.262  17.114   6.410 -0.3510  0.0576 -0.0984
 1102YOPC   GL215644   6.087  16.738   6.481 -0.2823 -0.0201 -0.0867
 1102YOPC   C1A15645   6.439  17.197   6.756  0.0409  0.0641  0.0584
 1102YOPC   D2A15646   6.810  17.150   6.965  0.2419 -0.1323 -0.1847
 1102YOPC   C3A15647   6.845  17.389   7.353 -0.0564  0.2773 -0.4002
 1102YOPC   C4A15648   6.885  17.285   7.695  0.0123  0.0902 -0.1538
 1102YOPC   C1B15649   5.952  16.930   6.787  0.0428 -0.1158 -0.0295
 1102YOPC   C2B15650   5.871  16.795   7.142  0.2477 -0.0436  0.2578
 1102YOPC   D3B15651   6.020  16.873   7.564  0.1053  0.0076  0.2334
 1102YOPC   C4B15652   6.260  17.032   7.818  0.0562 -0.1257 -0.2482
 1103YOPC   NC315653   4.535  10.443   5.813 -0.0873 -0.0648  0.0831
 1103YOPC   PO415654   4.550  10.062   6.020 -0.1729 -0.3142  0.0760
 1103YOPC   GL115655   4.488  10.280   6.287 -0.0657 -0.1225  0.1221
 1103YOPC   GL215656   4.783  10.525   6.289 -0.2784  0.0024  0.1160
 1103YOPC   C1A15657   4.714  10.041   6.598  0.2645 -0.0953 -0.0672
 1103YOPC   D2A15658   4.817   9.747   6.853  0.0846  0.1022  0.0762
 1103YOPC   C3A15659   4.759   9.878   7.305  0.2581 -0.1827  0.2409
 1103YOPC   C4A15660   4.690  10.118   7.683 -0.1940  0.0154 -0.3812
 1103YOPC   C1B15661   4.416  10.725   6.532  0.2312 -0.1586  0.0819
 1103YOPC   C2B15662   4.381  10.804   6.956  0.1721  0.2695 -0.1348
 1103YOPC   D3B15663   4.727  10.866   7.271 -0.2691 -0.1296  0.0326
 1103YOPC   C4B15664   4.834  11.250   7.417  0.0307  0.1524 -0.1131
 1104YOPC   NC315665   7.124  11.737   5.376  0.0441  0.1051 -0.2516
 1104YOPC   PO415666   6.742  11.676   5.668 -0.0583 -0.1989  0.2886
 1104YOPC   GL115667   6.614  11.722   6.165 -0.2814  0.1290 -0.2358
 1104YOPC   GL215668   6.265  11.548   6.079 -0.0159 -0.2698 -0.0812
 1104YOPC   C1A15669   6.676  11.828   6.587  0.1748 -0.0312 -0.0263
 1104YOPC   D2A15670   6.723  12.035   6.937 -0.2014  0.0864  0.4692
 1104YOPC   C3A15671   6.493  12.016   7.284 -0.2568  0.1649 -0.1175
 1104YOPC   C4A15672   6.339  11.739   7.552 -0.0649 -0.2323  0.3939
 1104YOPC   C1B15673   6.264  11.591   6.498  0.0586 -0.0028 -0.0918
 1104YOPC   C2B15674   6.285  11.625   6.914 -0.3392  0.2737 -0.1115
 1104YOPC   D3B15675   5.995  11.898   7.104 -0.1131 -0.0705  0.1314
 1104YOPC   C4B15676   6.024  12.173   7.378 -0.2062 -0.0499 -0.2773
 1105YOPC   NC315677  12.455   0.673   5.455 -0.1136 -0.1480 -0.2912
 1105YOPC   PO415678  12.067   0.450   5.668  0.1414 -0.0942  0.0044
 1105YOPC   GL115679  12.073   0.482   6.114  0.0928 -0.1587  0.0053
 1105YOPC   GL215680  11.830   0.464   6.289  0.0402 -0.2015  0.1013
 1105YOPC   C1A15681  12.276   0.473   6.580 -0.1794  0.3600  0.1189
 1105YOPC   D2A15682  12.350   0.640   6.891  0.0154  0.1509 -0.2557
 1105YOPC   C3A15683  12.347   0.500   7.342  0.5268 -0.0307  0.0911
 1105YOPC   C4A15684  12.289   0.429   7.767 -0.0075 -0.3737 -0.0761
 1105YOPC   C1B15685  11.558   0.375   6.530 -0.0017  0.1979 -0.1060
 1105YOPC   C2B15686  11.351   0.136   6.904  0.0975 -0.0352 -0.0716
 1105YOPC   D3B15687  11.346   0.122   7.352 -0.1153 -0.3161 -0.0108
 1105YOPC   C4B15688  11.238  -0.056   7.672  0.0112 -0.1103  0.0630
 1106YOPC   NC315689   3.918  11.525   5.761 -0.2583 -0.2417  0.3872
 1106YOPC   PO415690   3.966  11.063   5.820  0.1551  0.2910  0.0716
 1106YOPC   GL115691   3.999  11.101   6.314  0.0529 -0.1408  0.1349
 1106YOPC   GL215692   3.814  11.313   6.408 -0.2585 -0.0108 -0.4072
 1106YOPC   C1A15693   4.233  11.162   6.711  0.2850  0.0721  0.0655
 1106YOPC   D2A15694   4.266  11.457   6.999 -0.1916 -0.1820 -0.3179
 1106YOPC   C3A15695   4.305  11.338   7.509 -0.1219 -0.0461  0.1670
 1106YOPC   C4A15696   4.418  11.504   7.892 -0.3506  0.4666 -0.2275
 1106YOPC   C1B15697   3.694  11.236   6.905  0.0111  0.1812  0.0589
 1106YOPC   C2B15698   3.893  11.142   7.256  0.1390  0.1070  0.1185
 1106YOPC   D3B15699   3.696  10.912   7.600 -0.1067 -0.0758  0.0236
 1106YOPC   C4B15700   3.411  11.118   7.908 -0.2145 -0.0086 -0.0561
 1107YOPC   NC315701   2.956  15.764   5.516 -0.0294 -0.1408  0.0258
 1107YOPC   PO415702   3.236  16.084   5.823  0.0580  0.1213  0.0360
 1107YOPC   GL115703   3.263  16.186   6.258  0.0101 -0.1675  0.0257
 1107YOPC   GL215704   3.382  15.940   6.553  0.0851  0.0521 -0.0199
 1107YOPC   C1A15705   3.106  16.428   6.602  0.0390 -0.2121  0.2029
 1107YOPC   D2A15706   3.074  16.585   7.074  0.2454  0.0758 -0.2174
 1107YOPC   C3A15707   3.129  16.545   7.496  0.1415  0.0177 -0.2114
 1107YOPC   C4A15708   3.350  16.457   7.850  0.1360 -0.1725 -0.2109
 1107YOPC   C1B15709   3.213  16.007   6.948  0.0505 -0.0682  0.1231
 1107YOPC   C2B15710   3.353  16.095   7.407  0.3135  0.1350 -0.2967
 1107YOPC   D3B15711   3.745  16.198   7.694  0.0386 -0.0490  0.1651
 1107YOPC   C4B15712   3.898  16.448   8.094 -0.0874  0.0014 -0.1114
 1108YOPC   NC315713  10.247   7.593   6.209 -0.1092  0.2004  0.1052
 1108YOPC   PO415714  10.183   7.132   6.090 -0.2926 -0.0592  0.2695
 1108YOPC   GL115715  10.331   7.083   6.503 -0.2655 -0.3796  0.0704
 1108YOPC   GL215716  10.294   6.747   6.652  0.3399  0.0854 -0.0782
 1108YOPC   C1A15717  10.320   7.164   6.954  0.2304  0.0507 -0.0734
 1108YOPC   D2A15718  10.448   7.331   7.259  0.1820  0.0185  0.2175
 1108YOPC   C3A15719  10.149   7.599   7.417  0.1830 -0.0631 -0.0136
 1108YOPC   C4A15720  10.340   7.815   7.652 -0.0841  0.1676 -0.4225
 1108YOPC   C1B15721  10.370   6.523   7.046  0.1241  0.1089 -0.1029
 1108YOPC   C2B15722  10.617   6.437   7.468  0.0898 -0.4707 -0.0691
 1108YOPC   D3B15723  11.084   6.332   7.697  0.2469 -0.0905 -0.0670
 1108YOPC   C4B15724  11.329   6.126   7.924  0.1120 -0.2113 -0.1945
 1109YOPC   NC315725   0.281   1.067   5.732 -0.5465 -0.0039  0.2864
 1109YOPC   PO415726   0.262   0.814   6.059 -0.0489  0.3465  0.2584
 1109YOPC   GL115727   0.072   1.109   6.338  0.0962 -0.1207 -0.0147
 1109YOPC   GL215728   0.211   1.301   6.477  0.4528 -0.1047 -0.1166
 1109YOPC   C1A15729  -0.173   0.997   6.781 -0.1976 -0.0366  0.0325
 1109YOPC   D2A15730  -0.286   0.974   7.164 -0.1168  0.1270  0.1584
 1109YOPC   C3A15731   0.091   0.974   7.436 -0.0038  0.2907 -0.1840
 1109YOPC   C4A15732   0.330   0.856   7.826  0.1560  0.3727  0.0097
 1109YOPC   C1B15733   0.215   1.534   6.852 -0.0624  0.0186 -0.0844
 1109YOPC   C2B15734   0.373   1.473   7.230 -0.0715 -0.2280  0.1124
 1109YOPC   D3B15735   0.415   1.317   7.614 -0.1156 -0.3376 -0.2695
 1109YOPC   C4B15736   0.431   1.311   7.960  0.0448 -0.0624 -0.5630
 1110YOPC   NC315737   4.726  15.429   6.060 -0.1940 -0.1904 -0.1341
 1110YOPC   PO415738   5.019  15.015   6.180  0.3745 -0.1898  0.1222
 1110YOPC   GL115739   4.971  14.670   6.426  0.3039  0.2193 -0.3245
 1110YOPC   GL215740   4.867  14.352   6.348 -0.0319  0.1173  0.3665
 1110YOPC   C1A15741   4.841  14.532   6.854 -0.3969 -0.0001  0.0193
 1110YOPC   D2A15742   4.880  14.499   7.265  0.1718  0.0933 -0.1413
 1110YOPC   C3A15743   4.583  14.272   7.525  0.2425 -0.3232 -0.0280
 1110YOPC   C4A15744   4.579  14.002   7.951 -0.0156 -0.1570 -0.2500
 1110YOPC   C1B15745   4.559  14.267   6.579  0.0620  0.0317  0.1155
 1110YOPC   C2B15746   4.524  14.200   7.056 -0.2053  0.0254  0.1656
 1110YOPC   D3B15747   4.521  13.809   7.062 -0.1322  0.1219 -0.2367
 1110YOPC   C4B15748   4.428  13.533   6.804  0.0464 -0.0256 -0.0981
 1111YOPC   NC315749  11.279   8.937   6.076 -0.1829  0.0155  0.0328
 1111YOPC   PO415750  11.485   8.557   5.912 -0.1132  0.0863  0.1900
 1111YOPC   GL115751  11.530   8.635   6.436  0.2004  0.1861 -0.0207
 1111YOPC   GL215752  11.608   8.934   6.547 -0.1022 -0.0077 -0.2783
 1111YOPC   C1A15753  11.603   8.553   6.855  0.0688 -0.0379  0.0678
 1111YOPC   D2A15754  11.448   8.464   7.242  0.0235  0.3463  0.0874
 1111YOPC   C3A15755  11.487   8.639   7.666  0.4022 -0.0976 -0.0302
 1111YOPC   C4A15756  11.343   8.899   8.023 -0.1005  0.0044  0.1774
 1111YOPC   C1B15757  11.670   9.018   7.001 -0.0401  0.0731  0.3979
 1111YOPC   C2B15758  11.649   8.953   7.368  0.0437 -0.0111 -0.1327
 1111YOPC   D3B15759  11.305   9.187   7.587 -0.1873  0.1627  0.1557
 1111YOPC   C4B15760  10.969   9.173   7.806 -0.0375  0.0898 -0.3733
 1112YOPC   NC315761   3.694  14.156   6.150  0.2292  0.0824  0.2779
 1112YOPC   PO415762   3.817  13.738   6.040  0.2848 -0.0711  0.1875
 1112YOPC   GL115763   3.512  13.650   6.433  0.1473  0.0952  0.0413
 1112YOPC   GL215764   3.566  13.913   6.550  0.2344  0.0486 -0.4396
 1112YOPC   C1A15765   3.493  13.515   6.916 -0.0517  0.2596 -0.2433
 1112YOPC   D2A15766   3.616  13.510   7.360  0.2240  0.0075 -0.1148
 1112YOPC   C3A15767   3.401  13.573   7.805  0.2233  0.1592  0.0970
 1112YOPC   C4A15768   3.040  13.471   7.733  0.1482 -0.3119  0.1967
 1112YOPC   C1B15769   3.663  14.068   6.957 -0.0496  0.1965 -0.0423
 1112YOPC   C2B15770   3.812  13.984   7.410 -0.3103  0.1042  0.0973
 1112YOPC   D3B15771   3.693  14.064   7.743 -0.1597 -0.0517  0.0651
 1112YOPC   C4B15772   3.476  13.984   8.088  0.0848  0.2932  0.1494
 1113YOPC   NC315773  12.212  13.747   6.009 -0.0471 -0.0478  0.2872
 1113YOPC   PO415774  12.223  13.432   5.743  0.0447 -0.3294 -0.2188
 1113YOPC   GL115775  12.157  13.331   6.247  0.2442 -0.5052 -0.0563
 1113YOPC   GL215776  11.924  13.517   6.355 -0.0211 -0.2250  0.2410
 1113YOPC   C1A15777  12.181  13.238   6.637  0.1440  0.1415 -0.1403
 1113YOPC   D2A15778  11.834  13.085   6.922  0.1047  0.1710  0.0921
 1113YOPC   C3A15779  11.827  13.087   7.357 -0.0186  0.1195  0.1183
 1113YOPC   C4A15780  12.015  13.319   7.704  0.1424 -0.1677  0.2689
 1113YOPC   C1B15781  11.825  13.596   6.813 -0.2365  0.0540 -0.1754
 1113YOPC   C2B15782  11.859  13.609   7.274 -0.1869  0.2936  0.1578
 1113YOPC   D3B15783  11.470  13.825   7.544 -0.1224  0.1005  0.0918
 1113YOPC   C4B15784  11.405  14.127   7.888  0.0134 -0.0077 -0.1338
 1114YOPC   NC315785   2.992  12.192   5.804  0.0420 -0.0258  0.3053
 1114YOPC   PO415786   2.571  12.068   5.759 -0.1003  0.2446  0.0834
 1114YOPC   GL115787   2.313  11.863   6.106  0.0540  0.0159  0.2661
 1114YOPC   GL215788   2.611  11.892   6.323 -0.0516  0.1080  0.0138
 1114YOPC   C1A15789   2.198  11.821   6.522  0.3230  0.3027  0.1638
 1114YOPC   D2A15790   2.330  11.699   6.978  0.2282 -0.1527  0.2299
 1114YOPC   C3A15791   2.459  11.932   7.303  0.0087 -0.0835 -0.1709
 1114YOPC   C4A15792   2.566  11.869   7.693 -0.1962  0.1748 -0.0285
 1114YOPC   C1B15793   2.730  11.918   6.768 -0.1966 -0.2344 -0.0090
 1114YOPC   C2B15794   2.979  12.062   7.071 -0.0873 -0.4752  0.0536
 1114YOPC   D3B15795   2.970  12.032   7.462 -0.0328  0.3770  0.2928
 1114YOPC   C4B15796   3.191  12.195   7.729 -0.1250  0.2889  0.1496
 1115YOPC   NC315797  14.313   8.411   6.248 -0.1806  0.1318 -0.2125
 1115YOPC   PO415798  14.257   8.847   6.265 -0.0394 -0.1551  0.1200
 1115YOPC   GL115799  14.059   8.852   6.630 -0.1909 -0.0645  0.0501
 1115YOPC   GL215800  14.062   8.512   6.745  0.2600  0.0367 -0.2512
 1115YOPC   C1A15801  13.823   8.884   7.086 -0.1906  0.1478 -0.0461
 1115YOPC   D2A15802  13.861   8.736   7.530  0.0264  0.0366  0.1029
 1115YOPC   C3A15803  13.921   8.900   7.848 -0.0270  0.2750 -0.1115
 1115YOPC   C4A15804  14.121   9.058   8.205  0.1796  0.0697  0.1031
 1115YOPC   C1B15805  14.256   8.587   7.195 -0.0431 -0.0389 -0.0949
 1115YOPC   C2B15806  14.354   8.629   7.636  0.0874  0.0372  0.0323
 1115YOPC   D3B15807  14.403   8.390   8.012 -0.0389  0.0734  0.0507
 1115YOPC   C4B15808  14.252   8.037   8.320 -0.2014 -0.0119 -0.1548
 1116YOPC   NC315809  10.007  12.841   5.779  0.0199  0.0067  0.3041
 1116YOPC   PO415810  10.270  13.118   5.991 -0.0993 -0.0435  0.2348
 1116YOPC   GL115811  10.099  13.352   6.305  0.4456 -0.0939 -0.2940
 1116YOPC   GL215812   9.879  13.035   6.413  0.0613  0.0151 -0.2722
 1116YOPC   C1A15813  10.227  13.577   6.626 -0.4208  0.0842  0.3459
 1116YOPC   D2A15814  10.328  13.700   7.037 -0.1830  0.2588 -0.0852
 1116YOPC   C3A15815  10.236  14.054   7.183 -0.0365 -0.3334  0.2896
 1116YOPC   C4A15816   9.885  14.354   7.430  0.0335 -0.0722 -0.4968
 1116YOPC   C1B15817   9.805  13.141   6.821  0.1302 -0.0291  0.0299
 1116YOPC   C2B15818   9.472  13.372   7.094 -0.1486  0.2168 -0.1306
 1116YOPC   D3B15819   9.439  13.327   7.584 -0.1880 -0.2887 -0.2387
 1116YOPC   C4B15820   9.463  13.269   7.934  0.0609  0.4434 -0.2200
 1117YOPC   NC315821   5.462   3.975   6.019  0.1527  0.2239  0.2786
 1117YOPC   PO415822   5.686   3.524   6.026 -0.0174 -0.2778  0.2158
 1117YOPC   GL115823   5.536   3.395   6.384 -0.0392  0.1576 -0.2129
 1117YOPC   GL215824   5.324   3.223   6.384 -0.1088 -0.4121  0.0695
 1117YOPC   C1A15825   5.594   3.449   6.718  0.3844 -0.3804 -0.1961
 1117YOPC   D2A15826   5.642   3.243   7.127  0.0459 -0.0730  0.2565
 1117YOPC   C3A15827   5.417   3.383   7.375  0.0907  0.1774 -0.4139
 1117YOPC   C4A15828   5.353   3.571   7.670 -0.2087 -0.0626  0.2373
 1117YOPC   C1B15829   5.601   2.954   6.679 -0.2269  0.0917  0.1478
 1117YOPC   C2B15830   5.603   2.769   7.076  0.0174  0.0460  0.0271
 1117YOPC   D3B15831   5.565   2.878   7.480  0.3047  0.2571  0.3599
 1117YOPC   C4B15832   5.544   2.445   7.697  0.2327  0.2510  0.2947
 1118YOPC   NC315833  12.953   9.294   6.124 -0.0535 -0.0780  0.1292
 1118YOPC   PO415834  13.421   9.331   6.184 -0.2639  0.1409 -0.2869
 1118YOPC   GL115835  13.652   9.190   6.582  0.2569  0.0881  0.0049
 1118YOPC   GL215836  13.489   9.276   6.794  0.0181  0.0196 -0.1360
 1118YOPC   C1A15837  14.019   9.313   6.794 -0.2460  0.1831 -0.0446
 1118YOPC   D2A15838  14.280   9.583   6.965 -0.1483  0.1702 -0.0607
 1118YOPC   C3A15839  14.204   9.980   7.152  0.0301 -0.0544 -0.0497
 1118YOPC   C4A15840  14.276  10.361   7.162  0.0054  0.0251  0.2625
 1118YOPC   C1B15841  13.376   9.200   7.173  0.0049  0.0230  0.0298
 1118YOPC   C2B15842  13.479   9.063   7.577  0.0426  0.0965 -0.1447
 1118YOPC   D3B15843  13.598   9.276   7.910  0.2836 -0.0522  0.1745
 1118YOPC   C4B15844  13.760   9.434   8.304  0.0056  0.3953  0.1292
 1119YOPC   NC315845   6.966   6.879   6.117 -0.1511  0.2369 -0.0262
 1119YOPC   PO415846   6.725   6.693   6.473 -0.1187 -0.1307 -0.3892
 1119YOPC   GL115847   7.043   6.622   6.905  0.0204 -0.0254  0.2421
 1119YOPC   GL215848   7.345   6.621   6.779  0.0882  0.1112  0.3165
 1119YOPC   C1A15849   7.181   6.764   7.260 -0.1537  0.0084 -0.1085
 1119YOPC   D2A15850   7.252   6.703   7.631  0.2602 -0.0150 -0.2102
 1119YOPC   C3A15851   7.193   7.073   7.893 -0.3481  0.3528  0.0043
 1119YOPC   C4A15852   7.052   7.210   8.253 -0.2322  0.2247  0.0227
 1119YOPC   C1B15853   7.455   6.970   6.869  0.1208  0.2224 -0.1539
 1119YOPC   C2B15854   7.764   7.210   7.014 -0.1865  0.2085  0.2422
 1119YOPC   D3B15855   7.750   7.424   7.479  0.3726  0.2059  0.0921
 1119YOPC   C4B15856   7.708   7.812   7.650 -0.1280 -0.0306 -0.1455
 1120YOPC   NC315857   8.777  14.186   6.091  0.3239  0.0860 -0.0008
 1120YOPC   PO415858   8.518  13.883   6.128  0.0602  0.0810 -0.2556
 1120YOPC   GL115859   8.360  14.123   6.504 -0.3395 -0.1408 -0.0222
 1120YOPC   GL215860   8.458  14.055   6.761 -0.0019  0.3210  0.1596
 1120YOPC   C1A15861   8.214  14.561   6.696 -0.2449  0.0668  0.1278
 1120YOPC   D2A15862   8.268  14.871   6.963  0.0793  0.1707 -0.0562
 1120YOPC   C3A15863   8.639  14.926   6.891 -0.0918  0.0270  0.1998
 1120YOPC   C4A15864   8.778  15.228   6.769 -0.0531 -0.1776  0.0214
 1120YOPC   C1B15865   8.681  13.812   7.019  0.2532 -0.1589 -0.1410
 1120YOPC   C2B15866   8.631  13.509   7.261  0.1043 -0.0049 -0.1251
 1120YOPC   D3B15867   8.960  13.544   7.575  0.0290 -0.3016 -0.1947
 1120YOPC   C4B15868   9.273  13.738   7.846  0.1661  0.2423 -0.3638
 1121YOPC   NC315869  15.979  17.786   5.700 -0.1532 -0.0728 -0.0644
 1121YOPC   PO415870  16.041  17.391   5.872 -0.0634  0.0837  0.2882
 1121YOPC   GL115871  15.974  17.443   6.362 -0.1979  0.1028  0.1489
 1121YOPC   GL215872  15.864  17.103   6.544 -0.0832  0.1459 -0.2441
 1121YOPC   C1A15873  15.732  17.495   6.833  0.1211  0.0485 -0.2611
 1121YOPC   D2A15874  15.400  17.707   7.115  0.3088  0.2712 -0.2086
 1121YOPC   C3A15875  15.542  17.786   7.438 -0.3908  0.0357 -0.0026
 1121YOPC   C4A15876  15.334  17.880   7.866 -0.1686  0.0553  0.1420
 1121YOPC   C1B15877  15.916  17.067   7.015 -0.0447  0.1843  0.0778
 1121YOPC   C2B15878  15.796  17.399   7.331 -0.1851  0.1313 -0.5761
 1121YOPC   D3B15879  15.632  17.303   7.662 -0.0267 -0.0453  0.0161
 1121YOPC   C4B15880  15.775  17.678   7.909 -0.1634  0.2780  0.3561
 1122YOPC   NC315881   2.147   3.795   6.094 -0.0220 -0.1308  0.1702
 1122YOPC   PO415882   1.868   3.740   6.454 -0.0134  0.0879  0.2176
 1122YOPC   GL115883   1.849   3.635   6.908 -0.0098 -0.0550  0.2770
 1122YOPC   GL215884   1.619   3.795   7.147 -0.0822 -0.0609  0.1394
 1122YOPC   C1A15885   2.144   3.405   7.173  0.1701  0.0816  0.2606
 1122YOPC   D2A15886   2.370   3.036   7.421  0.1033 -0.1629  0.0888
 1122YOPC   C3A15887   2.576   3.145   7.628 -0.0493  0.0020 -0.4015
 1122YOPC   C4A15888   2.663   3.243   8.037 -0.3124  0.1318 -0.0697
 1122YOPC   C1B15889   1.843   3.843   7.548 -0.1115  0.0215 -0.0118
 1122YOPC   C2B15890   1.977   3.874   7.917 -0.0973 -0.2005 -0.4791
 1122YOPC   D3B15891   2.374   3.666   8.091 -0.1800 -0.1592  0.5365
 1122YOPC   C4B15892   2.769   3.744   8.137  0.1654 -0.2772  0.0776
 1123ERGO   ROH15893  16.652   3.844   6.722 -0.1714 -0.2502  0.0941
 1123ERGO    R115894  16.603   3.986   6.962 -0.0774 -0.0719  0.0110
 1123ERGO    R215895  16.442   3.885   7.163 -0.1196  0.1405  0.0885
 1123ERGO    R315896  16.661   3.932   7.318 -0.0814  0.1170  0.0406
 1123ERGO    R415897  16.434   3.956   7.502 -0.0264  0.0068  0.1189
 1123ERGO    R515898  16.591   4.103   7.470 -0.0627  0.0446  0.1292
 1123ERGO    C115899  16.635   4.040   7.843  0.0636 -0.0931  0.0917
 1123ERGO    C215900  16.854   4.006   8.168  0.0486  0.0502  0.0750
 1124ERGO   ROH15901  14.805  17.267   6.176  0.0179 -0.0240 -0.0231
 1124ERGO    R115902  14.891  17.414   6.402 -0.2327  0.0740  0.0119
 1124ERGO    R215903  14.732  17.452   6.625 -0.2577 -0.3614  0.0763
 1124ERGO    R315904  14.947  17.348   6.755  0.0135  0.0421 -0.0314
 1124ERGO    R415905  14.796  17.489   6.963 -0.2673 -0.4091  0.0834
 1124ERGO    R515906  15.007  17.516   6.915 -0.3275  0.0933  0.0488
 1124ERGO    C115907  15.034  17.414   7.282 -0.0182 -0.0579 -0.0136
 1124ERGO    C215908  15.166  17.470   7.518 -0.1804 -0.0353  0.1346
 1125ERGO   ROH15909   6.470   8.299   7.071 -0.3276 -0.0958 -0.2330
 1125ERGO    R115910   6.508   8.148   7.307 -0.2123  0.0117 -0.1818
 1125ERGO    R215911   6.694   8.217   7.499 -0.1293  0.1093 -0.2959
 1125ERGO    R315912   6.479   8.205   7.665 -0.0543  0.1698 -0.1932
 1125ERGO    R415913   6.711   8.191   7.844  0.0286 -0.1184 -0.3179
 1125ERGO    R515914   6.545   8.051   7.837 -0.0819  0.0118 -0.3218
 1125ERGO    C115915   6.519   8.166   8.200  0.1909 -0.1941 -0.2343
 1125ERGO    C215916   6.569   8.199   8.620  0.1246 -0.0504 -0.1871
 1126ERGO   ROH15917   9.527  15.707   9.621 -0.0988  0.0024  0.1245
 1126ERGO    R115918   9.667  15.691   9.376 -0.1664  0.0318  0.0833
 1126ERGO    R215919   9.784  15.457   9.287 -0.0367  0.0839  0.1090
 1126ERGO    R315920   9.635  15.505   9.064 -0.1442 -0.0746  0.1446
 1126ERGO    R415921   9.857  15.337   8.971  0.0211  0.1778  0.0862
 1126ERGO    R515922   9.797  15.530   8.889 -0.2144  0.1137  0.1064
 1126ERGO    C115923   9.760  15.312   8.578 -0.0461  0.0838  0.1061
 1126ERGO    C215924   9.840  15.157   8.214  0.3770  0.0961 -0.3926
 1127ERGO   ROH15925  14.032   2.603   6.209 -0.0195 -0.0406 -0.1318
 1127ERGO    R115926  14.104   2.622   6.482 -0.0901  0.0462 -0.1200
 1127ERGO    R215927  14.128   2.865   6.613 -0.2600  0.0762 -0.1581
 1127ERGO    R315928  13.954   2.751   6.788 -0.2286  0.0078 -0.1687
 1127ERGO    R415929  14.130   2.915   6.955 -0.2981  0.0989 -0.1601
 1127ERGO    R515930  14.086   2.703   6.981 -0.2127  0.0724 -0.1553
 1127ERGO    C115931  13.967   2.837   7.318 -0.2907  0.0479 -0.1712
 1127ERGO    C215932  14.076   3.014   7.660 -0.2414 -0.3070  0.1535
 1128ERGO   ROH15933  17.028   4.811   6.739 -0.0697  0.0810 -0.0048
 1128ERGO    R115934  17.071   4.703   6.997 -0.2958  0.0835  0.0357
 1128ERGO    R215935  17.324   4.668   7.104 -0.3554 -0.4689  0.0203
 1128ERGO    R315936  17.223   4.815   7.308  0.0068 -0.1354 -0.0291
 1128ERGO    R415937  17.434   4.654   7.431 -0.1066 -0.3018 -0.0532
 1128ERGO    R515938  17.227   4.667   7.496 -0.0398  0.0360  0.1085
 1128ERGO    C115939  17.403   4.785   7.813  0.3780  0.1085 -0.1425
 1128ERGO    C215940  17.487   4.664   8.111 -0.0636  0.5274 -0.0261
 1129ERGO   ROH15941   5.730  10.400   6.535  0.1469  0.0531  0.1058
 1129ERGO    R115942   5.606  10.338   6.782  0.2167  0.1160  0.1582
 1129ERGO    R215943   5.690  10.448   7.021  0.1967  0.2882  0.0948
 1129ERGO    R315944   5.429  10.521   7.042  0.1611  0.1615  0.0862
 1129ERGO    R415945   5.537  10.554   7.312  0.0787  0.0409  0.1245
 1129ERGO    R515946   5.361  10.439   7.256  0.1455  0.0019  0.0162
 1129ERGO    C115947   5.203  10.685   7.501 -0.0235 -0.2220  0.1337
 1129ERGO    C215948   5.071  10.931   7.787  0.1187 -0.0258 -0.1025
 1130ERGO   ROH15949  15.422   2.674   6.461  0.2229  0.1062  0.1208
 1130ERGO    R115950  15.452   2.603   6.733  0.2017  0.0752  0.1148
 1130ERGO    R215951  15.603   2.752   6.910  0.1773  0.0607  0.1446
 1130ERGO    R315952  15.373   2.754   7.055  0.1654  0.0317  0.1271
 1130ERGO    R415953  15.588   2.766   7.255  0.1506  0.2917  0.1359
 1130ERGO    R515954  15.425   2.622   7.249  0.2304  0.1921  0.2236
 1130ERGO    C115955  15.364   2.776   7.592  0.1240  0.3990  0.1144
 1130ERGO    C215956  15.541   2.938   7.842  0.1941  0.0620 -0.1248
 1131ERGO   ROH15957  17.794   9.678   6.636  0.0741 -0.0445  0.0610
 1131ERGO    R115958  17.926   9.660   6.886 -0.0248 -0.0831  0.1102
 1131ERGO    R215959  17.844   9.802   7.108 -0.0078  0.0138  0.0504
 1131ERGO    R315960  17.839   9.556   7.223 -0.2096  0.0401  0.1033
 1131ERGO    R415961  17.894   9.741   7.444  0.1968  0.0327  0.0246
 1131ERGO    R515962  18.011   9.565   7.390 -0.0549 -0.1258 -0.0389
 1131ERGO    C115963  17.920   9.475   7.749  0.1266  0.0685  0.0593
 1131ERGO    C215964  17.863   9.479   8.091  0.3228 -0.0080 -0.0494
 1132ERGO   ROH15965  16.218  11.943   6.603  0.2419 -0.0781 -0.0237
 1132ERGO    R115966  16.061  11.891   6.833  0.1410  0.0476 -0.0627
 1132ERGO    R215967  16.139  11.712   7.029 -0.0427 -0.0033 -0.0331
 1132ERGO    R315968  16.101  11.925   7.194  0.0716  0.0343 -0.0539
 1132ERGO    R415969  16.117  11.694   7.374 -0.1714  0.0284 -0.0394
 1132ERGO    R515970  15.956  11.842   7.366 -0.0520  0.1555 -0.0981
 1132ERGO    C115971  16.067  11.884   7.728 -0.1390  0.0822 -0.0627
 1132ERGO    C215972  16.148  11.832   8.017  0.1634  0.1588 -0.1806
 1133ERGO   ROH15973  15.280   0.659   6.256 -0.1138 -0.1279 -0.0188
 1133ERGO    R115974  15.271   0.489   6.483 -0.2287 -0.0371  0.0463
 1133ERGO    R215975  15.497   0.368   6.587 -0.3249 -0.2566  0.0115
 1133ERGO    R315976  15.414   0.487   6.817 -0.1137 -0.0743 -0.0036
 1133ERGO    R415977  15.595   0.274   6.905 -0.0022  0.0299  0.0022
 1133ERGO    R515978  15.391   0.307   6.973  0.0618  0.0570  0.1762
 1133ERGO    C115979  15.574   0.331   7.306  0.3841  0.3678 -0.0175
 1133ERGO    C215980  15.795   0.301   7.586  0.0062  0.1003  0.1421
 1134ERGO   ROH15981  13.668  11.193   6.847  0.0376  0.0505  0.0126
 1134ERGO    R115982  13.587  11.265   7.109  0.1389  0.2137 -0.0002
 1134ERGO    R215983  13.517  11.078   7.300 -0.3392  0.3470 -0.0344
 1134ERGO    R315984  13.706  11.205   7.447 -0.0697 -0.0952  0.0221
 1134ERGO    R415985  13.505  11.121   7.642 -0.2292  0.2041 -0.0110
 1134ERGO    R515986  13.582  11.322   7.615  0.1704  0.0722  0.0863
 1134ERGO    C115987  13.676  11.266   7.980  0.0880 -0.2943  0.0557
 1134ERGO    C215988  13.588  11.263   8.352 -0.2448 -0.2765  0.0523
 1135ERGO   ROH15989   7.775   5.090   6.829  0.3091 -0.0988  0.0231
 1135ERGO    R115990   7.817   5.102   7.109  0.1082 -0.2091  0.0598
 1135ERGO    R215991   7.747   5.322   7.260  0.3138 -0.1280  0.0380
 1135ERGO    R315992   7.609   5.138   7.406 -0.0772  0.0465 -0.0959
 1135ERGO    R415993   7.661   5.358   7.593  0.3421 -0.1577  0.0483
 1135ERGO    R515994   7.710   5.148   7.623 -0.0787 -0.2856 -0.0736
 1135ERGO    C115995   7.482   5.206   7.924 -0.0084 -0.0112 -0.0713
 1135ERGO    C215996   7.520   5.102   8.261  0.0423  0.1006 -0.2606
 1136ERGO   ROH15997   9.126  11.348   6.577 -0.1386 -0.0048  0.0419
 1136ERGO    R115998   8.984  11.431   6.808 -0.1051  0.0175  0.0541
 1136ERGO    R215999   9.065  11.365   7.064 -0.1278 -0.0475  0.0429
 1136ERGO    R316000   9.053  11.634   7.101 -0.0267 -0.0477  0.0821
 1136ERGO    R416001   9.031  11.520   7.371 -0.3242 -0.0934  0.0455
 1136ERGO    R516002   8.894  11.662   7.278 -0.1733 -0.0052 -0.0523
 1136ERGO    C116003   8.999  11.862   7.585 -0.3437 -0.1204  0.0838
 1136ERGO    C216004   8.946  11.946   7.877 -0.1213 -0.1998 -0.0867
 1137ERGO   ROH16005   6.585   7.017   6.877  0.0902 -0.1236  0.1034
 1137ERGO    R116006   6.778   7.027   7.084  0.2489 -0.1481 -0.0406
 1137ERGO    R216007   7.013   7.170   7.061  0.0551  0.1847 -0.0551
 1137ERGO    R316008   6.929   7.284   7.293  0.0896 -0.2203  0.1647
 1137ERGO    R416009   7.222   7.299   7.304  0.0799  0.0301  0.0058
 1137ERGO    R516010   7.090   7.213   7.455  0.2508 -0.3062 -0.0323
 1137ERGO    C116011   7.264   7.481   7.664  0.1268 -0.4402  0.2475
 1137ERGO    C216012   7.366   7.603   8.000 -0.0034 -0.2204  0.0050
 1138ERGO   ROH16013  11.496   4.371  10.215  0.0421 -0.0154 -0.0734
 1138ERGO    R116014  11.421   4.428   9.948  0.0986  0.0926 -0.0662
 1138ERGO    R216015  11.561   4.605   9.789  0.3287 -0.0899 -0.0709
 1138ERGO    R316016  11.572   4.394   9.618  0.0313 -0.1031 -0.0785
 1138ERGO    R416017  11.535   4.628   9.445  0.3794 -0.0365 -0.0718
 1138ERGO    R516018  11.412   4.448   9.448  0.1142  0.1369 -0.0854
 1138ERGO    C116019  11.529   4.442   9.085  0.1298 -0.0178 -0.0793
 1138ERGO    C216020  11.698   4.448   8.776  0.0278  0.2934 -0.0069
 1139ERGO   ROH16021   6.481  14.020   6.622 -0.1885 -0.0146  0.1057
 1139ERGO    R116022   6.415  13.878   6.858 -0.1605  0.0979  0.1808
 1139ERGO    R216023   6.600  13.822   7.054 -0.0611 -0.0947  0.0268
 1139ERGO    R316024   6.418  13.943   7.216  0.2191  0.1435  0.1748
 1139ERGO    R416025   6.536  13.731   7.382 -0.1201 -0.2247 -0.0194
 1139ERGO    R516026   6.323  13.764   7.343 -0.0848  0.2161  0.0683
 1139ERGO    C116027   6.327  13.792   7.724  0.1087 -0.0768  0.0926
 1139ERGO    C216028   6.127  13.825   7.993  0.0014  0.0379 -0.1313
 1140ERGO   ROH16029   9.726  16.273   6.433 -0.0968 -0.0292  0.0037
 1140ERGO    R116030   9.858  16.265   6.683 -0.1486  0.1067  0.0365
 1140ERGO    R216031   9.725  16.208   6.919 -0.1507 -0.0292  0.0058
 1140ERGO    R316032   9.916  16.017   6.944  0.0418  0.1651  0.0506
 1140ERGO    R416033   9.829  16.070   7.218 -0.1882 -0.0294  0.0182
 1140ERGO    R516034  10.034  16.075   7.144 -0.1444  0.2181  0.1463
 1140ERGO    C116035  10.069  15.810   7.415 -0.0293  0.1530  0.0676
 1140ERGO    C216036  10.251  15.670   7.648  0.2590  0.0281 -0.3340
 1141ERGO   ROH16037  10.906   8.442   6.583 -0.1848 -0.0754 -0.0364
 1141ERGO    R116038  11.025   8.376   6.831 -0.1247 -0.0636 -0.0623
 1141ERGO    R216039  10.937   8.481   7.071 -0.0695 -0.0561 -0.0465
 1141ERGO    R316040  10.920   8.219   7.142 -0.0475 -0.0537 -0.0306
 1141ERGO    R416041  10.918   8.364   7.396  0.1055 -0.0467 -0.0320
 1141ERGO    R516042  11.052   8.202   7.341  0.0642 -0.0576 -0.1039
 1141ERGO    C116043  10.892   8.051   7.652  0.2280 -0.0391 -0.0086
 1141ERGO    C216044  10.983   8.033   8.007 -0.0010  0.0058  0.0604
 1142ERGO   ROH16045   1.040  13.116   6.446 -0.0602  0.0561 -0.0998
 1142ERGO    R116046   1.186  13.266   6.637  0.0115 -0.0537 -0.0683
 1142ERGO    R216047   1.076  13.479   6.775  0.1042 -0.0503 -0.0014
 1142ERGO    R316048   1.158  13.339   6.993  0.0664 -0.1418 -0.0451
 1142ERGO    R416049   1.078  13.601   7.098  0.0848 -0.1701  0.0448
 1142ERGO    R516050   1.270  13.501   7.129  0.0714 -0.2039  0.0269
 1142ERGO    C116051   1.156  13.540   7.491  0.0380 -0.3259  0.0306
 1142ERGO    C216052   0.868  13.437   7.733  0.0152  0.2955  0.5064
 1143ERGO   ROH16053   7.090  16.626   6.101  0.2019 -0.2524  0.1197
 1143ERGO    R116054   7.068  16.630   6.383 -0.0627  0.0625  0.0988
 1143ERGO    R216055   7.288  16.646   6.549 -0.1977 -0.1260  0.2829
 1143ERGO    R316056   7.155  16.859   6.652  0.0432  0.1946 -0.0415
 1143ERGO    R416057   7.350  16.786   6.859 -0.3512 -0.0609  0.2865
 1143ERGO    R516058   7.135  16.810   6.886 -0.3704  0.3583 -0.0238
 1143ERGO    C116059   7.262  17.068   7.136 -0.2145  0.2778 -0.0160
 1143ERGO    C216060   7.316  17.108   7.461 -0.0600  0.0342  0.0451
 1144ERGO   ROH16061  12.275  15.366  10.180  0.1186  0.3311 -0.1106
 1144ERGO    R116062  12.223  15.237   9.934  0.2252  0.1215 -0.0257
 1144ERGO    R216063  12.095  15.363   9.724  0.0215 -0.1561 -0.0750
 1144ERGO    R316064  12.315  15.286   9.585  0.0926  0.0365 -0.0728
 1144ERGO    R416065  12.109  15.324   9.381  0.0695 -0.1480 -0.0746
 1144ERGO    R516066  12.230  15.146   9.411  0.2243 -0.0394 -0.0731
 1144ERGO    C116067  12.325  15.229   9.051  0.1644  0.0375 -0.0723
 1144ERGO    C216068  12.311  15.239   8.727  0.1507 -0.0833  0.0441
 1145ERGO   ROH16069   1.398   2.467   7.150 -0.0363  0.1568 -0.0208
 1145ERGO    R116070   1.561   2.297   7.307  0.0071  0.1360 -0.0869
 1145ERGO    R216071   1.836   2.300   7.293  0.0074  0.1942 -0.1038
 1145ERGO    R316072   1.818   2.339   7.562  0.0151  0.1035 -0.0903
 1145ERGO    R416073   2.062   2.181   7.526 -0.0407  0.0323 -0.1395
 1145ERGO    R516074   1.895   2.132   7.657 -0.0592  0.0436 -0.1618
 1145ERGO    C116075   2.177   2.147   7.913 -0.0615 -0.1472 -0.1476
 1145ERGO    C216076   2.446   2.280   8.184 -0.1559  0.0416 -0.0052
 1146ERGO   ROH16077  14.762   5.665  10.250  0.0750  0.1404 -0.0441
 1146ERGO    R116078  14.644   5.652   9.993  0.0578  0.0330 -0.0317
 1146ERGO    R216079  14.665   5.858   9.809 -0.0606  0.0105 -0.0738
 1146ERGO    R316080  14.759   5.659   9.648  0.0244  0.0258 -0.0425
 1146ERGO    R416081  14.642   5.855   9.464  0.0305 -0.0084 -0.0795
 1146ERGO    R516082  14.597   5.642   9.474  0.0751 -0.0168 -0.0843
 1146ERGO    C116083  14.717   5.667   9.113  0.1634 -0.0051 -0.0536
 1146ERGO    C216084  14.599   5.548   8.808 -0.0205 -0.1374 -0.3931
 1147ERGO   ROH16085  12.002   0.014   6.295  0.0874  0.4636  0.0250
 1147ERGO    R116086  11.926  -0.003   6.567  0.0235  0.2729 -0.0028
 1147ERGO    R216087  12.105   0.033   6.775 -0.0182  0.1001  0.0674
 1147ERGO    R316088  11.924   0.219   6.856 -0.0141  0.0629  0.1601
 1147ERGO    R416089  12.055   0.128   7.103  0.2214  0.1850  0.0804
 1147ERGO    R516090  11.840   0.132   7.064  0.1869  0.0991  0.2573
 1147ERGO    C116091  11.857   0.358   7.371  0.3645  0.1994  0.1751
 1147ERGO    C216092  11.705   0.306   7.679  0.2073 -0.1393 -0.0062
 1148ERGO   ROH16093   7.146  16.553  10.149 -0.1004 -0.0929  0.0038
 1148ERGO    R116094   7.119  16.610   9.874  0.0864 -0.0230 -0.0029
 1148ERGO    R216095   7.317  16.556   9.690  0.1355 -0.1690  0.0826
 1148ERGO    R316096   7.119  16.421   9.563  0.0753  0.0237 -0.0292
 1148ERGO    R416097   7.303  16.503   9.349  0.2390 -0.1150  0.0703
 1148ERGO    R516098   7.088  16.541   9.358  0.2731  0.0723 -0.0266
 1148ERGO    C116099   7.108  16.345   9.031  0.2427  0.0971 -0.0420
 1148ERGO    C216100   7.129  16.240   8.735  0.1238 -0.0780  0.1991
 1149ERGO   ROH16101   4.585   4.571   6.908 -0.1153  0.2208 -0.1867
 1149ERGO    R116102   4.627   4.681   7.165 -0.1097  0.1414 -0.1560
 1149ERGO    R216103   4.651   4.524   7.392 -0.0787  0.0746 -0.2169
 1149ERGO    R316104   4.884   4.660   7.422 -0.0907  0.0909 -0.1753
 1149ERGO    R416105   4.815   4.571   7.692  0.1451 -0.4045 -0.2525
 1149ERGO    R516106   4.860   4.775   7.631  0.0355 -0.2712  0.0565
 1149ERGO    C116107   5.129   4.726   7.896  0.2640 -0.6682 -0.2342
 1149ERGO    C216108   5.392   4.850   8.182 -0.1631 -0.2036 -0.2161
 1150ERGO   ROH16109  15.073  14.509   6.687  0.3231 -0.2419  0.0639
 1150ERGO    R116110  15.079  14.455   6.964  0.1091 -0.1465  0.0906
 1150ERGO    R216111  15.312  14.467   7.113  0.0424 -0.3180  0.2249
 1150ERGO    R316112  15.166  14.637   7.267  0.1120 -0.1151  0.0686
 1150ERGO    R416113  15.394  14.561   7.435 -0.0196 -0.1801  0.1999
 1150ERGO    R516114  15.183  14.547   7.488 -0.0452  0.0120  0.1287
 1150ERGO    C116115  15.306  14.776   7.767  0.0096  0.0907  0.0386
 1150ERGO    C216116  15.197  14.958   8.060 -0.0157  0.2356 -0.2243
 1151ERGO   ROH16117  10.361   5.108   6.386 -0.2584  0.1973 -0.2163
 1151ERGO    R116118  10.329   5.002   6.646 -0.2888  0.0015 -0.2985
 1151ERGO    R216119  10.353   5.156   6.874  0.1957 -0.2673 -0.1554
 1151ERGO    R316120  10.106   5.058   6.928  0.0208  0.1857 -0.0841
 1151ERGO    R416121  10.204   5.157   7.186  0.4206 -0.2724 -0.0453
 1151ERGO    R516122  10.128   4.957   7.145 -0.0249 -0.0833 -0.2000
 1151ERGO    C116123   9.885   5.065   7.418  0.3873  0.1500  0.0857
 1151ERGO    C216124   9.581   4.993   7.556  0.0000 -0.1176  0.3175
 1152ERGO   ROH16125  10.677  13.245   6.329  0.0242  0.1585 -0.1294
 1152ERGO    R116126  10.857  13.382   6.499  0.0585  0.0253 -0.0561
 1152ERGO    R216127  10.773  13.566   6.687  0.1160  0.0749 -0.0761
 1152ERGO    R316128  10.915  13.408   6.857 -0.0553 -0.0351 -0.0332
 1152ERGO    R416129  10.845  13.645   7.016  0.0385 -0.0047 -0.0399
 1152ERGO    R516130  11.045  13.562   6.987 -0.0043 -0.1338  0.0329
 1152ERGO    C116131  11.020  13.543   7.367 -0.1674 -0.1542  0.0216
 1152ERGO    C216132  11.025  13.658   7.738  0.2072 -0.5371 -0.3275
 1153ERGO   ROH16133   3.950  14.562   9.714 -0.1482  0.3077  0.1031
 1153ERGO    R116134   3.842  14.544   9.453  0.0252  0.1013  0.0432
 1153ERGO    R216135   3.792  14.767   9.297 -0.1868  0.0000 -0.0322
 1153ERGO    R316136   3.947  14.635   9.116  0.0976  0.1672  0.0823
 1153ERGO    R416137   3.795  14.831   8.958 -0.1285 -0.1017 -0.0518
 1153ERGO    R516138   3.807  14.615   8.922  0.2095 -0.1040  0.0213
 1153ERGO    C116139   3.942  14.745   8.590  0.1724 -0.0039  0.0443
 1153ERGO    C216140   4.023  14.818   8.222 -0.1462 -0.0908  0.0420
 1154ERGO   ROH16141   6.881  15.324   6.492 -0.3006  0.1323  0.1400
 1154ERGO    R116142   6.758  15.229   6.729 -0.2858 -0.1058  0.0540
 1154ERGO    R216143   6.690  14.963   6.764  0.1130 -0.2264 -0.0358
 1154ERGO    R316144   6.839  14.988   6.990 -0.0503 -0.0295  0.0542
 1154ERGO    R416145   6.707  14.728   7.017  0.3550 -0.2635 -0.0839
 1154ERGO    R516146   6.704  14.891   7.162  0.0059 -0.2937 -0.0442
 1154ERGO    C116147   6.857  14.615   7.376  0.3426 -0.1000 -0.0274
 1154ERGO    C216148   6.915  14.501   7.609 -0.3202 -0.1139  0.2536
 1155ERGO   ROH16149   5.794  14.334  10.021  0.0715  0.1260  0.1567
 1155ERGO    R116150   5.900  14.396   9.766  0.2776 -0.0102  0.2064
 1155ERGO    R216151   6.080  14.232   9.635 -0.0477 -0.3684  0.1911
 1155ERGO    R316152   5.897  14.247   9.434  0.0240  0.1150  0.1495
 1155ERGO    R416153   6.152  14.190   9.300 -0.0283 -0.2086  0.1750
 1155ERGO    R516154   6.015  14.354   9.255  0.2592  0.0703  0.2724
 1155ERGO    C116155   6.022  14.180   8.916  0.0503  0.3383  0.1266
 1155ERGO    C216156   5.961  13.920   8.646  0.1682  0.2683  0.2254
 1156ERGO   ROH16157   0.840  16.723  10.225  0.0952  0.0513  0.1133
 1156ERGO    R116158   0.640  16.696  10.026  0.1164 -0.1037  0.1116
 1156ERGO    R216159   0.611  16.875   9.818 -0.0788 -0.0726  0.1602
 1156ERGO    R316160   0.631  16.652   9.665  0.1550 -0.0131  0.1003
 1156ERGO    R416161   0.470  16.836   9.505  0.1297 -0.0748  0.0651
 1156ERGO    R516162   0.417  16.632   9.559  0.2310 -0.1235 -0.0305
 1156ERGO    C116163   0.406  16.603   9.179  0.4705 -0.0201 -0.0466
 1156ERGO    C216164   0.450  16.639   8.860  0.0862 -0.0251  0.3221
 1157ERGO   ROH16165  13.288   3.459   6.396  0.1415 -0.0106  0.0510
 1157ERGO    R116166  13.294   3.637   6.616  0.2149  0.1449 -0.0744
 1157ERGO    R216167  13.335   3.551   6.874 -0.2062  0.2583  0.0360
 1157ERGO    R316168  13.535   3.736   6.870  0.1245 -0.0862  0.1059
 1157ERGO    R416169  13.519   3.646   7.151 -0.4498  0.2517  0.2028
 1157ERGO    R516170  13.510   3.853   7.079  0.0100  0.1972 -0.0589
 1157ERGO    C116171  13.814   3.874   7.309 -0.2814 -0.0754  0.3655
 1157ERGO    C216172  14.012   3.737   7.566  0.0771 -0.2152  0.1470
 1158ERGO   ROH16173  16.891  15.109   6.464 -0.2153 -0.0871 -0.0992
 1158ERGO    R116174  16.711  15.071   6.679 -0.1622 -0.0082 -0.0407
 1158ERGO    R216175  16.768  14.905   6.893 -0.1391  0.0162 -0.0297
 1158ERGO    R316176  16.713  15.127   7.038 -0.0462  0.0538 -0.0504
 1158ERGO    R416177  16.701  14.908   7.231  0.1663  0.1135  0.0336
 1158ERGO    R516178  16.546  15.057   7.195  0.1058  0.0746  0.1246
 1158ERGO    C116179  16.610  15.119   7.566  0.4312  0.2056  0.0510
 1158ERGO    C216180  16.507  15.364   7.889 -0.0435  0.2170  0.2746
 1159ERGO   ROH16181  13.317   1.049   6.670  0.0758  0.2853 -0.0343
 1159ERGO    R116182  13.243   0.886   6.889  0.1875  0.0631 -0.1600
 1159ERGO    R216183  13.419   0.707   7.008  0.4045  0.3084 -0.1135
 1159ERGO    R316184  13.351   0.842   7.234  0.0066  0.0971 -0.0971
 1159ERGO    R416185  13.503   0.610   7.329  0.3016  0.2782 -0.0943
 1159ERGO    R516186  13.304   0.670   7.394  0.1441 -0.0639 -0.2213
 1159ERGO    C116187  13.488   0.679   7.728 -0.1318  0.0622 -0.0678
 1159ERGO    C216188  13.771   0.638   8.022  0.0077  0.1561 -0.0119
 1160ERGO   ROH16189   2.407  17.181   6.527  0.1416  0.1227 -0.1070
 1160ERGO    R116190   2.609  17.246   6.714  0.1001  0.0288 -0.0271
 1160ERGO    R216191   2.561  17.266   6.985 -0.0028  0.0731 -0.0444
 1160ERGO    R316192   2.765  17.087   7.002 -0.1052 -0.0361  0.0482
 1160ERGO    R416193   2.771  17.230   7.257 -0.1607 -0.0690  0.0605
 1160ERGO    R516194   2.937  17.204   7.119 -0.1038 -0.1436  0.1486
 1160ERGO    C116195   3.086  17.041   7.430 -0.3488 -0.2544  0.2086
 1160ERGO    C216196   3.361  17.040   7.692 -0.0466  0.0819 -0.2383
 1161ERGO   ROH16197   5.140  16.884   9.979 -0.1716 -0.0217  0.1770
 1161ERGO    R116198   5.102  17.017   9.732 -0.2658 -0.1078  0.1444
 1161ERGO    R216199   5.305  17.156   9.605 -0.3870  0.0856  0.1583
 1161ERGO    R316200   5.241  16.995   9.396 -0.1755 -0.0252  0.1763
 1161ERGO    R416201   5.385  17.219   9.275 -0.1734 -0.0247  0.1865
 1161ERGO    R516202   5.188  17.146   9.219 -0.1046 -0.1205  0.0739
 1161ERGO    C116203   5.371  17.105   8.886  0.1494 -0.1928  0.2198
 1161ERGO    C216204   5.245  17.073   8.566  0.0084 -0.2611 -0.1506
 1162ERGO   ROH16205   9.454  16.688   9.760 -0.0758 -0.0911  0.0564
 1162ERGO    R116206   9.398  16.725   9.485 -0.0231 -0.1047  0.0429
 1162ERGO    R216207   9.587  16.817   9.306 -0.0360  0.0568  0.1051
 1162ERGO    R316208   9.520  16.591   9.170  0.1725  0.0184  0.0656
 1162ERGO    R416209   9.616  16.776   8.964 -0.1713  0.2102  0.0748
 1162ERGO    R516210   9.425  16.670   8.965 -0.0395 -0.0295  0.1448
 1162ERGO    C116211   9.570  16.540   8.637 -0.0542  0.2635  0.0201
 1162ERGO    C216212   9.687  16.570   8.333 -0.0780  0.2702  0.0223
 1163ERGO   ROH16213  15.030   5.421   6.539 -0.1019  0.1832 -0.1214
 1163ERGO    R116214  14.851   5.240   6.664 -0.0439  0.1109 -0.1428
 1163ERGO    R216215  14.764   5.275   6.924  0.0691 -0.0336 -0.0858
 1163ERGO    R316216  14.518   5.256   6.809  0.0179  0.0250  0.0120
 1163ERGO    R416217  14.482   5.152   7.081  0.0989  0.0484  0.0335
 1163ERGO    R516218  14.428   5.051   6.895 -0.0015  0.0521  0.0588
 1163ERGO    C116219  14.087   5.063   7.066  0.0683  0.1512  0.1949
 1163ERGO    C216220  13.846   4.941   7.357  0.0881 -0.0295  0.1678
 1164ERGO   ROH16221   2.788  13.104  10.044 -0.0953  0.3189 -0.1333
 1164ERGO    R116222   2.650  12.957   9.845 -0.2204  0.3440 -0.0689
 1164ERGO    R216223   2.505  13.079   9.644 -0.0012  0.3869 -0.2184
 1164ERGO    R316224   2.662  12.926   9.483 -0.1297  0.0602 -0.0414
 1164ERGO    R416225   2.468  13.050   9.301  0.1651  0.2295 -0.2233
 1164ERGO    R516226   2.511  12.837   9.319 -0.1562  0.1815 -0.0723
 1164ERGO    C116227   2.594  12.890   8.951  0.1413 -0.1689 -0.0599
 1164ERGO    C216228   2.662  12.790   8.649 -0.2212  0.0692  0.1585
 1165ERGO   ROH16229   3.756  12.976   9.966 -0.0701 -0.1209  0.1357
 1165ERGO    R116230   3.637  13.025   9.714  0.0385  0.2524  0.1528
 1165ERGO    R216231   3.727  13.222   9.541  0.6994 -0.0803  0.1072
 1165ERGO    R316232   3.741  13.015   9.365 -0.0570 -0.1798  0.1271
 1165ERGO    R416233   3.708  13.252   9.197  0.8009 -0.0160  0.1050
 1165ERGO    R516234   3.586  13.072   9.193  0.1183  0.3948  0.1244
 1165ERGO    C116235   3.709  13.076   8.832  0.1499 -0.0719  0.1225
 1165ERGO    C216236   3.716  13.210   8.508  0.1331 -0.0588  0.0746
 1166ERGO   ROH16237  11.243  12.441   6.209  0.1906  0.0098 -0.0051
 1166ERGO    R116238  11.280  12.461   6.488  0.0346  0.0663  0.0131
 1166ERGO    R216239  11.075  12.419   6.669 -0.0050 -0.1761 -0.0811
 1166ERGO    R316240  11.249  12.240   6.776  0.1662  0.0361  0.0043
 1166ERGO    R416241  11.071  12.311   6.997 -0.1361 -0.2977 -0.1222
 1166ERGO    R516242  11.289  12.320   6.998 -0.1437  0.0186  0.0700
 1166ERGO    C116243  11.232  12.079   7.288 -0.0518 -0.1693 -0.0660
 1166ERGO    C216244  11.317  11.866   7.672  0.1734  0.3474 -0.0812
 1167ERGO   ROH16245   5.871  15.336   6.286  0.0518 -0.0609 -0.0552
 1167ERGO    R116246   5.894  15.256   6.556  0.2059  0.1017 -0.0185
 1167ERGO    R216247   5.865  15.433   6.767 -0.0134  0.1665 -0.0993
 1167ERGO    R316248   5.680  15.252   6.851  0.2513 -0.0593  0.0128
 1167ERGO    R416249   5.754  15.400   7.093 -0.0219  0.2586 -0.0929
 1167ERGO    R516250   5.758  15.184   7.067  0.3219  0.2370  0.0845
 1167ERGO    C116251   5.516  15.211   7.361  0.2216  0.1004  0.0161
 1167ERGO    C216252   5.250  15.137   7.545 -0.3601  0.1606 -0.0347
 1168ERGO   ROH16253   9.152   6.467  10.506  0.0717  0.0457  0.0038
 1168ERGO    R116254   9.041   6.505  10.248 -0.0476 -0.0212  0.0437
 1168ERGO    R216255   9.170   6.650  10.050 -0.2461  0.1312  0.0200
 1168ERGO    R316256   9.135   6.422   9.906 -0.0766  0.1155  0.0028
 1168ERGO    R416257   9.146   6.636   9.706 -0.1030  0.1202  0.0106
 1168ERGO    R516258   8.989   6.487   9.727 -0.0370  0.0433 -0.0541
 1168ERGO    C116259   9.099   6.414   9.369  0.1393  0.0990 -0.0110
 1168ERGO    C216260   8.993   6.379   9.044  0.1164  0.1615 -0.1410
 1169ERGO   ROH16261   7.237  10.577   6.424  0.1707  0.0290  0.0434
 1169ERGO    R116262   7.237  10.477   6.688  0.0810  0.0227  0.0418
 1169ERGO    R216263   7.357  10.611   6.898 -0.0001  0.0256  0.0907
 1169ERGO    R316264   7.111  10.586   7.012 -0.0412  0.0105 -0.0018
 1169ERGO    R416265   7.293  10.629   7.237 -0.1590  0.2008  0.0527
 1169ERGO    R516266   7.151  10.465   7.215 -0.0926  0.1426  0.0854
 1169ERGO    C116267   7.026  10.617   7.542 -0.2902  0.2888 -0.0563
 1169ERGO    C216268   7.001  10.649   7.859 -0.3263 -0.1941  0.1632
 1170ERGO   ROH16269  10.134  14.353   9.725 -0.2917  0.1508 -0.0205
 1170ERGO    R116270  10.088  14.421   9.454 -0.1062  0.1124 -0.0624
 1170ERGO    R216271  10.291  14.490   9.281  0.0177  0.0090  0.0492
 1170ERGO    R316272  10.185  14.292   9.128  0.0454  0.0173  0.0174
 1170ERGO    R416273  10.317  14.471   8.937  0.0174  0.0844  0.0443
 1170ERGO    R516274  10.109  14.404   8.930  0.0216  0.0492  0.0385
 1170ERGO    C116275  10.232  14.275   8.593  0.0431  0.1361  0.0117
 1170ERGO    C216276  10.440  14.238   8.278 -0.1068 -0.0800  0.1776
 1171ERGO   ROH16277  15.759   6.423   6.475 -0.0877  0.0625 -0.1134
 1171ERGO    R116278  15.858   6.467   6.737 -0.1060  0.0365 -0.1020
 1171ERGO    R216279  16.023   6.680   6.799 -0.1009  0.0247 -0.0715
 1171ERGO    R316280  15.833   6.729   6.988 -0.1143  0.0170 -0.0829
 1171ERGO    R416281  16.086   6.813   7.112 -0.1290  0.0365 -0.0707
 1171ERGO    R516282  15.940   6.674   7.195 -0.1236  0.0299 -0.0757
 1171ERGO    C116283  15.945   6.937   7.471 -0.1582  0.0362 -0.0811
 1171ERGO    C216284  16.108   7.056   7.688 -0.1576 -0.0955 -0.1267
 1172ERGO   ROH16285   6.079  16.531   9.987  0.0484 -0.2536 -0.1518
 1172ERGO    R116286   6.166  16.638   9.740  0.1858 -0.1435 -0.0562
 1172ERGO    R216287   6.243  16.480   9.527  0.0603 -0.0524 -0.1679
 1172ERGO    R316288   6.057  16.626   9.393  0.2198  0.2341 -0.0850
 1172ERGO    R416289   6.236  16.522   9.184 -0.0901 -0.1513 -0.1780
 1172ERGO    R516290   6.181  16.731   9.216  0.2943 -0.0357 -0.2012
 1172ERGO    C116291   6.057  16.684   8.858 -0.0280  0.0599 -0.1060
 1172ERGO    C216292   6.005  16.541   8.449 -0.0426 -0.1897  0.3644
 1173ERGO   ROH16293   3.714   8.517   6.694  0.0759 -0.0402  0.0091
 1173ERGO    R116294   3.691   8.377   6.939  0.1352 -0.1833 -0.0674
 1173ERGO    R216295   3.887   8.205   7.031  0.3766  0.1289  0.0064
 1173ERGO    R316296   3.875   8.362   7.253 -0.0761  0.0201  0.0703
 1173ERGO    R416297   3.990   8.109   7.347  0.1522  0.1233  0.0811
 1173ERGO    R516298   3.815   8.211   7.429 -0.0796 -0.1390 -0.0622
 1173ERGO    C116299   4.038   8.200   7.738 -0.4035  0.0179  0.1845
 1173ERGO    C216300   4.088   8.338   8.075 -0.1322 -0.0702  0.1330
 1174ERGO   ROH16301  10.300   6.609  10.463 -0.1757 -0.2592 -0.0444
 1174ERGO    R116302  10.171   6.527  10.224 -0.0779 -0.0657 -0.1655
 1174ERGO    R216303  10.073   6.707  10.040  0.0539  0.0841 -0.0910
 1174ERGO    R316304  10.228   6.566   9.866  0.1060  0.1688 -0.1139
 1174ERGO    R416305  10.038   6.713   9.696 -0.1257 -0.0753 -0.0769
 1174ERGO    R516306  10.075   6.498   9.694  0.0830 -0.0433 -0.0133
 1174ERGO    C116307  10.163   6.584   9.333 -0.1813 -0.0887 -0.0901
 1174ERGO    C216308  10.036   6.571   8.985  0.1063  0.0584 -0.1011
 1175ERGO   ROH16309   8.420  14.394   8.964 -0.1742 -0.1126  0.0327
 1175ERGO    R116310   8.552  14.341   8.720 -0.3433 -0.0452 -0.0742
 1175ERGO    R216311   8.510  14.492   8.492 -0.1166  0.3510  0.1385
 1175ERGO    R316312   8.780  14.519   8.499 -0.0511 -0.1858  0.1073
 1175ERGO    R416313   8.711  14.534   8.214 -0.1207  0.3915  0.1408
 1175ERGO    R516314   8.856  14.400   8.305 -0.3448 -0.0438 -0.1053
 1175ERGO    C116315   9.082  14.584   8.058 -0.0615 -0.0889  0.1126
 1175ERGO    C216316   9.091  14.704   7.786 -0.0748 -0.0100  0.2346
 1176ERGO   ROH16317  12.239   3.526   6.577 -0.0076  0.0667 -0.1925
 1176ERGO    R116318  12.297   3.420   6.833 -0.0175 -0.0673 -0.2447
 1176ERGO    R216319  12.293   3.574   7.063  0.3407 -0.0981 -0.2101
 1176ERGO    R316320  12.121   3.383   7.150  0.1016  0.1362 -0.1534
 1176ERGO    R416321  12.281   3.452   7.386  0.2961 -0.1078 -0.2155
 1176ERGO    R516322  12.251   3.252   7.303 -0.0209 -0.0606 -0.2168
 1176ERGO    C116323  12.113   3.201   7.655  0.0455  0.1065 -0.1654
 1176ERGO    C216324  11.859   3.273   7.925  0.0486  0.0869 -0.1859
 1177ERGO   ROH16325  17.604   1.552   6.641 -0.1803 -0.3262 -0.0681
 1177ERGO    R116326  17.531   1.429   6.885 -0.0181 -0.2172  0.0383
 1177ERGO    R216327  17.688   1.444   7.112 -0.0017  0.1287  0.0141
 1177ERGO    R316328  17.459   1.538   7.225 -0.0914 -0.0257 -0.0381
 1177ERGO    R416329  17.597   1.397   7.442 -0.1343 -0.0746 -0.0504
 1177ERGO    R516330  17.392   1.364   7.375 -0.0884 -0.1273 -0.1565
 1177ERGO    C116331  17.329   1.457   7.740 -0.2960 -0.3380 -0.1368
 1177ERGO    C216332  17.372   1.504   8.028  0.0770 -0.2372  0.1637
 1178ERGO   ROH16333  13.419   5.087  10.052  0.1742 -0.1308  0.0231
 1178ERGO    R116334  13.520   5.049   9.790  0.0854 -0.2166  0.0015
 1178ERGO    R216335  13.375   4.924   9.591 -0.1730  0.1401 -0.0380
 1178ERGO    R316336  13.427   5.153   9.454  0.2555  0.1032  0.0471
 1178ERGO    R416337  13.397   4.947   9.247 -0.2203  0.2321 -0.0359
 1178ERGO    R516338  13.566   5.082   9.272  0.0721 -0.1119 -0.0195
 1178ERGO    C116339  13.458   5.175   8.917  0.1544  0.2509  0.0452
 1178ERGO    C216340  13.375   5.124   8.531 -0.0457 -0.2526 -0.2190
 1179ERGO   ROH16341   8.397   5.866   6.931  0.1436 -0.1822 -0.1192
 1179ERGO    R116342   8.364   5.913   7.208  0.0427 -0.1560 -0.1363
 1179ERGO    R216343   8.477   5.751   7.401  0.0218 -0.0996 -0.0842
 1179ERGO    R316344   8.581   5.986   7.492 -0.0687 -0.0624 -0.0722
 1179ERGO    R416345   8.557   5.817   7.731  0.3653 -0.2402 -0.1344
 1179ERGO    R516346   8.477   6.018   7.705  0.1550 -0.2858  0.0819
 1179ERGO    C116347   8.701   6.075   8.008  0.4803 -0.2871 -0.1524
 1179ERGO    C216348   8.953   6.137   8.161 -0.3348  0.1992  0.3482
 1180ERGO   ROH16349   5.407  14.331   6.218 -0.1914 -0.3797 -0.0928
 1180ERGO    R116350   5.395  14.398   6.493 -0.2598 -0.3015 -0.1159
 1180ERGO    R216351   5.246  14.253   6.675  0.0183 -0.4922 -0.0428
 1180ERGO    R316352   5.483  14.240   6.809  0.0679 -0.0395 -0.0689
 1180ERGO    R416353   5.278  14.252   7.019  0.0322 -0.6337 -0.0431
 1180ERGO    R516354   5.451  14.383   6.998 -0.2547 -0.2173  0.0236
 1180ERGO    C116355   5.518  14.239   7.345  0.0869 -0.2911 -0.0677
 1180ERGO    C216356   5.568  14.261   7.699 -0.1352  0.1166  0.0773
 1181ERGO   ROH16357   8.804  15.096   9.991 -0.0438 -0.0094 -0.0107
 1181ERGO    R116358   8.750  15.062   9.715 -0.0710  0.1142 -0.0205
 1181ERGO    R216359   8.587  15.235   9.573  0.0775  0.2925  0.0276
 1181ERGO    R316360   8.804  15.253   9.410  0.0935  0.1543  0.0317
 1181ERGO    R416361   8.576  15.326   9.240  0.1048  0.0253 -0.0482
 1181ERGO    R516362   8.726  15.172   9.198  0.1063 -0.0159  0.0880
 1181ERGO    C116363   8.773  15.395   8.892  0.1358 -0.2600 -0.0886
 1181ERGO    C216364   8.717  15.474   8.561 -0.0090  0.2152 -0.0084
 1182ERGO   ROH16365   0.806   3.335   6.956  0.1917  0.4008  0.0709
 1182ERGO    R116366   0.684   3.186   7.164  0.0571  0.3628 -0.0339
 1182ERGO    R216367   0.829   3.076   7.372 -0.0351  0.0590 -0.1236
 1182ERGO    R316368   0.651   3.214   7.525  0.1119  0.1240 -0.0092
 1182ERGO    R416369   0.763   3.013   7.706 -0.0655 -0.1116 -0.1605
 1182ERGO    R516370   0.552   3.048   7.667 -0.0353  0.1201 -0.1169
 1182ERGO    C116371   0.559   3.107   8.044  0.0549 -0.1499 -0.0745
 1182ERGO    C216372   0.412   3.390   8.344 -0.4122  0.3393 -0.4445
 1183ERGO   ROH16373  12.732   9.176   6.612 -0.1493  0.0328  0.0637
 1183ERGO    R116374  12.827   9.166   6.878 -0.2186  0.0339  0.0880
 1183ERGO    R216375  12.891   9.393   7.022 -0.1308  0.0262  0.0549
 1183ERGO    R316376  12.717   9.288   7.203 -0.2298  0.1574  0.0396
 1183ERGO    R416377  12.890   9.465   7.360 -0.2733  0.2315  0.0136
 1183ERGO    R516378  12.850   9.255   7.400 -0.3205  0.2565  0.1219
 1183ERGO    C116379  12.728   9.408   7.727 -0.4491  0.4740 -0.0247
 1183ERGO    C216380  12.776   9.462   8.017 -0.3095 -0.1473  0.2044
 1184ERGO   ROH16381   7.034  12.583  10.282  0.4955 -0.1571  0.0536
 1184ERGO    R116382   6.931  12.647  10.027  0.1204 -0.2938  0.1647
 1184ERGO    R216383   7.075  12.789   9.839 -0.3378  0.0569  0.0582
 1184ERGO    R316384   7.018  12.575   9.681 -0.0550 -0.0248  0.0618
 1184ERGO    R416385   7.088  12.789   9.493 -0.5147  0.1235  0.0509
 1184ERGO    R516386   6.906  12.669   9.491 -0.3153 -0.1892  0.1306
 1184ERGO    C116387   7.041  12.588   9.144 -0.3522  0.0854  0.0502
 1184ERGO    C216388   6.999  12.706   8.871 -0.2434 -0.1865  0.0367
 1185ERGO   ROH16389   8.108  13.702   6.475 -0.0188  0.0415  0.0523
 1185ERGO    R116390   8.029  13.762   6.740 -0.0159  0.1116  0.0375
 1185ERGO    R216391   7.972  13.566   6.926 -0.1146  0.1610  0.0596
 1185ERGO    R316392   8.156  13.698   7.075 -0.0706  0.1034  0.0569
 1185ERGO    R416393   8.047  13.494   7.255 -0.0351  0.0508  0.0182
 1185ERGO    R516394   8.059  13.709   7.294 -0.0150  0.0376  0.0848
 1185ERGO    C116395   8.265  13.577   7.587  0.0525 -0.0675 -0.0085
 1185ERGO    C216396   8.247  13.246   7.802  0.0905 -0.1995  0.1015
 1186ERGO   ROH16397  14.754   6.655   6.680  0.3420 -0.3262 -0.0172
 1186ERGO    R116398  14.861   6.592   6.934  0.2310 -0.2648  0.0453
 1186ERGO    R216399  14.956   6.785   7.108  0.1438 -0.2228  0.0441
 1186ERGO    R316400  14.782   6.668   7.281  0.0722 -0.1918 -0.0059
 1186ERGO    R416401  14.994   6.777   7.451 -0.0383 -0.0865  0.0698
 1186ERGO    R516402  14.922   6.571   7.450  0.0021 -0.1025  0.1066
 1186ERGO    C116403  14.854   6.662   7.814 -0.2117  0.0219  0.0379
 1186ERGO    C216404  14.673   6.647   8.174 -0.1446 -0.0724  0.0400
 1187ERGO   ROH16405   5.266   2.806   6.085 -0.1687  0.0532 -0.0044
 1187ERGO    R116406   5.115   2.703   6.301 -0.1625  0.0396 -0.0063
 1187ERGO    R216407   5.050   2.854   6.523 -0.1847  0.0355 -0.0099
 1187ERGO    R316408   4.797   2.779   6.461 -0.1746  0.0066 -0.0148
 1187ERGO    R416409   4.772   2.915   6.719 -0.1809 -0.0795  0.0314
 1187ERGO    R516410   4.700   2.715   6.670 -0.1462 -0.0785 -0.0268
 1187ERGO    C116411   4.371   2.879   6.774 -0.1693 -0.1737  0.0510
 1187ERGO    C216412   4.173   3.156   6.890 -0.1603 -0.0398 -0.2332
 1188ERGO   ROH16413   7.451   8.266   6.648 -0.2149 -0.3139 -0.0429
 1188ERGO    R116414   7.569   8.283   6.905 -0.1000 -0.2382 -0.0990
 1188ERGO    R216415   7.530   8.499   7.072  0.0366 -0.1506 -0.1720
 1188ERGO    R316416   7.451   8.307   7.249  0.0508 -0.0536 -0.0606
 1188ERGO    R416417   7.593   8.506   7.412  0.4051 -0.1638 -0.2360
 1188ERGO    R516418   7.633   8.292   7.404  0.2015 -0.1988 -0.2515
 1188ERGO    C116419   7.555   8.331   7.776  0.6329 -0.0806 -0.1687
 1188ERGO    C216420   7.482   8.443   8.106 -0.2256  0.0475 -0.0665
 1189ERGO   ROH16421   3.225   5.629   6.393 -0.0457 -0.0317  0.1302
 1189ERGO    R116422   3.205   5.572   6.670 -0.0780  0.0624  0.1483
 1189ERGO    R216423   3.421   5.592   6.842 -0.0323 -0.1280  0.1189
 1189ERGO    R316424   3.252   5.753   6.981  0.1578  0.0964  0.0944
 1189ERGO    R416425   3.482   5.718   7.158  0.0648 -0.2533  0.1502
 1189ERGO    R516426   3.274   5.681   7.208 -0.0032  0.0357  0.0910
 1189ERGO    C116427   3.360   5.942   7.473  0.2998 -0.1155  0.1455
 1189ERGO    C216428   3.413   6.239   7.680 -0.2988  0.3828 -0.4015
 1190ERGO   ROH16429  14.817  16.420   6.484 -0.1334 -0.1258  0.0518
 1190ERGO    R116430  14.761  16.484   6.754 -0.1735 -0.0862  0.0341
 1190ERGO    R216431  14.509  16.558   6.840 -0.2289 -0.2585  0.0203
 1190ERGO    R316432  14.546  16.355   7.017 -0.0616 -0.1759  0.0826
 1190ERGO    R416433  14.376  16.548   7.159 -0.2264 -0.2707  0.0211
 1190ERGO    R516434  14.565  16.465   7.230 -0.1553 -0.0933  0.0501
 1190ERGO    C116435  14.333  16.352   7.511 -0.0680 -0.2001  0.0801
 1190ERGO    C216436  14.088  16.453   7.690 -0.2986  0.0905 -0.1256
 1191ERGO   ROH16437   8.344  15.978   9.771  0.1729 -0.1541  0.0107
 1191ERGO    R116438   8.278  16.151   9.557  0.0968 -0.1756  0.0145
 1191ERGO    R216439   8.422  16.380   9.500 -0.0825 -0.0292  0.1037
 1191ERGO    R316440   8.441  16.269   9.253  0.1088  0.0171  0.0972
 1191ERGO    R416441   8.456  16.557   9.205 -0.1432  0.0237  0.1293
 1191ERGO    R516442   8.318  16.417   9.111  0.0248 -0.0895  0.0677
 1191ERGO    C116443   8.494  16.555   8.801  0.0009  0.0979  0.1381
 1191ERGO    C216444   8.650  16.577   8.477 -0.2480  0.2387  0.0029
 1192ERGO   ROH16445   9.147  12.142  10.180  0.2348  0.0733  0.0449
 1192ERGO    R116446   9.113  11.986   9.947  0.0827  0.1186  0.0357
 1192ERGO    R216447   8.932  12.052   9.748  0.1434  0.3063  0.0402
 1192ERGO    R316448   9.151  12.036   9.588  0.1290  0.1046  0.0385
 1192ERGO    R416449   8.924  11.975   9.412  0.1036 -0.0084  0.1104
 1192ERGO    R516450   9.103  11.853   9.441  0.0768 -0.0237  0.2119
 1192ERGO    C116451   9.125  11.914   9.065  0.0667 -0.3809  0.1498
 1192ERGO    C216452   9.104  11.806   8.788 -0.2961  0.0936  0.0994
 1193ERGO   ROH16453   5.715   6.942   6.682 -0.1534  0.3747  0.0193
 1193ERGO    R116454   5.610   6.985   6.941 -0.0256  0.2089  0.1019
 1193ERGO    R216455   5.629   6.798   7.143  0.0660  0.0724 -0.0280
 1193ERGO    R316456   5.740   7.005   7.280  0.1427 -0.0214  0.0520
 1193ERGO    R416457   5.698   6.795   7.482  0.0226 -0.0612 -0.0200
 1193ERGO    R516458   5.628   7.002   7.492  0.1164 -0.0348  0.0359
 1193ERGO    C116459   5.842   6.987   7.808  0.0693 -0.2271  0.0598
 1193ERGO    C216460   5.958   7.031   8.059  0.3384  0.1120 -0.2184
 1194ERGO   ROH16461  13.500   1.914   6.686  0.0034 -0.1746 -0.1276
 1194ERGO    R116462  13.585   1.941   6.954  0.1720 -0.0525 -0.1917
 1194ERGO    R216463  13.407   1.955   7.166  0.3035  0.1048 -0.0927
 1194ERGO    R316464  13.555   1.748   7.262  0.3080  0.1192 -0.0677
 1194ERGO    R416465  13.453   1.884   7.501  0.0188 -0.0494 -0.0833
 1194ERGO    R516466  13.662   1.837   7.457  0.0863  0.0682  0.0831
 1194ERGO    C116467  13.619   1.649   7.786 -0.1427 -0.1256 -0.0543
 1194ERGO    C216468  13.582   1.667   8.111  0.3079 -0.0455  0.0426
 1195ERGO   ROH16469  11.289   6.829   7.967 -0.2580  0.1017 -0.0904
 1195ERGO    R116470  11.424   6.706   8.183 -0.2823 -0.0002 -0.1326
 1195ERGO    R216471  11.614   6.839   8.335 -0.0933 -0.1584 -0.2252
 1195ERGO    R316472  11.455   6.763   8.541 -0.0825  0.0144 -0.1514
 1195ERGO    R416473  11.716   6.809   8.664 -0.0614  0.0401 -0.2155
 1195ERGO    R516474  11.596   6.629   8.680 -0.0965  0.0777 -0.0781
 1195ERGO    C116475  11.625   6.720   9.049 -0.0326  0.3179 -0.1406
 1195ERGO    C216476  11.649   6.798   9.375  0.0315  0.0035  0.2734
 1196ERGO   ROH16477   1.533   5.944  10.633 -0.1027  0.0101 -0.2103
 1196ERGO    R116478   1.406   5.974  10.382 -0.0904 -0.0909 -0.2297
 1196ERGO    R216479   1.482   6.166  10.198 -0.2526  0.0123 -0.1947
 1196ERGO    R316480   1.502   5.951  10.032 -0.0026  0.0491 -0.2152
 1196ERGO    R416481   1.486   6.183   9.853 -0.1577  0.0587 -0.1911
 1196ERGO    R516482   1.359   6.006   9.847  0.0056 -0.0585 -0.2537
 1196ERGO    C116483   1.507   5.992   9.496  0.1322  0.1204 -0.2081
 1196ERGO    C216484   1.544   6.017   9.238 -0.0266 -0.3531  0.0287
 1197ERGO   ROH16485  14.211   7.571   6.388  0.0991  0.1464 -0.0029
 1197ERGO    R116486  14.186   7.616   6.667  0.1544  0.1958 -0.0060
 1197ERGO    R216487  14.112   7.416   6.843 -0.0240  0.2800  0.0147
 1197ERGO    R316488  14.342   7.489   6.970  0.0512  0.0770 -0.0015
 1197ERGO    R416489  14.164   7.397   7.185 -0.0249  0.2496  0.0134
 1197ERGO    R516490  14.268   7.588   7.175  0.1515  0.1568 -0.0023
 1197ERGO    C116491  14.410   7.453   7.502  0.0451  0.0415 -0.0026
 1197ERGO    C216492  14.451   7.449   7.791  0.3690  0.1448  0.0482
 1198ERGO   ROH16493   5.197  12.077   6.321  0.1855 -0.2177  0.1134
 1198ERGO    R116494   5.244  12.102   6.599 -0.0329 -0.1462  0.1455
 1198ERGO    R216495   5.293  12.345   6.720  0.2119 -0.1529  0.0595
 1198ERGO    R316496   5.086  12.270   6.880 -0.0492  0.2325 -0.0818
 1198ERGO    R416497   5.250  12.446   7.048  0.3872 -0.3450  0.1442
 1198ERGO    R516498   5.185  12.244   7.097 -0.1696 -0.2404 -0.0695
 1198ERGO    C116499   5.031  12.435   7.389  0.2441 -0.0949  0.0609
 1198ERGO    C216500   4.904  12.680   7.527  0.1385 -0.1887 -0.5289
 1199ERGO   ROH16501   8.083   2.775   6.589 -0.1805  0.0317  0.0551
 1199ERGO    R116502   8.241   2.688   6.807 -0.1793 -0.0165  0.0344
 1199ERGO    R216503   8.438   2.846   6.920 -0.1586 -0.0557  0.0451
 1199ERGO    R316504   8.301   2.796   7.150 -0.1489 -0.0733  0.0480
 1199ERGO    R416505   8.541   2.940   7.237 -0.1146 -0.1217  0.0512
 1199ERGO    R516506   8.471   2.747   7.311 -0.1391 -0.1267  0.0257
 1199ERGO    C116507   8.472   2.947   7.636 -0.0799 -0.1767  0.0575
 1199ERGO    C216508   8.502   2.923   7.963  0.1471 -0.1559  0.0038
 1200ERGO   ROH16509  16.288   9.327   6.794  0.0183 -0.1932 -0.1153
 1200ERGO    R116510  16.431   9.278   7.033  0.1328  0.0388 -0.1318
 1200ERGO    R216511  16.523   9.481   7.196 -0.1814  0.1987 -0.1347
 1200ERGO    R316512  16.386   9.346   7.388  0.0556 -0.0396 -0.1283
 1200ERGO    R416513  16.515   9.566   7.531 -0.3646  0.2116 -0.1421
 1200ERGO    R516514  16.528   9.354   7.580  0.0257  0.2401 -0.1212
 1200ERGO    C116515  16.382   9.489   7.906 -0.2487 -0.0046 -0.1404
 1200ERGO    C216516  16.373   9.624   8.258 -0.3593 -0.1718  0.1145
 1201ERGO   ROH16517  16.213   3.389   6.846  0.1003 -0.2388 -0.0315
 1201ERGO    R116518  16.282   3.468   7.109 -0.0088 -0.1143 -0.0397
 1201ERGO    R216519  16.107   3.602   7.275 -0.0991 -0.0931 -0.1542
 1201ERGO    R316520  16.164   3.398   7.446 -0.1033 -0.0082 -0.0498
 1201ERGO    R416521  16.037   3.604   7.613 -0.1106  0.0764 -0.1561
 1201ERGO    R516522  16.230   3.508   7.648 -0.1100  0.0947 -0.1018
 1201ERGO    C116523  16.050   3.414   7.971 -0.1210  0.2549 -0.0592
 1201ERGO    C216524  15.701   3.391   8.226  0.0757  0.0420  0.0319
 1202ERGO   ROH16525  10.590   8.743   6.768  0.1057 -0.0006  0.0548
 1202ERGO    R116526  10.729   8.878   6.975  0.0793  0.1486 -0.0225
 1202ERGO    R216527  10.811   9.141   6.953 -0.1742  0.2273 -0.0869
 1202ERGO    R316528  10.672   9.169   7.185 -0.0956  0.1172 -0.0260
 1202ERGO    R416529  10.800   9.430   7.143 -0.1426  0.1462  0.0389
 1202ERGO    R516530  10.813   9.307   7.322 -0.0661  0.0752 -0.0178
 1202ERGO    C116531  10.664   9.624   7.471 -0.0504 -0.0045  0.1695
 1202ERGO    C216532  10.712   9.870   7.636 -0.0364 -0.1988  0.1015
 1203ERGO   ROH16533   0.535   2.269   6.669 -0.2169 -0.0554 -0.0983
 1203ERGO    R116534   0.591   2.222   6.942  0.0541 -0.1309 -0.1637
 1203ERGO    R216535   0.393   2.190   7.132  0.2296  0.2647  0.1040
 1203ERGO    R316536   0.525   1.958   7.184 -0.1323  0.0137 -0.0555
 1203ERGO    R416537   0.440   2.057   7.447  0.3765  0.1868  0.0495
 1203ERGO    R516538   0.643   2.002   7.388  0.2079 -0.1963 -0.2011
 1203ERGO    C116539   0.592   1.762   7.680  0.1224 -0.0941 -0.1321
 1203ERGO    C216540   0.777   1.738   7.945 -0.3244 -0.0037 -0.1777
 1204ERGO   ROH16541   8.111  11.868  10.146  0.2041 -0.2518 -0.1485
 1204ERGO    R116542   7.966  11.853   9.903  0.0341 -0.2880 -0.0479
 1204ERGO    R216543   8.043  11.989   9.675 -0.3081 -0.0522 -0.0370
 1204ERGO    R316544   8.032  11.742   9.563 -0.0815 -0.0061 -0.1626
 1204ERGO    R416545   8.076  11.925   9.337 -0.1466  0.1227 -0.0556
 1204ERGO    R516546   7.918  11.776   9.356 -0.0343 -0.0032 -0.1815
 1204ERGO    C116547   8.085  11.655   9.035  0.1601  0.2680 -0.1842
 1204ERGO    C216548   8.182  11.750   8.775 -0.0400 -0.1396 -0.0327
 1205ERGO   ROH16549   1.469  12.284  10.200 -0.0577 -0.2137  0.0519
 1205ERGO    R116550   1.331  12.309   9.954  0.0415 -0.0024  0.0154
 1205ERGO    R216551   1.416  12.480   9.753  0.3145 -0.0731  0.0620
 1205ERGO    R316552   1.407  12.254   9.602  0.0748 -0.0434  0.0295
 1205ERGO    R416553   1.452  12.471   9.410  0.1119 -0.0443  0.0397
 1205ERGO    R516554   1.294  12.321   9.402  0.0058  0.0646  0.1052
 1205ERGO    C116555   1.465  12.254   9.068 -0.2312  0.0002 -0.0039
 1205ERGO    C216556   1.515  12.205   8.738  0.0605 -0.0255 -0.1392
 1206ERGO   ROH16557  11.695   5.413  10.174 -0.4369  0.3430  0.1609
 1206ERGO    R116558  11.635   5.575   9.950 -0.2665  0.2252  0.0280
 1206ERGO    R216559  11.828   5.719   9.815 -0.1437  0.0356  0.0107
 1206ERGO    R316560  11.729   5.587   9.599 -0.1226 -0.0519  0.0524
 1206ERGO    R416561  11.828   5.842   9.492 -0.2729 -0.0034 -0.0054
 1206ERGO    R516562  11.628   5.758   9.466 -0.2427 -0.1157  0.0504
 1206ERGO    C116563  11.735   5.789   9.101 -0.3284 -0.1082  0.0244
 1206ERGO    C216564  11.666   5.794   8.757  0.2033  0.3213 -0.1173
 1207ERGO   ROH16565  16.819   8.414   6.560  0.1255 -0.0329  0.0775
 1207ERGO    R116566  16.995   8.549   6.735  0.1203  0.0221  0.0404
 1207ERGO    R216567  16.965   8.544   7.010  0.0995  0.1254  0.0414
 1207ERGO    R316568  17.222   8.456   7.004  0.0949  0.1075  0.0905
 1207ERGO    R416569  17.165   8.499   7.288 -0.0425 -0.1665  0.1012
 1207ERGO    R516570  17.332   8.582   7.176  0.0218 -0.0717  0.2696
 1207ERGO    C116571  17.523   8.391   7.445 -0.1296 -0.3533  0.1821
 1207ERGO    C216572  17.822   8.209   7.598  0.1579  0.1173 -0.0287
 1208ERGO   ROH16573  12.613   9.618  10.480 -0.1161 -0.0580  0.1326
 1208ERGO    R116574  12.585   9.493  10.228 -0.0714 -0.1100  0.1538
 1208ERGO    R216575  12.364   9.532  10.066  0.0082 -0.0577  0.0610
 1208ERGO    R316576  12.551   9.601   9.882  0.1072 -0.1841  0.1117
 1208ERGO    R416577  12.338   9.473   9.727 -0.1387  0.3325 -0.0023
 1208ERGO    R516578  12.550   9.420   9.725 -0.2210 -0.0283 -0.0769
 1208ERGO    C116579  12.499   9.502   9.356 -0.1313  0.4410  0.0085
 1208ERGO    C216580  12.510   9.451   9.020 -0.0980 -0.1155 -0.2648
 1209ERGO   ROH16581   3.667   0.862   6.433 -0.0234 -0.2329 -0.0485
 1209ERGO    R116582   3.918   0.762   6.519  0.0653 -0.0244 -0.0547
 1209ERGO    R216583   4.144   0.921   6.535 -0.0643  0.1746 -0.0372
 1209ERGO    R316584   4.150   0.829   6.791  0.0019  0.1568 -0.0467
 1209ERGO    R416585   4.417   0.938   6.746  0.0628 -0.0723 -0.1800
 1209ERGO    R516586   4.370   0.738   6.817 -0.0648 -0.0296 -0.1673
 1209ERGO    C116587   4.582   0.861   7.109  0.1990 -0.2326 -0.2721
 1209ERGO    C216588   4.667   0.929   7.533 -0.0440  0.0264 -0.0196
 1210ERGO   ROH16589   1.649  11.388   6.555  0.2238 -0.1228  0.0235
 1210ERGO    R116590   1.522  11.425   6.806  0.1030 -0.1347 -0.0346
 1210ERGO    R216591   1.545  11.243   7.012  0.1061 -0.0843  0.0112
 1210ERGO    R316592   1.627  11.462   7.152 -0.0552 -0.0170  0.0020
 1210ERGO    R416593   1.506  11.285   7.353  0.1477 -0.1371  0.0222
 1210ERGO    R516594   1.456  11.494   7.317 -0.0476 -0.1783  0.0434
 1210ERGO    C116595   1.560  11.514   7.683  0.0204 -0.1047  0.0198
 1210ERGO    C216596   1.686  11.658   7.939  0.1488 -0.1900 -0.0469
 1211ERGO   ROH16597   4.364  14.819   6.371 -0.0577  0.2325 -0.1114
 1211ERGO    R116598   4.455  14.769   6.634 -0.1789  0.2082 -0.0732
 1211ERGO    R216599   4.331  14.873   6.857 -0.3071  0.1539 -0.1173
 1211ERGO    R316600   4.322  14.613   6.935 -0.3023  0.1403 -0.1623
 1211ERGO    R416601   4.213  14.763   7.163  0.0077  0.1265 -0.0026
 1211ERGO    R516602   4.378  14.619   7.168 -0.0317  0.0719 -0.2222
 1211ERGO    C116603   4.137  14.454   7.414  0.1955  0.0979  0.0219
 1211ERGO    C216604   4.129  14.408   7.769  0.0057  0.0804  0.3186
 1212ERGO   ROH16605   6.827  17.643  10.154  0.0758  0.1084 -0.0044
 1212ERGO    R116606   6.996  17.743   9.950  0.1409 -0.0143 -0.0120
 1212ERGO    R216607   7.097  17.582   9.749  0.0039 -0.0866 -0.0264
 1212ERGO    R316608   6.985  17.769   9.587  0.1370  0.0081 -0.0098
 1212ERGO    R416609   7.159  17.615   9.410 -0.1509 -0.2539 -0.0718
 1212ERGO    R516610   7.160  17.831   9.436  0.1267 -0.2451 -0.1284
 1212ERGO    C116611   7.089  17.810   9.062 -0.1161 -0.2625 -0.0828
 1212ERGO    C216612   7.030  17.799   8.716 -0.2312  0.1123  0.2006
 1213ERGO   ROH16613   5.423   0.799   6.648  0.0497  0.2013  0.1214
 1213ERGO    R116614   5.460   0.656   6.889  0.0600  0.1533  0.0915
 1213ERGO    R216615   5.667   0.710   7.064 -0.0317  0.2340  0.1772
 1213ERGO    R316616   5.466   0.733   7.245 -0.1086  0.0524  0.1171
 1213ERGO    R416617   5.706   0.688   7.406 -0.1441  0.0995  0.1823
 1213ERGO    R516618   5.520   0.574   7.415 -0.0912  0.0028  0.0650
 1213ERGO    C116619   5.540   0.697   7.776 -0.2817 -0.1493  0.1288
 1213ERGO    C216620   5.413   0.946   8.024 -0.1099  0.0329  0.1003
 1214ERGO   ROH16621   8.251  16.174   6.422  0.0076 -0.1116  0.0762
 1214ERGO    R116622   8.221  16.108   6.695  0.1666 -0.1117  0.0951
 1214ERGO    R216623   7.974  16.069   6.813  0.2199  0.1012  0.2910
 1214ERGO    R316624   8.082  15.831   6.887  0.0659 -0.0064  0.1745
 1214ERGO    R416625   8.029  15.969   7.139  0.3363 -0.0175  0.2357
 1214ERGO    R516626   8.219  15.883   7.076  0.2257 -0.1636  0.1034
 1214ERGO    C116627   8.163  15.687   7.398  0.2596 -0.1874  0.0941
 1214ERGO    C216628   8.113  15.660   7.692  0.0524  0.0374  0.4354
 1215ERGO   ROH16629   2.892   0.291  10.294 -0.1087 -0.0822 -0.0010
 1215ERGO    R116630   2.730   0.255  10.065 -0.1135 -0.0239 -0.0079
 1215ERGO    R216631   2.690   0.455   9.878 -0.0202 -0.0120 -0.0229
 1215ERGO    R316632   2.776   0.265   9.704 -0.0882 -0.0592 -0.0040
 1215ERGO    R416633   2.685   0.485   9.534  0.2740  0.0706 -0.0223
 1215ERGO    R516634   2.622   0.277   9.522  0.0658  0.1431 -0.1190
 1215ERGO    C116635   2.762   0.325   9.170  0.3815  0.0744 -0.0042
 1215ERGO    C216636   2.755   0.469   8.858 -0.3127  0.1179 -0.1293
 1216ERGO   ROH16637   5.604  10.243   8.230 -0.0954  0.1845 -0.2277
 1216ERGO    R116638   5.829  10.409   8.272 -0.0705  0.1466 -0.2121
 1216ERGO    R216639   5.979  10.512   8.064 -0.0155  0.0892 -0.2007
 1216ERGO    R316640   5.927  10.749   8.186  0.0099  0.1163 -0.2418
 1216ERGO    R416641   6.190  10.786   8.064  0.0209  0.0615 -0.2349
 1216ERGO    R516642   6.139  10.820   8.272  0.0150  0.1022 -0.2428
 1216ERGO    C116643   6.265  11.167   8.178  0.0658  0.0707 -0.2933
 1216ERGO    C216644   6.308  11.511   7.974  0.3188  0.2868 -0.1054
 1217ERGO   ROH16645   0.062   6.413   6.572 -0.3349 -0.0393  0.1134
 1217ERGO    R116646  -0.017   6.362   6.839 -0.2871 -0.0516  0.1258
 1217ERGO    R216647  -0.034   6.106   6.943 -0.1610 -0.0523  0.1518
 1217ERGO    R316648   0.131   6.207   7.134 -0.1881  0.0415  0.1254
 1217ERGO    R416649  -0.029   6.005   7.273 -0.0532 -0.0459  0.1519
 1217ERGO    R516650  -0.004   6.213   7.332 -0.1606 -0.0318  0.1456
 1217ERGO    C116651   0.128   6.040   7.645 -0.0160  0.0459  0.1274
 1217ERGO    C216652   0.192   6.096   7.950 -0.0510  0.1053 -0.2869
 1218ERGO   ROH16653   2.950   7.095   6.765 -0.0493 -0.1312  0.1310
 1218ERGO    R116654   3.110   7.228   6.957  0.1949 -0.2747  0.0301
 1218ERGO    R216655   3.024   7.275   7.215  0.2977  0.0271  0.0093
 1218ERGO    R316656   3.256   7.148   7.281  0.1015 -0.3173  0.0631
 1218ERGO    R416657   3.122   7.196   7.537  0.1922  0.0653  0.0521
 1218ERGO    R516658   3.326   7.253   7.484  0.2910 -0.2991 -0.0057
 1218ERGO    C116659   3.396   7.030   7.786 -0.0534 -0.2358  0.1275
 1218ERGO    C216660   3.309   6.920   8.133 -0.3516 -0.0294  0.1272
 1219ERGO   ROH16661   3.711   5.903  10.873 -0.0666  0.0261  0.0259
 1219ERGO    R116662   3.782   5.986  10.611  0.1264  0.0107  0.0724
 1219ERGO    R216663   3.980   5.861  10.464  0.0036 -0.2159  0.0965
 1219ERGO    R316664   3.782   5.839  10.278  0.0262  0.1094  0.0282
 1219ERGO    R416665   4.029   5.859  10.122  0.1289 -0.3847  0.1138
 1219ERGO    R516666   3.852   5.984  10.101  0.3627 -0.0551  0.0193
 1219ERGO    C116667   3.873   5.838   9.749  0.2231 -0.1776  0.0599
 1219ERGO    C216668   3.795   5.909   9.425 -0.2116  0.1502 -0.0744
 1220ERGO   ROH16669   0.268  11.709   6.565  0.0654  0.0480 -0.1653
 1220ERGO    R116670   0.206  11.633   6.831  0.2118 -0.0532 -0.1584
 1220ERGO    R216671   0.380  11.675   7.042  0.1601  0.2521 -0.1711
 1220ERGO    R316672   0.166  11.802   7.151 -0.0561 -0.1091 -0.1606
 1220ERGO    R416673   0.316  11.699   7.380  0.2749  0.3511 -0.1563
 1220ERGO    R516674   0.105  11.666   7.338  0.3132 -0.1139 -0.0360
 1220ERGO    C116675   0.078  11.832   7.680  0.1389  0.0696 -0.1378
 1220ERGO    C216676   0.139  11.948   7.894 -0.0708  0.1717  0.1185
 1221ERGO   ROH16677  14.563  12.194   6.508  0.3056  0.4166 -0.0236
 1221ERGO    R116678  14.521  12.100   6.771  0.1266  0.3151 -0.0856
 1221ERGO    R216679  14.696  12.154   6.978  0.0561  0.1291  0.0300
 1221ERGO    R316680  14.472  12.248   7.100  0.0430  0.1902 -0.0423
 1221ERGO    R416681  14.691  12.315   7.284 -0.0166  0.0472  0.0716
 1221ERGO    R516682  14.509  12.205   7.333 -0.0818  0.1128 -0.0393
 1221ERGO    C116683  14.477  12.497   7.577 -0.0713  0.0570  0.0280
 1221ERGO    C216684  14.370  12.659   7.728 -0.0768  0.1707  0.0132
 1222ERGO   ROH16685   2.092   1.867   6.572  0.2197  0.1375 -0.1097
 1222ERGO    R116686   1.986   1.645   6.712  0.1087  0.2223 -0.0588
 1222ERGO    R216687   2.124   1.407   6.741  0.0312  0.1957  0.0815
 1222ERGO    R316688   2.076   1.450   7.005 -0.0487  0.3102  0.0502
 1222ERGO    R416689   2.065   1.158   6.973 -0.2011  0.3032  0.1418
 1222ERGO    R516690   1.912   1.285   7.063 -0.1663  0.4209  0.0410
 1222ERGO    C116691   1.986   1.053   7.356 -0.4113  0.4732  0.1476
 1222ERGO    C216692   2.015   0.661   7.541 -0.1913  0.0084  0.2223
 1223ERGO   ROH16693   8.900   1.257   6.569  0.0337 -0.2606  0.0582
 1223ERGO    R116694   9.041   1.280   6.813  0.0937 -0.1721  0.0163
 1223ERGO    R216695   9.128   1.522   6.913  0.0116 -0.1212 -0.0329
 1223ERGO    R316696   8.989   1.446   7.133  0.1087 -0.1636  0.0142
 1223ERGO    R416697   9.102   1.707   7.203  0.0738 -0.1410 -0.0147
 1223ERGO    R516698   9.123   1.522   7.317  0.1575 -0.1416 -0.0304
 1223ERGO    C116699   8.956   1.743   7.580  0.2013 -0.1924  0.0401
 1223ERGO    C216700   8.781   1.931   7.873  0.2337 -0.2397 -0.0743
 1224ERGO   ROH16701   1.637  14.769   9.939  0.2177 -0.0180 -0.1734
 1224ERGO    R116702   1.728  14.877   9.693  0.1821  0.0786 -0.1431
 1224ERGO    R216703   1.764  14.723   9.466  0.0526  0.1906 -0.2344
 1224ERGO    R316704   1.599  14.908   9.354  0.0926  0.3128 -0.0902
 1224ERGO    R416705   1.714  14.763   9.127  0.0496  0.4521 -0.2058
 1224ERGO    R516706   1.715  14.979   9.157  0.1024  0.4310 -0.0445
 1224ERGO    C116707   1.530  14.961   8.824  0.0854  0.7191 -0.0538
 1224ERGO    C216708   1.383  14.986   8.437 -0.2003 -0.1775 -0.1539
 1225ERGO   ROH16709   3.832   8.935   6.515 -0.0709  0.2234 -0.0140
 1225ERGO    R116710   3.823   8.970   6.796  0.0895  0.0947  0.0081
 1225ERGO    R216711   3.637   8.842   6.956  0.0106  0.2285  0.0190
 1225ERGO    R316712   3.858   8.758   7.090 -0.0264 -0.0942 -0.1106
 1225ERGO    R416713   3.644   8.758   7.291  0.1165  0.4179  0.0660
 1225ERGO    R516714   3.837   8.858   7.307  0.3229  0.0825 -0.1485
 1225ERGO    C116715   3.856   8.631   7.612  0.1433  0.2252 -0.0282
 1225ERGO    C216716   3.695   8.510   7.870  0.2982  0.1451  0.1718
 1226ERGO   ROH16717   0.208   5.078   6.552 -0.0965  0.1889  0.0590
 1226ERGO    R116718   0.336   5.045   6.802 -0.0573  0.0883  0.0265
 1226ERGO    R216719   0.371   5.254   6.980 -0.1165 -0.0018  0.1476
 1226ERGO    R316720   0.246   5.085   7.153 -0.0362 -0.1523  0.0606
 1226ERGO    R416721   0.432   5.238   7.320 -0.3145  0.0520  0.1870
 1226ERGO    R516722   0.417   5.021   7.308 -0.0605  0.0342  0.1663
 1226ERGO    C116723   0.350   5.070   7.680 -0.3544 -0.0579  0.1281
 1226ERGO    C216724   0.493   5.197   7.931  0.1557 -0.0792  0.0414
 1227ERGO   ROH16725  12.315   1.544   6.578  0.1945 -0.0990 -0.0439
 1227ERGO    R116726  12.452   1.571   6.825  0.1250  0.0512 -0.0198
 1227ERGO    R216727  12.387   1.765   7.010 -0.0623  0.0402 -0.0661
 1227ERGO    R316728  12.365   1.552   7.178  0.0641  0.0511 -0.0357
 1227ERGO    R416729  12.530   1.745   7.325  0.0308  0.1211 -0.1028
 1227ERGO    R516730  12.579   1.537   7.284  0.0955  0.1390 -0.0923
 1227ERGO    C116731  12.591   1.533   7.665  0.2036  0.1785 -0.0957
 1227ERGO    C216732  12.731   1.670   8.055  0.0374  0.3453 -0.2221
 1228ERGO   ROH16733  16.642  10.759  10.507  0.0596  0.4017  0.0021
 1228ERGO    R116734  16.504  10.771  10.261  0.0288  0.2984  0.0139
 1228ERGO    R216735  16.574  10.946  10.059  0.0926  0.1159 -0.1231
 1228ERGO    R316736  16.584  10.719   9.909 -0.0524  0.0020  0.0364
 1228ERGO    R416737  16.619  10.938   9.716  0.3002 -0.1568 -0.0937
 1228ERGO    R516738  16.470  10.778   9.706  0.1343 -0.0102 -0.0751
 1228ERGO    C116739  16.653  10.721   9.376  0.2849 -0.4227  0.0731
 1228ERGO    C216740  16.656  10.736   9.045 -0.1162  0.1915 -0.1489
 1229ERGO   ROH16741   7.433   5.426   6.722  0.1662  0.1098 -0.3096
 1229ERGO    R116742   7.493   5.592   6.943  0.2067 -0.0595 -0.1907
 1229ERGO    R216743   7.298   5.731   7.082  0.2768  0.1925 -0.3349
 1229ERGO    R316744   7.405   5.603   7.296 -0.1276 -0.0575 -0.2706
 1229ERGO    R416745   7.273   5.837   7.410  0.3394  0.2577 -0.3513
 1229ERGO    R516746   7.480   5.778   7.440  0.1994 -0.2186 -0.2363
 1229ERGO    C116747   7.360   5.778   7.802 -0.0038  0.0611 -0.3005
 1229ERGO    C216748   7.286   5.764   8.120 -0.0748  0.1830 -0.0363
 1230ERGO   ROH16749   7.604  14.773   6.432 -0.2758  0.0444  0.0187
 1230ERGO    R116750   7.782  14.736   6.650 -0.1538  0.0493 -0.0774
 1230ERGO    R216751   7.733  14.841   6.901  0.0429  0.1557 -0.0766
 1230ERGO    R316752   7.766  14.583   6.980 -0.0130  0.1679 -0.0168
 1230ERGO    R416753   7.758  14.737   7.229 -0.1887  0.1917 -0.0470
 1230ERGO    R516754   7.913  14.597   7.168 -0.1490  0.1868  0.0841
 1230ERGO    C116755   7.803  14.434   7.495 -0.3760  0.2241  0.0265
 1230ERGO    C216756   7.805  14.102   7.672 -0.0547  0.1085 -0.0999
 1231ERGO   ROH16757   4.879  13.429   9.919 -0.1752 -0.0401  0.0702
 1231ERGO    R116758   4.718  13.401   9.688 -0.1077 -0.1041  0.0310
 1231ERGO    R216759   4.760  13.549   9.459 -0.2459  0.0738  0.1185
 1231ERGO    R316760   4.769  13.304   9.341  0.0620  0.1442 -0.0157
 1231ERGO    R416761   4.666  13.484   9.133 -0.2943  0.1060  0.1254
 1231ERGO    R516762   4.574  13.298   9.202  0.0066 -0.0691  0.0690
 1231ERGO    C116763   4.620  13.216   8.832 -0.0334  0.1907  0.0033
 1231ERGO    C216764   4.694  13.079   8.461 -0.1278  0.0014 -0.1222
 1232ERGO   ROH16765   6.473  17.826   6.414  0.0183  0.2592  0.0997
 1232ERGO    R116766   6.493  17.840   6.695 -0.0085  0.1537  0.1067
 1232ERGO    R216767   6.272  17.834   6.861 -0.0204  0.0513  0.0845
 1232ERGO    R316768   6.405  17.628   6.978  0.0045  0.0296  0.0192
 1232ERGO    R416769   6.282  17.772   7.201 -0.1344 -0.1326  0.0557
 1232ERGO    R516770   6.492  17.720   7.181 -0.1055 -0.0504  0.1067
 1232ERGO    C116771   6.411  17.542   7.508 -0.1774 -0.2600 -0.0225
 1232ERGO    C216772   6.428  17.547   7.869  0.1006 -0.1820 -0.0991
 1233ERGO   ROH16773  15.008   5.308  10.499 -0.1538  0.0863 -0.1040
 1233ERGO    R116774  15.078   5.281  10.226 -0.1204 -0.0021 -0.0863
 1233ERGO    R216775  14.940   5.116  10.052 -0.2437  0.1217 -0.1002
 1233ERGO    R316776  14.918   5.344   9.905  0.0109  0.1313 -0.1286
 1233ERGO    R416777  14.946   5.130   9.707 -0.4322  0.0334 -0.1090
 1233ERGO    R516778  15.067   5.310   9.721 -0.1437 -0.1385 -0.2160
 1233ERGO    C116779  14.929   5.352   9.368 -0.3028 -0.0090 -0.1409
 1233ERGO    C216780  14.962   5.204   9.114 -0.0627 -0.2286 -0.0405
 1234ERGO   ROH16781   9.828  15.127   6.347  0.2208 -0.0324 -0.0641
 1234ERGO    R116782   9.992  15.007   6.544  0.2841  0.0560 -0.0630
 1234ERGO    R216783  10.268  15.023   6.538  0.2734  0.2380 -0.0399
 1234ERGO    R316784  10.235  15.120   6.790  0.1914  0.1918 -0.0317
 1234ERGO    R416785  10.524  15.137   6.739  0.1593  0.6497 -0.1190
 1234ERGO    R516786  10.427  15.040   6.909  0.3599  0.4942 -0.0871
 1234ERGO    C116787  10.643  15.296   7.093  0.0159  0.8461 -0.1574
 1234ERGO    C216788  10.572  15.579   7.265  0.1100 -0.2357 -0.2834
 1235ERGO   ROH16789  13.181   6.009   6.648 -0.0217  0.2353  0.1081
 1235ERGO    R116790  13.119   5.966   6.921 -0.1739 -0.0456  0.0319
 1235ERGO    R216791  13.031   5.723   7.017  0.2768 -0.2985 -0.1832
 1235ERGO    R316792  13.240   5.752   7.189  0.0677  0.0744  0.0243
 1235ERGO    R416793  13.022   5.647   7.354  0.1325 -0.5466 -0.2387
 1235ERGO    R516794  13.139   5.827   7.392 -0.3047 -0.2839 -0.0093
 1235ERGO    C116795  13.212   5.631   7.712 -0.1477 -0.3410 -0.0763
 1235ERGO    C216796  13.389   5.626   8.025  0.2864 -0.1424  0.1261
 1236ERGO   ROH16797  11.747  11.244   6.599 -0.0571  0.1637 -0.0041
 1236ERGO    R116798  11.770  11.091   6.836 -0.0301  0.0195 -0.0990
 1236ERGO    R216799  11.830  11.203   7.080  0.1312 -0.1461 -0.0600
 1236ERGO    R316800  11.603  11.077   7.159  0.1015 -0.0777 -0.0347
 1236ERGO    R416801  11.740  11.147   7.409  0.1014 -0.0392 -0.0494
 1236ERGO    R516802  11.669  10.949   7.351  0.0637 -0.0393  0.0026
 1236ERGO    C116803  11.473  10.996   7.674  0.0560  0.0872 -0.0195
 1236ERGO    C216804  11.540  10.958   8.040 -0.0661 -0.1951 -0.0004
 1237ERGO   ROH16805   3.559  12.051   6.448 -0.1147 -0.0073 -0.0331
 1237ERGO    R116806   3.590  12.201   6.687 -0.0945  0.0327 -0.0607
 1237ERGO    R216807   3.422  12.169   6.904 -0.0731  0.0650 -0.0388
 1237ERGO    R316808   3.656  12.129   7.037 -0.0588  0.0913 -0.0556
 1237ERGO    R416809   3.461  12.193   7.247 -0.0467  0.0752 -0.0424
 1237ERGO    R516810   3.653  12.291   7.213 -0.0603  0.0935 -0.0587
 1237ERGO    C116811   3.703  12.169   7.571 -0.0179  0.1060 -0.0602
 1237ERGO    C216812   3.655  12.112   7.871  0.2328  0.2161  0.1197
 1238ERGO   ROH16813   9.495   0.307   6.560 -0.0289  0.0594  0.0244
 1238ERGO    R116814   9.515   0.130   6.780  0.1288  0.1614  0.0937
 1238ERGO    R216815   9.655   0.193   7.010 -0.0534  0.4420  0.1319
 1238ERGO    R316816   9.420   0.134   7.132 -0.0255  0.1514  0.0534
 1238ERGO    R416817   9.620   0.124   7.346 -0.0889  0.4778  0.1358
 1238ERGO    R516818   9.478  -0.033   7.294  0.1411  0.2669  0.1170
 1238ERGO    C116819   9.378   0.029   7.657 -0.0834  0.2258  0.0643
 1238ERGO    C216820   9.434   0.216   7.896 -0.2376  0.0109 -0.0040
 1239ERGO   ROH16821  10.574   3.737   6.872  0.0428  0.1369  0.1253
 1239ERGO    R116822  10.464   3.857   7.103  0.0767 -0.1260  0.2844
 1239ERGO    R216823  10.555   3.802   7.358  0.5091  0.0069  0.1733
 1239ERGO    R316824  10.583   4.072   7.371 -0.0179  0.0690  0.1694
 1239ERGO    R416825  10.588   3.985   7.650  0.4045  0.0576  0.1525
 1239ERGO    R516826  10.457   4.136   7.565  0.0248 -0.1931  0.2808
 1239ERGO    C116827  10.632   4.344   7.832 -0.1512  0.1454  0.1366
 1239ERGO    C216828  10.611   4.642   7.911  0.1458  0.1411  0.0952
 1240ERGO   ROH16829  15.889  13.390  10.304 -0.2139 -0.3294  0.1475
 1240ERGO    R116830  15.858  13.266  10.052 -0.1882 -0.2496  0.1033
 1240ERGO    R216831  15.629  13.294   9.900 -0.1777 -0.2002  0.0839
 1240ERGO    R316832  15.804  13.374   9.708 -0.1524 -0.1356  0.1356
 1240ERGO    R416833  15.593  13.234   9.561 -0.0204 -0.2452  0.0754
 1240ERGO    R516834  15.807  13.194   9.551 -0.0053 -0.1410  0.1526
 1240ERGO    C116835  15.738  13.274   9.184  0.0948 -0.2106  0.1190
 1240ERGO    C216836  15.754  13.258   8.850  0.3187  0.1343 -0.1536
 1241ERGO   ROH16837   0.438  16.536   6.419 -0.1179  0.1324 -0.0910
 1241ERGO    R116838   0.429  16.536   6.702 -0.0827  0.0884 -0.0893
 1241ERGO    R216839   0.192  16.549   6.844 -0.0700  0.0103 -0.0563
 1241ERGO    R316840   0.289  16.324   6.963  0.0004  0.0154 -0.1046
 1241ERGO    R416841   0.200  16.494   7.185  0.2446  0.0704 -0.0508
 1241ERGO    R516842   0.397  16.404   7.161  0.2043  0.0298 -0.2209
 1241ERGO    C116843   0.295  16.251   7.495  0.4939  0.1101 -0.0930
 1241ERGO    C216844   0.465  16.185   7.767 -0.0494 -0.1847  0.3355
 1242ERGO   ROH16845   9.779   2.726   6.842  0.0841  0.0624 -0.0730
 1242ERGO    R116846   9.617   2.668   7.067  0.0675  0.0093 -0.0989
 1242ERGO    R216847   9.649   2.441   7.220  0.1295  0.0312 -0.0852
 1242ERGO    R316848   9.667   2.620   7.424  0.0224  0.0446 -0.0865
 1242ERGO    R416849   9.575   2.372   7.551  0.0255  0.0231 -0.1094
 1242ERGO    R516850   9.481   2.568   7.565 -0.0211  0.0090 -0.1507
 1242ERGO    C116851   9.549   2.500   7.935 -0.1356  0.0310 -0.1247
 1242ERGO    C216852   9.471   2.514   8.268 -0.0955  0.1529 -0.3072
 1243ERGO   ROH16853  17.761  15.428   6.691  0.1577 -0.0161 -0.1939
 1243ERGO    R116854  17.683  15.266   6.910  0.0149 -0.0394 -0.2608
 1243ERGO    R216855  17.821  15.262   7.149  0.0565 -0.3143 -0.2859
 1243ERGO    R316856  17.577  15.319   7.254  0.1373 -0.0903 -0.2148
 1243ERGO    R416857  17.710  15.160   7.460  0.0190 -0.2920 -0.2919
 1243ERGO    R516858  17.515  15.121   7.372 -0.0432 -0.0628 -0.2606
 1243ERGO    C116859  17.417  15.154   7.739  0.0729 -0.0688 -0.2287
 1243ERGO    C216860  17.232  15.238   8.028  0.3346  0.2344 -0.0390
 1244ERGO   ROH16861   1.733  10.349   6.830 -0.2640  0.2547 -0.0530
 1244ERGO    R116862   1.776  10.467   7.084 -0.2952  0.1130  0.0196
 1244ERGO    R216863   1.739  10.328   7.321 -0.1445 -0.0791 -0.0624
 1244ERGO    R316864   1.994  10.407   7.369 -0.1898  0.0731 -0.0699
 1244ERGO    R416865   1.887  10.342   7.633 -0.0805 -0.1757 -0.0888
 1244ERGO    R516866   1.982  10.528   7.575 -0.2283 -0.0701  0.0111
 1244ERGO    C116867   2.213  10.424   7.860 -0.0859 -0.0891 -0.1112
 1244ERGO    C216868   2.462  10.364   8.015 -0.0574  0.1921 -0.1507
 1245ERGO   ROH16869  16.178  14.040   6.513  0.2369  0.1612 -0.0126
 1245ERGO    R116870  16.243  14.137   6.771  0.2028 -0.0054  0.0582
 1245ERGO    R216871  16.149  14.019   7.003  0.1381 -0.1260 -0.0376
 1245ERGO    R316872  16.413  14.009   7.067  0.1231 -0.2089  0.0204
 1245ERGO    R416873  16.274  14.026   7.325  0.0744  0.2863 -0.0145
 1245ERGO    R516874  16.434  14.157   7.255  0.1826  0.0768 -0.1958
 1245ERGO    C116875  16.595  14.020   7.573  0.0235  0.4486  0.0535
 1245ERGO    C216876  16.667  13.789   7.840 -0.0729 -0.0300  0.0424
 1246ERGO   ROH16877   9.636   3.698   6.674 -0.1050  0.1163 -0.0430
 1246ERGO    R116878   9.722   3.638   6.937 -0.1607 -0.0376 -0.0589
 1246ERGO    R216879   9.683   3.810   7.150  0.0936 -0.0099 -0.0301
 1246ERGO    R316880   9.565   3.592   7.262 -0.1949  0.1313 -0.0511
 1246ERGO    R416881   9.609   3.777   7.486  0.1645  0.0071 -0.0130
 1246ERGO    R516882   9.673   3.569   7.475 -0.1505 -0.0913 -0.0960
 1246ERGO    C116883   9.455   3.554   7.787 -0.0651  0.1495 -0.0228
 1246ERGO    C216884   9.323   3.591   7.902 -0.1658  0.1259  0.1211
 1247ERGO   ROH16885   6.021  15.466   9.629 -0.1543 -0.2059  0.1169
 1247ERGO    R116886   6.149  15.382   9.392 -0.1436 -0.1880  0.1184
 1247ERGO    R216887   6.009  15.320   9.161 -0.1211 -0.0724  0.0859
 1247ERGO    R316888   6.178  15.502   9.050 -0.0328 -0.1103  0.1509
 1247ERGO    R416889   6.027  15.392   8.824  0.0746 -0.1594  0.0749
 1247ERGO    R516890   6.244  15.403   8.842  0.0788 -0.1769  0.2061
 1247ERGO    C116891   6.195  15.605   8.522  0.2714 -0.2458  0.1294
 1247ERGO    C216892   6.319  15.805   8.189 -0.3480 -0.2293  0.0046
 1248ERGO   ROH16893   2.699  14.201  10.111  0.1496 -0.0737  0.0686
 1248ERGO    R116894   2.673  14.035   9.883 -0.0037 -0.0649  0.0775
 1248ERGO    R216895   2.451  14.041   9.719 -0.0033  0.1292  0.0747
 1248ERGO    R316896   2.636  14.082   9.524  0.0382 -0.0485  0.0766
 1248ERGO    R416897   2.388  14.022   9.380 -0.0505  0.3380  0.0712
 1248ERGO    R516898   2.580  13.922   9.355 -0.1871  0.0891  0.0214
 1248ERGO    C116899   2.526  14.049   8.999 -0.0390  0.2929  0.0708
 1248ERGO    C216900   2.211  14.140   8.618 -0.1102  0.1751 -0.1378
 1249ERGO   ROH16901  17.156   3.799   6.760  0.1156  0.1876 -0.0952
 1249ERGO    R116902  17.083   3.768   7.032 -0.0196  0.2833 -0.1213
 1249ERGO    R216903  17.208   3.589   7.201 -0.2813  0.1558 -0.0679
 1249ERGO    R316904  17.244   3.810   7.355 -0.0957  0.1227 -0.0595
 1249ERGO    R416905  17.220   3.589   7.546 -0.3838  0.1319 -0.0631
 1249ERGO    R516906  17.104   3.773   7.546 -0.1972  0.2616 -0.0990
 1249ERGO    C116907  17.261   3.795   7.892 -0.2687  0.0869 -0.0525
 1249ERGO    C216908  17.480   3.879   8.137 -0.0793  0.3922  0.1170
 1250ERGO   ROH16909   1.615  16.940   6.824  0.1981  0.0231 -0.1075
 1250ERGO    R116910   1.739  16.825   7.051  0.0893 -0.1659 -0.1416
 1250ERGO    R216911   1.748  16.952   7.296  0.3375 -0.1798 -0.1418
 1250ERGO    R316912   1.637  16.719   7.384  0.0169 -0.0234 -0.1175
 1250ERGO    R416913   1.812  16.804   7.602  0.2159 -0.2872 -0.1669
 1250ERGO    R516914   1.813  16.610   7.503 -0.1023 -0.2904 -0.1764
 1250ERGO    C116915   1.746  16.499   7.862 -0.1559 -0.2027 -0.1588
 1250ERGO    C216916   1.534  16.293   8.026  0.1761 -0.1193  0.2371
 1251ERGO   ROH16917   3.339   9.993   6.534  0.1092 -0.0329 -0.1431
 1251ERGO    R116918   3.301   9.872   6.787  0.0188 -0.0246 -0.1528
 1251ERGO    R216919   3.504   9.740   6.920 -0.0372 -0.0362 -0.0873
 1251ERGO    R316920   3.439   9.911   7.122 -0.0866 -0.0311 -0.1069
 1251ERGO    R416921   3.644   9.735   7.236 -0.0382  0.0224 -0.0856
 1251ERGO    R516922   3.446   9.775   7.319 -0.0564 -0.0176 -0.0934
 1251ERGO    C116923   3.664   9.892   7.609 -0.0851  0.0613 -0.1029
 1251ERGO    C216924   3.779   9.944   7.985  0.1462  0.1205 -0.1462
 1252ERGO   ROH16925  15.177   9.267   6.752 -0.1862  0.1859  0.2450
 1252ERGO    R116926  15.290   9.088   6.940 -0.2165 -0.0604  0.0338
 1252ERGO    R216927  15.360   9.165   7.196  0.2409 -0.2559 -0.0223
 1252ERGO    R316928  15.200   8.957   7.268  0.0024 -0.0347  0.1052
 1252ERGO    R416929  15.331   9.040   7.517  0.1485 -0.0754  0.0411
 1252ERGO    R516930  15.327   8.839   7.433 -0.1083 -0.1124  0.1345
 1252ERGO    C116931  15.164   8.772   7.771 -0.1290  0.2373  0.1977
 1252ERGO    C216932  15.222   8.744   8.104 -0.0952 -0.2634  0.1344
 1253ERGO   ROH16933   2.450   5.306   6.938 -0.0027 -0.1736 -0.0704
 1253ERGO    R116934   2.500   5.429   7.187  0.0649 -0.2147 -0.0638
 1253ERGO    R216935   2.302   5.473   7.374  0.0494  0.0604 -0.1439
 1253ERGO    R316936   2.471   5.338   7.538 -0.1858 -0.1457 -0.0639
 1253ERGO    R416937   2.339   5.534   7.712  0.2834  0.3351 -0.2156
 1253ERGO    R516938   2.554   5.505   7.688  0.2266 -0.1573 -0.2618
 1253ERGO    C116939   2.520   5.443   8.063  0.1989  0.3017 -0.1821
 1253ERGO    C216940   2.565   5.523   8.327  0.0144 -0.2353 -0.3069
 1254ERGO   ROH16941  13.200   2.830  10.340  0.0232 -0.0662  0.0532
 1254ERGO    R116942  13.239   2.711  10.086 -0.1346 -0.0011 -0.0031
 1254ERGO    R216943  13.105   2.796   9.861 -0.0970  0.2207  0.0507
 1254ERGO    R316944  13.356   2.819   9.758 -0.0896  0.0250  0.0228
 1254ERGO    R416945  13.177   2.848   9.527 -0.0934  0.3468  0.0710
 1254ERGO    R516946  13.344   2.708   9.546 -0.2354  0.1658 -0.0412
 1254ERGO    C116947  13.455   2.900   9.236 -0.0842  0.2365  0.0565
 1254ERGO    C216948  13.447   2.899   8.828 -0.2842 -0.1294  0.0452
 1255ERGO   ROH16949   5.188   3.790   6.439 -0.0523  0.2126 -0.0167
 1255ERGO    R116950   5.158   3.668   6.693 -0.1016 -0.0007 -0.1221
 1255ERGO    R216951   5.225   3.795   6.928  0.0584 -0.2734 -0.0097
 1255ERGO    R316952   4.970   3.733   6.997  0.0171 -0.1206 -0.0234
 1255ERGO    R416953   5.109   3.768   7.253  0.0226 -0.2301 -0.0195
 1255ERGO    R516954   4.993   3.594   7.191 -0.0811 -0.1495 -0.0364
 1255ERGO    C116955   4.801   3.693   7.506 -0.0370 -0.0614 -0.0380
 1255ERGO    C216956   4.603   3.668   7.735  0.0248 -0.2120 -0.0340
 1256ERGO   ROH16957   8.438   6.751   6.707 -0.2069  0.0222 -0.0336
 1256ERGO    R116958   8.429   6.885   6.956 -0.1234  0.1387 -0.0916
 1256ERGO    R216959   8.196   6.990   7.061 -0.1441 -0.0456  0.0588
 1256ERGO    R316960   8.262   6.838   7.276  0.2014  0.1241  0.0805
 1256ERGO    R416961   8.130   7.073   7.390 -0.2570 -0.1105  0.0524
 1256ERGO    R516962   8.326   6.996   7.444 -0.0856  0.2923  0.0371
 1256ERGO    C116963   8.153   6.978   7.783  0.0015  0.0111  0.0691
 1256ERGO    C216964   8.159   6.783   8.081  0.1026 -0.2843 -0.2379
 1257ERGO   ROH16965  11.466   6.461  10.318 -0.2627  0.1158  0.0428
 1257ERGO    R116966  11.327   6.465  10.071 -0.1871  0.0549 -0.0024
 1257ERGO    R216967  11.242   6.700   9.953 -0.2314  0.0235 -0.0456
 1257ERGO    R316968  11.382   6.606   9.740 -0.1275  0.0562  0.0094
 1257ERGO    R416969  11.142   6.727   9.623 -0.1732 -0.1308 -0.0758
 1257ERGO    R516970  11.214   6.524   9.590 -0.0385 -0.0899 -0.0065
 1257ERGO    C116971  11.216   6.655   9.231 -0.0418 -0.1900 -0.0419
 1257ERGO    C216972  11.129   6.657   8.900  0.0265 -0.0980  0.0659
 1258ERGO   ROH16973   2.517   3.904   6.448  0.3144 -0.0749 -0.0195
 1258ERGO    R116974   2.508   3.986   6.719  0.0468 -0.1322 -0.0076
 1258ERGO    R216975   2.281   3.963   6.874 -0.0587 -0.3306 -0.1831
 1258ERGO    R316976   2.448   3.829   7.041 -0.0842 -0.2402 -0.0844
 1258ERGO    R416977   2.208   3.880   7.201 -0.0208  0.0355 -0.0773
 1258ERGO    R516978   2.413   3.931   7.255  0.0146 -0.0063 -0.1779
 1258ERGO    C116979   2.322   3.705   7.549 -0.0227  0.3335  0.0769
 1258ERGO    C216980   2.111   3.481   7.661  0.1023 -0.1557  0.0715
 1259ERGO   ROH16981   4.267   6.630   6.644  0.2165 -0.0771 -0.0170
 1259ERGO    R116982   4.333   6.641   6.919  0.0377 -0.0528  0.0260
 1259ERGO    R216983   4.164   6.751   7.108 -0.0858 -0.0344 -0.0932
 1259ERGO    R316984   4.196   6.510   7.230 -0.1660 -0.0242 -0.0505
 1259ERGO    R416985   4.094   6.687   7.441 -0.2841 -0.0033 -0.1274
 1259ERGO    R516986   4.274   6.564   7.449 -0.2940 -0.0082 -0.0088
 1259ERGO    C116987   4.083   6.423   7.748 -0.4748  0.0245 -0.1071
 1259ERGO    C216988   3.829   6.362   7.897  0.1570  0.1249  0.0931
 1260ERGO   ROH16989  17.282   2.603   6.873  0.0824  0.0991  0.0095
 1260ERGO    R116990  17.197   2.414   7.066  0.0596  0.1057  0.0061
 1260ERGO    R216991  17.306   2.161   7.084 -0.1068  0.0219 -0.1264
 1260ERGO    R316992  17.348   2.233   7.343  0.0924 -0.0769 -0.1295
 1260ERGO    R416993  17.394   1.944   7.339 -0.1705 -0.1183 -0.2227
 1260ERGO    R516994  17.259   2.052   7.471 -0.0054 -0.0268 -0.1271
 1260ERGO    C116995  17.485   1.886   7.729 -0.0204 -0.2927 -0.2817
 1260ERGO    C216996  17.643   1.963   8.077  0.1518 -0.1250 -0.3547
 1261ERGO   ROH16997   7.196  10.930  10.255 -0.0572 -0.0188 -0.0265
 1261ERGO    R116998   7.129  10.796  10.015 -0.1504 -0.0342  0.0064
 1261ERGO    R216999   6.962  10.906   9.824 -0.2004 -0.0302  0.0439
 1261ERGO    R317000   7.172  10.855   9.659 -0.2546 -0.0705 -0.0107
 1261ERGO    R417001   6.936  10.827   9.489 -0.2866  0.0842  0.0238
 1261ERGO    R517002   7.094  10.680   9.515 -0.3497  0.0111 -0.0518
 1261ERGO    C117003   7.117  10.733   9.138 -0.3875  0.1128 -0.0390
 1261ERGO    C217004   7.078  10.772   8.774  0.4307  0.1103  0.1108
 1262ERGO   ROH17005   5.446  14.347   9.748  0.2597  0.0912 -0.1298
 1262ERGO    R117006   5.254  14.256   9.560  0.2905 -0.1598 -0.0443
 1262ERGO    R217007   5.071  14.425   9.440 -0.0625 -0.4110  0.1165
 1262ERGO    R317008   5.175  14.322   9.211 -0.0230 -0.1705  0.0233
 1262ERGO    R417009   4.913  14.429   9.133 -0.0392 -0.1635  0.1060
 1262ERGO    R517010   4.986  14.226   9.098  0.0116 -0.1119 -0.0803
 1262ERGO    C117011   4.918  14.334   8.739  0.0114  0.2063  0.0125
 1262ERGO    C217012   4.769  14.324   8.367  0.3603 -0.1180 -0.0449
 1263ERGO   ROH17013   9.277  10.301   6.533  0.1321 -0.0641  0.0420
 1263ERGO    R117014   9.324  10.340   6.809  0.1729  0.0058  0.0244
 1263ERGO    R217015   9.563  10.274   6.930  0.1966  0.0630 -0.0025
 1263ERGO    R317016   9.556  10.533   7.013  0.1830  0.0808 -0.0549
 1263ERGO    R417017   9.642  10.382   7.249  0.1683  0.1211 -0.0139
 1263ERGO    R517018   9.475  10.521   7.238  0.1617  0.1182 -0.0562
 1263ERGO    C117019   9.681  10.687   7.513  0.1389  0.1718 -0.0697
 1263ERGO    C217020   9.759  10.766   7.807 -0.3541 -0.0151 -0.0998
 1264ERGO   ROH17021   3.056  14.764   9.956  0.0135  0.0819 -0.0620
 1264ERGO    R117022   2.883  14.874   9.761  0.0141  0.0712 -0.0693
 1264ERGO    R217023   2.952  15.092   9.607  0.0284  0.0438 -0.1064
 1264ERGO    R317024   2.889  14.926   9.401  0.0023  0.0176 -0.0767
 1264ERGO    R417025   2.870  15.196   9.288 -0.1237  0.0034 -0.0808
 1264ERGO    R517026   2.716  15.041   9.282 -0.0767 -0.0426 -0.0174
 1264ERGO    C117027   2.764  15.100   8.908 -0.2367 -0.0446 -0.0380
 1264ERGO    C217028   2.573  15.052   8.703  0.0122 -0.1376 -0.0613
 1265ERGO   ROH17029  12.692   4.389   6.494 -0.1404 -0.0096  0.1607
 1265ERGO    R117030  12.824   4.329   6.737 -0.1435 -0.1909  0.1196
 1265ERGO    R217031  12.870   4.519   6.932  0.2444 -0.2299  0.0779
 1265ERGO    R317032  12.742   4.339   7.091  0.0034 -0.0018  0.1488
 1265ERGO    R417033  12.939   4.467   7.267  0.2840 -0.3057  0.0578
 1265ERGO    R517034  12.914   4.253   7.234 -0.0841 -0.2718  0.0933
 1265ERGO    C117035  12.860   4.268   7.611  0.0810 -0.1355  0.1125
 1265ERGO    C217036  12.837   4.194   7.910  0.2721 -0.3390  0.2248
 1266ERGO   ROH17037   5.910  11.784  10.229 -0.1344  0.0502 -0.1875
 1266ERGO    R117038   6.009  11.645  10.004 -0.0777 -0.0443 -0.1067
 1266ERGO    R217039   5.844  11.534   9.812 -0.0311 -0.0313 -0.1642
 1266ERGO    R317040   5.995  11.683   9.642  0.1076 -0.1250 -0.1221
 1266ERGO    R417041   5.874  11.477   9.473 -0.0775  0.0397 -0.1789
 1266ERGO    R517042   6.086  11.524   9.488 -0.0383 -0.1617 -0.1652
 1266ERGO    C117043   6.033  11.584   9.115  0.0256 -0.0069 -0.1481
 1266ERGO    C217044   6.015  11.544   8.673  0.2793 -0.1992 -0.1677
 1267ERGO   ROH17045  13.342  11.446   6.679  0.0447 -0.0264  0.0172
 1267ERGO    R117046  13.224  11.544   6.917  0.0341 -0.0348  0.0152
 1267ERGO    R217047  13.174  11.382   7.136  0.1003 -0.0231  0.0352
 1267ERGO    R317048  13.319  11.572   7.267  0.0514  0.0350  0.0063
 1267ERGO    R417049  13.175  11.430   7.478 -0.2842  0.3280 -0.0055
 1267ERGO    R517050  13.176  11.645   7.443 -0.1270  0.2993 -0.2339
 1267ERGO    C117051  13.311  11.636   7.800 -0.5541  0.5869 -0.0565
 1267ERGO    C217052  13.354  11.613   8.057 -0.1179 -0.0448 -0.2803
 1268ERGO   ROH17053  14.262  13.752   6.932 -0.0159  0.0327 -0.0680
 1268ERGO    R117054  14.214  13.948   7.131 -0.1673 -0.0734  0.0022
 1268ERGO    R217055  14.165  13.883   7.395  0.0719 -0.2017  0.0188
 1268ERGO    R317056  14.372  14.053   7.442 -0.1263  0.0702 -0.0665
 1268ERGO    R417057  14.239  14.025   7.701  0.0595 -0.1639  0.0046
 1268ERGO    R517058  14.284  14.211   7.599 -0.2505 -0.0779  0.0154
 1268ERGO    C117059  14.476  14.266   7.924 -0.1339  0.1135 -0.0838
 1268ERGO    C217060  14.469  14.251   8.205  0.0850 -0.0550  0.3157
 1269ERGO   ROH17061   7.511  15.327  10.038  0.2393  0.0312  0.1166
 1269ERGO    R117062   7.429  15.380   9.773  0.1975 -0.1651  0.0894
 1269ERGO    R217063   7.511  15.603   9.633 -0.1001 -0.0867  0.0346
 1269ERGO    R317064   7.590  15.419   9.449  0.1862 -0.0340  0.0989
 1269ERGO    R417065   7.573  15.671   9.299 -0.1566 -0.0967  0.0216
 1269ERGO    R517066   7.476  15.483   9.248  0.1156 -0.2562  0.0654
 1269ERGO    C117067   7.683  15.537   8.933  0.0792 -0.0532  0.0744
 1269ERGO    C217068   7.744  15.742   8.497 -0.0413  0.0870  0.0049
 1270ERGO   ROH17069  14.491   6.495  10.149  0.0548 -0.0217  0.2484
 1270ERGO    R117070  14.614   6.493   9.894  0.0871  0.1581  0.2620
 1270ERGO    R217071  14.562   6.299   9.705  0.4320  0.0457  0.2767
 1270ERGO    R317072  14.505   6.513   9.548  0.0875 -0.0614  0.2478
 1270ERGO    R417073  14.604   6.309   9.362  0.3956  0.0602  0.2724
 1270ERGO    R517074  14.678   6.513   9.382  0.0812  0.1830  0.2375
 1270ERGO    C117075  14.575   6.516   9.015  0.0509 -0.0320  0.2428
 1270ERGO    C217076  14.551   6.491   8.646  0.1693 -0.0281 -0.0988
 1271ERGO   ROH17077  13.657  12.395   6.432 -0.0114 -0.2049  0.0701
 1271ERGO    R117078  13.512  12.434   6.672 -0.0307 -0.0296  0.0325
 1271ERGO    R217079  13.617  12.373   6.921 -0.1618 -0.1458  0.0643
 1271ERGO    R317080  13.550  12.631   6.976  0.1234 -0.0632  0.0346
 1271ERGO    R417081  13.563  12.501   7.238 -0.1461 -0.0758  0.0384
 1271ERGO    R517082  13.396  12.616   7.158  0.0257  0.1250 -0.0327
 1271ERGO    C117083  13.469  12.818   7.473  0.1309  0.0425 -0.0046
 1271ERGO    C217084  13.478  13.216   7.643 -0.1049  0.1503 -0.1618
 1272ERGO   ROH17085   4.418  15.854   9.882 -0.2134  0.0023 -0.0577
 1272ERGO    R117086   4.267  15.883   9.645 -0.1722  0.1409 -0.0696
 1272ERGO    R217087   4.295  16.100   9.475  0.0270  0.1288 -0.0639
 1272ERGO    R317088   4.337  15.907   9.288 -0.1194  0.0950 -0.0609
 1272ERGO    R417089   4.281  16.150   9.134  0.0309  0.1184 -0.0645
 1272ERGO    R517090   4.180  15.957   9.115 -0.0972  0.1894 -0.0484
 1272ERGO    C117091   4.311  15.998   8.759 -0.1042  0.0804 -0.0620
 1272ERGO    C217092   4.460  16.079   8.467 -0.0611  0.2163 -0.0156
 1273ERGO   ROH17093  15.544  16.682   7.024 -0.0105 -0.0291 -0.1479
 1273ERGO    R117094  15.577  16.463   7.200 -0.0571 -0.1194 -0.2535
 1273ERGO    R217095  15.538  16.483   7.472  0.1625 -0.1839 -0.2225
 1273ERGO    R317096  15.368  16.275   7.431 -0.0373 -0.0380 -0.1655
 1273ERGO    R417097  15.401  16.287   7.722  0.0108 -0.0073 -0.1627
 1273ERGO    R517098  15.432  16.113   7.595 -0.1628 -0.0669 -0.1372
 1273ERGO    C117099  15.162  15.978   7.828 -0.2652  0.2324 -0.0744
 1273ERGO    C217100  15.145  15.902   8.073  0.3226 -0.2063  0.1692
 1274ERGO   ROH17101   3.808   0.073  10.100  0.1072  0.0209 -0.0142
 1274ERGO    R117102   3.706  -0.042   9.863  0.0146  0.1583 -0.0425
 1274ERGO    R217103   3.546   0.097   9.687  0.1546  0.3402 -0.0286
 1274ERGO    R317104   3.733   0.019   9.506  0.0960  0.1990 -0.0294
 1274ERGO    R417105   3.512   0.123   9.344  0.0968  0.1884 -0.0350
 1274ERGO    R517106   3.606  -0.073   9.325  0.0340  0.1514  0.0382
 1274ERGO    C117107   3.667   0.064   8.974  0.0082 -0.0325 -0.0395
 1274ERGO    C217108   3.581   0.112   8.575 -0.1072  0.1207 -0.1849
 1275ERGO   ROH17109   6.205   4.022   6.797  0.2673  0.1805  0.1173
 1275ERGO    R117110   6.231   4.108   7.065 -0.0140  0.2752  0.1150
 1275ERGO    R217111   6.021   4.219   7.207 -0.3437 -0.2591  0.0557
 1275ERGO    R317112   6.080   4.023   7.385  0.1332 -0.0954  0.0935
 1275ERGO    R417113   5.969   4.241   7.547 -0.5343 -0.3550  0.0355
 1275ERGO    R517114   6.160   4.141   7.578 -0.2507  0.1610  0.1143
 1275ERGO    C117115   5.994   4.069   7.914 -0.1977 -0.2571  0.0592
 1275ERGO    C217116   5.881   4.005   8.256  0.3491 -0.1150  0.0097
 1276ERGO   ROH17117   8.315  17.169   9.891 -0.0042 -0.1230 -0.0199
 1276ERGO    R117118   8.169  17.319   9.701 -0.0334  0.0053  0.1030
 1276ERGO    R217119   8.288  17.439   9.482 -0.0894  0.0267  0.0860
 1276ERGO    R317120   8.101  17.299   9.344 -0.2197  0.1563  0.1282
 1276ERGO    R417121   8.202  17.496   9.153 -0.1237  0.0882  0.1052
 1276ERGO    R517122   7.994  17.463   9.206 -0.1372  0.2335  0.1531
 1276ERGO    C117123   7.976  17.399   8.831 -0.2660  0.2459  0.1561
 1276ERGO    C217124   7.941  17.629   8.475 -0.1992  0.0597  0.1905
 1277ERGO   ROH17125   8.365  13.408   9.906  0.0716 -0.2171  0.0105
 1277ERGO    R117126   8.451  13.278   9.670  0.1720 -0.1099 -0.0144
 1277ERGO    R217127   8.304  13.282   9.436  0.0944 -0.2977  0.0233
 1277ERGO    R317128   8.536  13.376   9.330 -0.0516  0.0038 -0.0380
 1277ERGO    R417129   8.409  13.227   9.111  0.2648 -0.4973  0.1103
 1277ERGO    R517130   8.611  13.199   9.187  0.3053 -0.0345  0.1901
 1277ERGO    C117131   8.687  13.284   8.823  0.2269 -0.3306  0.1034
 1277ERGO    C217132   8.714  13.300   8.602  0.4329 -0.3101 -0.0315
 1278ERGO   ROH17133   8.370   9.638  10.314  0.0364 -0.2794  0.1328
 1278ERGO    R117134   8.493   9.658  10.060  0.0547 -0.1641  0.1500
 1278ERGO    R217135   8.465   9.464   9.865  0.0347 -0.0568  0.0442
 1278ERGO    R317136   8.383   9.674   9.713  0.0777  0.0379  0.1506
 1278ERGO    R417137   8.487   9.478   9.521 -0.1564  0.0245  0.0346
 1278ERGO    R517138   8.546   9.687   9.538 -0.0145 -0.0167  0.0597
 1278ERGO    C117139   8.422   9.684   9.177 -0.2273  0.1607  0.1289
 1278ERGO    C217140   8.442   9.530   8.918  0.0658  0.0075  0.0265
 1279ERGO   ROH17141   2.815   8.255   6.948 -0.0278  0.0947  0.0663
 1279ERGO    R117142   2.700   8.235   7.206 -0.0566  0.2304  0.0654
 1279ERGO    R217143   2.794   8.060   7.398 -0.3672 -0.0099  0.0138
 1279ERGO    R317144   2.810   8.285   7.549  0.0593 -0.0737  0.0743
 1279ERGO    R417145   2.823   8.065   7.742 -0.3207 -0.1458  0.0117
 1279ERGO    R517146   2.685   8.233   7.746 -0.0145  0.1060  0.0716
 1279ERGO    C117147   2.855   8.279   8.085  0.1066 -0.2849  0.0673
 1279ERGO    C217148   3.127   7.951   8.214 -0.0163 -0.3399 -0.0540
 1280ERGO   ROH17149  11.201  14.210   9.991 -0.1544 -0.3570  0.1231
 1280ERGO    R117150  11.133  14.216   9.716 -0.1273 -0.0383  0.1201
 1280ERGO    R217151  11.139  14.447   9.567  0.0537  0.1041  0.3491
 1280ERGO    R317152  11.300  14.300   9.404 -0.0406  0.1471  0.2135
 1280ERGO    R417153  11.141  14.466   9.221 -0.2261  0.1349  0.3463
 1280ERGO    R517154  11.163  14.249   9.215 -0.1860  0.1338  0.3157
 1280ERGO    C117155  11.294  14.339   8.868 -0.4775  0.1932  0.2172
 1280ERGO    C217156  11.328  14.246   8.452 -0.1787 -0.0367 -0.1942
 1281ERGO   ROH17157   9.401   8.187  10.474  0.2873  0.3444 -0.0276
 1281ERGO    R117158   9.305   8.252  10.215  0.2232  0.2012 -0.0415
 1281ERGO    R217159   9.453   8.401  10.035  0.1394  0.1860 -0.1266
 1281ERGO    R317160   9.408   8.188   9.872  0.1979  0.0995 -0.0298
 1281ERGO    R417161   9.431   8.416   9.690  0.0740  0.0289 -0.1296
 1281ERGO    R517162   9.266   8.274   9.699  0.1348 -0.0330 -0.0426
 1281ERGO    C117163   9.375   8.225   9.337  0.0909 -0.1438 -0.0405
 1281ERGO    C217164   9.368   8.175   9.016  0.0387 -0.1085 -0.0122
 1282ERGO   ROH17165  16.923  11.109   7.774  0.2268 -0.0762 -0.0381
 1282ERGO    R117166  17.004  11.178   8.036  0.1052 -0.0216 -0.0141
 1282ERGO    R217167  16.848  11.331   8.206  0.0175 -0.0022 -0.1113
 1282ERGO    R317168  16.883  11.121   8.375 -0.0408  0.0308 -0.0570
 1282ERGO    R417169  16.851  11.353   8.550  0.1103  0.0952 -0.1174
 1282ERGO    R517170  17.015  11.210   8.554  0.0432  0.0200 -0.1145
 1282ERGO    C117171  16.885  11.170   8.910  0.1098  0.1830 -0.0701
 1282ERGO    C217172  16.876  11.216   9.263  0.0962 -0.0488  0.0460
 1283ERGO   ROH17173  15.556  15.901   6.355 -0.1377 -0.0890 -0.0665
 1283ERGO    R117174  15.567  15.870   6.636 -0.1657 -0.0220 -0.0583
 1283ERGO    R217175  15.805  15.841   6.773 -0.1887 -0.1369 -0.0460
 1283ERGO    R317176  15.711  16.052   6.916 -0.0585 -0.0391 -0.1012
 1283ERGO    R417177  15.879  15.903   7.105 -0.0923 -0.0560 -0.0815
 1283ERGO    R517178  15.671  15.962   7.135 -0.0596  0.0559 -0.0609
 1283ERGO    C117179  15.834  16.137   7.433  0.0859  0.0831 -0.1541
 1283ERGO    C217180  15.905  16.171   7.844 -0.3075 -0.1591  0.1500
 1284ERGO   ROH17181  11.436  13.822   7.037 -0.2973 -0.0231 -0.4399
 1284ERGO    R117182  11.210  13.983   7.095 -0.2861 -0.1036 -0.1577
 1284ERGO    R217183  11.079  13.973   7.339  0.0718 -0.0864  0.0447
 1284ERGO    R317184  11.124  14.241   7.337 -0.0421 -0.0674 -0.1083
 1284ERGO    R417185  10.954  14.196   7.571 -0.1548  0.0191 -0.1740
 1284ERGO    R517186  10.917  14.337   7.409 -0.1237 -0.1051 -0.2896
 1284ERGO    C117187  10.924  14.577   7.705 -0.3937  0.0984 -0.4450
 1284ERGO    C217188  10.802  14.644   8.072 -0.0988  0.1186 -0.1638
 1285ERGO   ROH17189  15.538   4.261   6.940 -0.0319  0.0789 -0.2237
 1285ERGO    R117190  15.560   4.525   7.041 -0.0814  0.0669 -0.1820
 1285ERGO    R217191  15.348   4.702   7.043 -0.1911 -0.0624  0.0954
 1285ERGO    R317192  15.406   4.719   7.308  0.0902 -0.0947  0.0384
 1285ERGO    R417193  15.261   4.965   7.251 -0.1001 -0.1544  0.2528
 1285ERGO    R517194  15.455   4.950   7.345  0.0134 -0.0778  0.0373
 1285ERGO    C117195  15.265   5.133   7.620  0.2170 -0.2383  0.2908
 1285ERGO    C217196  15.100   5.306   8.032  0.0154  0.3158 -0.4409
 1286ERGO   ROH17197   6.785  14.977   9.884 -0.0959 -0.1673  0.2543
 1286ERGO    R117198   6.652  14.953   9.635 -0.0386 -0.0741  0.2143
 1286ERGO    R217199   6.588  15.171   9.480 -0.0231 -0.0143  0.2926
 1286ERGO    R317200   6.724  15.034   9.288  0.0310  0.0793  0.2634
 1286ERGO    R417201   6.503  15.165   9.145 -0.1108 -0.0952  0.3160
 1286ERGO    R517202   6.552  14.952   9.142  0.0519 -0.0596  0.3141
 1286ERGO    C117203   6.580  15.033   8.770 -0.1111 -0.0544  0.3022
 1286ERGO    C217204   6.403  15.171   8.448 -0.0095 -0.0353 -0.2003
 1287ERGO   ROH17205   8.361  10.478   6.766  0.2936  0.3135  0.0317
 1287ERGO    R117206   8.491  10.511   7.015  0.1197  0.2102  0.1379
 1287ERGO    R217207   8.363  10.612   7.238 -0.0993 -0.0990  0.1533
 1287ERGO    R317208   8.452  10.382   7.353  0.0354 -0.1229  0.0065
 1287ERGO    R417209   8.453  10.580   7.570 -0.0504 -0.2439  0.1275
 1287ERGO    R517210   8.621  10.455   7.508  0.0141 -0.1199  0.0333
 1287ERGO    C117211   8.589  10.346   7.872  0.1046 -0.3507 -0.0253
 1287ERGO    C217212   8.498  10.456   8.134 -0.0985  0.1478  0.3886
 1288ERGO   ROH17213   9.871   6.371   6.857  0.1799 -0.1992 -0.1318
 1288ERGO    R117214   9.915   6.231   7.099  0.2178 -0.1631 -0.1174
 1288ERGO    R217215  10.154   6.105   7.157  0.3252  0.0797 -0.0159
 1288ERGO    R317216  10.141   6.257   7.383  0.0682  0.0630 -0.0163
 1288ERGO    R417217  10.343   6.052   7.441  0.0968  0.1418  0.1511
 1288ERGO    R517218  10.167   6.099   7.562 -0.0270  0.0663 -0.0006
 1288ERGO    C117219  10.442   6.163   7.819 -0.2775  0.1622  0.2480
 1288ERGO    C217220  10.610   6.198   8.093 -0.1529  0.0579 -0.0212
 1289ERGO   ROH17221  15.553  10.090   6.793 -0.1799 -0.0041 -0.0332
 1289ERGO    R117222  15.696  10.146   7.031 -0.0590 -0.1258 -0.0760
 1289ERGO    R217223  15.585  10.286   7.242  0.1558  0.0599 -0.0831
 1289ERGO    R317224  15.662  10.068   7.385 -0.0818 -0.0054 -0.0510
 1289ERGO    R417225  15.716  10.294   7.562  0.1271 -0.0386 -0.0686
 1289ERGO    R517226  15.857  10.139   7.504 -0.0213 -0.1896 -0.0358
 1289ERGO    C117227  15.864  10.093   7.882 -0.1126 -0.1571 -0.0299
 1289ERGO    C217228  16.045   9.909   8.029  0.1850  0.0567 -0.3912
 1290ERGO   ROH17229   2.972   2.864   6.853  0.0312  0.0798 -0.0790
 1290ERGO    R117230   2.940   2.895   7.133  0.0262  0.0064 -0.0701
 1290ERGO    R217231   2.746   2.761   7.276 -0.0072 -0.0021 -0.1118
 1290ERGO    R317232   2.958   2.680   7.426 -0.0234 -0.0827 -0.1341
 1290ERGO    R417233   2.725   2.641   7.600 -0.0074  0.0160 -0.1060
 1290ERGO    R517234   2.905   2.754   7.648  0.0389 -0.0585 -0.1323
 1290ERGO    C117235   2.913   2.496   7.929 -0.0226 -0.0491 -0.1236
 1290ERGO    C217236   2.934   2.357   8.326 -0.1646 -0.0212 -0.2463
 1291ERGO   ROH17237  17.316  16.771   6.314 -0.1170  0.1693  0.0545
 1291ERGO    R117238  17.244  16.789   6.587  0.0091  0.1371  0.0910
 1291ERGO    R217239  17.021  16.662   6.691 -0.0874  0.3264  0.1281
 1291ERGO    R317240  17.202  16.557   6.865 -0.1222  0.0672  0.0128
 1291ERGO    R417241  16.960  16.598   7.025  0.0270  0.3727  0.1579
 1291ERGO    R517242  17.160  16.672   7.071  0.1527  0.1020  0.0503
 1291ERGO    C117243  17.094  16.463   7.383  0.0608  0.1561  0.0670
 1291ERGO    C217244  16.896  16.468   7.583 -0.3381 -0.0112  0.1217
 1292ERGO   ROH17245   1.656  13.722  10.043  0.0038 -0.0291 -0.0681
 1292ERGO    R117246   1.630  13.599   9.790  0.1421  0.0497 -0.1217
 1292ERGO    R217247   1.412  13.642   9.626  0.0740 -0.1514 -0.0853
 1292ERGO    R317248   1.602  13.709   9.444 -0.0209  0.1726 -0.0712
 1292ERGO    R417249   1.368  13.638   9.283  0.0782 -0.1377 -0.0861
 1292ERGO    R517250   1.569  13.556   9.263  0.2040  0.1609 -0.1062
 1292ERGO    C117251   1.521  13.699   8.913 -0.0086  0.1745 -0.0733
 1292ERGO    C217252   1.436  13.609   8.531  0.0732  0.1315 -0.1320
 1293ERGO   ROH17253  13.822   9.775   6.806  0.0481 -0.2604 -0.0347
 1293ERGO    R117254  13.774   9.753   7.084  0.1991  0.0589  0.0207
 1293ERGO    R217255  13.752   9.509   7.213 -0.0250  0.2035  0.2600
 1293ERGO    R317256  13.947   9.611   7.372  0.2090  0.1101  0.0410
 1293ERGO    R417257  13.889   9.348   7.486  0.0876  0.1996  0.2023
 1293ERGO    R517258  13.889   9.538   7.592  0.3437  0.2490  0.1273
 1293ERGO    C117259  14.152   9.350   7.794  0.3730  0.1095 -0.0370
 1293ERGO    C217260  14.421   9.121   7.822 -0.0390 -0.1436  0.1690
 1294ERGO   ROH17261  15.688   7.998  10.380 -0.0209 -0.1271  0.1135
 1294ERGO    R117262  15.627   8.120  10.132  0.0270  0.0447  0.1847
 1294ERGO    R217263  15.750   8.046   9.896  0.0153  0.1532  0.1436
 1294ERGO    R317264  15.494   8.014   9.811  0.0093  0.2825  0.1114
 1294ERGO    R417265  15.652   8.025   9.565  0.0545  0.1371  0.1331
 1294ERGO    R517266  15.479   8.148   9.613  0.1174  0.2481  0.0795
 1294ERGO    C117267  15.355   7.983   9.292  0.0717  0.2491  0.0968
 1294ERGO    C217268  15.372   7.872   8.863  0.0278  0.0556 -0.0534
 1295ERGO   ROH17269   2.754  14.882   6.438  0.1102 -0.2529 -0.0324
 1295ERGO    R117270   2.903  14.809   6.667 -0.0222 -0.0814  0.1100
 1295ERGO    R217271   3.165  14.886   6.704  0.0184 -0.2339  0.0979
 1295ERGO    R317272   3.070  14.982   6.940  0.0171  0.1322 -0.0443
 1295ERGO    R417273   3.358  15.044   6.944  0.1917 -0.5482  0.1726
 1295ERGO    R517274   3.246  14.936   7.097 -0.2198 -0.2041  0.1436
 1295ERGO    C117275   3.381  15.227   7.305  0.2915 -0.3875  0.0826
 1295ERGO    C217276   3.644  15.431   7.446  0.0112 -0.1844 -0.1225
 1296ERGO   ROH17277  10.733   2.715   6.539 -0.0774  0.0631  0.0350
 1296ERGO    R117278  10.753   2.603   6.798  0.0103  0.1928  0.0864
 1296ERGO    R217279  10.856   2.743   7.013 -0.0722  0.3621  0.0219
 1296ERGO    R317280  10.619   2.676   7.128 -0.0244  0.2544  0.0580
 1296ERGO    R417281  10.807   2.687   7.351 -0.0046  0.3597  0.0308
 1296ERGO    R517282  10.677   2.521   7.300  0.0707  0.2949  0.0600
 1296ERGO    C117283  10.556   2.592   7.655  0.0797  0.2572  0.0698
 1296ERGO    C217284  10.484   2.689   8.060 -0.0493 -0.2555 -0.0307
 1297ERGO   ROH17285   3.998  11.759  10.218 -0.0485 -0.1850  0.0179
 1297ERGO    R117286   3.954  11.829   9.947 -0.2209 -0.2852  0.0166
 1297ERGO    R217287   4.138  11.973   9.799 -0.5569  0.1818  0.0167
 1297ERGO    R317288   4.115  11.763   9.628 -0.0406  0.1087  0.0224
 1297ERGO    R417289   4.151  11.996   9.455 -0.4562  0.1681  0.0206
 1297ERGO    R517290   3.990  11.850   9.443 -0.1461 -0.1751 -0.0391
 1297ERGO    C117291   4.137  11.813   9.093  0.0871  0.0916  0.0281
 1297ERGO    C217292   4.079  11.729   8.729  0.0868  0.1554 -0.3912
 1298ERGO   ROH17293  13.850  16.918   6.206  0.1094  0.1881  0.0386
 1298ERGO    R117294  13.837  16.961   6.485  0.0699  0.0405  0.0594
 1298ERGO    R217295  13.604  17.033   6.614  0.0551 -0.0208  0.0623
 1298ERGO    R317296  13.658  16.815   6.767  0.0248 -0.1028 -0.0416
 1298ERGO    R417297  13.462  16.968   6.922  0.1106 -0.0986  0.0722
 1298ERGO    R517298  13.657  16.898   6.991  0.1088 -0.1912 -0.0051
 1298ERGO    C117299  13.430  16.726   7.245  0.1143 -0.2209 -0.0196
 1298ERGO    C217300  13.307  16.635   7.594  0.0038  0.2412 -0.3416
 1299ERGO   ROH17301   5.217  15.955   9.760  0.2350  0.0697 -0.1233
 1299ERGO    R117302   5.171  16.001   9.484  0.2702  0.1656 -0.1127
 1299ERGO    R217303   5.343  16.150   9.327  0.3866  0.0590 -0.0783
 1299ERGO    R317304   5.341  15.927   9.172  0.2073  0.0954 -0.1325
 1299ERGO    R417305   5.346  16.150   8.982  0.4092  0.1525 -0.0788
 1299ERGO    R517306   5.203  15.986   8.985  0.2639  0.2667 -0.1283
 1299ERGO    C117307   5.347  15.941   8.634  0.2540  0.2412 -0.1300
 1299ERGO    C217308   5.422  15.958   8.354 -0.0268 -0.2192  0.1693
 1300ERGO   ROH17309  11.244   6.462   6.257 -0.0442  0.1529 -0.0205
 1300ERGO    R117310  11.358   6.316   6.471 -0.2312  0.0283 -0.0022
 1300ERGO    R217311  11.602   6.383   6.584 -0.0998 -0.3170 -0.0622
 1300ERGO    R317312  11.458   6.384   6.814 -0.0644 -0.0311 -0.0382
 1300ERGO    R417313  11.731   6.322   6.898 -0.1297 -0.3541 -0.0576
 1300ERGO    R517314  11.553   6.207   6.944 -0.2750 -0.1019  0.0208
 1300ERGO    C117315  11.672   6.287   7.297 -0.1139 -0.1074 -0.0324
 1300ERGO    C217316  11.905   6.176   7.584 -0.1023 -0.2335 -0.0206
 1301ERGO   ROH17317  10.105   7.780   6.709  0.0669  0.1536  0.0159
 1301ERGO    R117318  10.103   7.931   6.948 -0.0021  0.2178 -0.0248
 1301ERGO    R217319   9.900   8.109   7.010 -0.1879 -0.0045  0.0195
 1301ERGO    R317320   9.887   7.963   7.239  0.0928  0.0388  0.0666
 1301ERGO    R417321   9.825   8.238   7.322 -0.0006  0.0215  0.0551
 1301ERGO    R517322   9.978   8.108   7.407  0.1502  0.1314 -0.0434
 1301ERGO    C117323   9.769   8.177   7.718  0.3718  0.0773  0.1200
 1301ERGO    C217324   9.479   8.021   7.926 -0.3265 -0.0452 -0.1895
 1302ERGO   ROH17325  11.766  14.707   6.439 -0.1394  0.1487  0.1104
 1302ERGO    R117326  11.801  14.661   6.716  0.0368  0.1191  0.0842
 1302ERGO    R217327  12.042  14.579   6.825  0.1362  0.2138 -0.0639
 1302ERGO    R317328  12.008  14.798   6.983  0.1220  0.1718 -0.0081
 1302ERGO    R417329  12.111  14.592   7.163  0.3049  0.1843 -0.0960
 1302ERGO    R517330  11.930  14.709   7.191  0.2670  0.1013  0.0176
 1302ERGO    C117331  12.119  14.804   7.509  0.3898  0.1278 -0.0622
 1302ERGO    C217332  12.187  14.697   7.705  0.2302  0.0323  0.1117
 1303ERGO   ROH17333  17.287   0.696   6.714  0.0399  0.1474 -0.1383
 1303ERGO    R117334  17.191   0.543   6.931  0.0811  0.0053 -0.2190
 1303ERGO    R217335  17.251   0.603   7.194  0.0518 -0.1084 -0.1862
 1303ERGO    R317336  16.981   0.600   7.223  0.0511 -0.2103 -0.1961
 1303ERGO    R417337  17.082   0.476   7.468  0.1005  0.0280 -0.0918
 1303ERGO    R517338  16.934   0.392   7.332  0.1432 -0.1482 -0.0338
 1303ERGO    C117339  16.730   0.400   7.654  0.1279  0.0118 -0.0462
 1303ERGO    C217340  16.716   0.412   8.034 -0.1940 -0.1017  0.3770
 1304ERGO   ROH17341   8.429   7.809  10.474  0.3121 -0.0221  0.0310
 1304ERGO    R117342   8.569   7.853  10.232  0.1234  0.1512 -0.0497
 1304ERGO    R217343   8.627   7.649  10.055  0.3179  0.2119 -0.0541
 1304ERGO    R317344   8.502   7.811   9.877 -0.0093  0.0178 -0.0110
 1304ERGO    R417345   8.669   7.636   9.712 -0.0326  0.0663 -0.0958
 1304ERGO    R517346   8.667   7.853   9.709 -0.2164  0.0683 -0.2095
 1304ERGO    C117347   8.575   7.781   9.345 -0.5438 -0.2008 -0.0796
 1304ERGO    C217348   8.675   7.800   8.898 -0.2434  0.1534 -0.2158
 1305ERGO   ROH17349  17.544   7.202   7.069 -0.0057  0.0693  0.0616
 1305ERGO    R117350  17.524   7.205   7.352 -0.1242 -0.0348  0.0553
 1305ERGO    R217351  17.368   7.025   7.492 -0.0488 -0.1975 -0.0655
 1305ERGO    R317352  17.600   6.976   7.624 -0.0646 -0.0660  0.0127
 1305ERGO    R417353  17.391   6.958   7.830 -0.1354 -0.2881 -0.0772
 1305ERGO    R517354  17.570   7.082   7.837 -0.2306 -0.1556  0.0355
 1305ERGO    C117355  17.623   6.872   8.151 -0.2009 -0.2173 -0.0105
 1305ERGO    C217356  17.516   6.796   8.518 -0.0830  0.1530 -0.1087
 1306ERGO   ROH17357  12.913  15.316   6.602  0.1147 -0.0336  0.0227
 1306ERGO    R117358  12.805  15.328   6.863  0.0806 -0.0988  0.0096
 1306ERGO    R217359  12.909  15.185   7.074  0.3101  0.1692  0.0720
 1306ERGO    R317360  12.920  15.429   7.193 -0.1049  0.2428 -0.0228
 1306ERGO    R417361  12.916  15.237   7.415  0.2143  0.3012  0.0560
 1306ERGO    R517362  12.780  15.406   7.387 -0.0805  0.0731 -0.0155
 1306ERGO    C117363  12.929  15.497   7.726 -0.2310  0.4469 -0.0423
 1306ERGO    C217364  12.908  15.496   8.119  0.1683 -0.0135  0.2568
 1307ERGO   ROH17365   4.523   7.867   6.956 -0.3011  0.3845  0.2432
 1307ERGO    R117366   4.508   7.729   7.202 -0.2136  0.3222  0.2138
 1307ERGO    R217367   4.669   7.513   7.262 -0.2882  0.2206  0.0464
 1307ERGO    R317368   4.732   7.661   7.481 -0.0675  0.1242  0.0519
 1307ERGO    R417369   4.809   7.387   7.552 -0.5048 -0.0095  0.0540
 1307ERGO    R517370   4.678   7.518   7.666 -0.3088  0.2019  0.0468
 1307ERGO    C117371   4.948   7.452   7.927 -0.4236 -0.2341  0.0636
 1307ERGO    C217372   5.030   7.396   8.259  0.1936  0.3698 -0.1706
 1308ERGO   ROH17373   6.387   4.177  10.542 -0.0707 -0.1644 -0.0508
 1308ERGO    R117374   6.388   4.294  10.284  0.0265 -0.0322  0.0062
 1308ERGO    R217375   6.606   4.430  10.183  0.0809  0.0065  0.1434
 1308ERGO    R317376   6.578   4.255   9.976  0.1307  0.1040  0.0562
 1308ERGO    R417377   6.681   4.500   9.853  0.1051  0.1574  0.1815
 1308ERGO    R517378   6.502   4.390   9.794  0.1373  0.1663  0.1104
 1308ERGO    C117379   6.698   4.376   9.467  0.1659  0.3367  0.1219
 1308ERGO    C217380   6.668   4.412   9.108  0.0092  0.1056  0.5710
 1309ERGO   ROH17381   6.084   3.131   6.379 -0.0995  0.1832 -0.0853
 1309ERGO    R117382   6.095   3.162   6.660 -0.1678  0.2599 -0.0908
 1309ERGO    R217383   6.333   3.190   6.797 -0.1691 -0.1427  0.0025
 1309ERGO    R317384   6.214   3.414   6.894  0.2078  0.1250 -0.1272
 1309ERGO    R417385   6.362   3.304   7.122 -0.1496 -0.1326 -0.0027
 1309ERGO    R517386   6.150   3.356   7.118 -0.0570  0.2917 -0.1518
 1309ERGO    C117387   6.267   3.581   7.402  0.2156  0.1246 -0.1276
 1309ERGO    C217388   6.498   3.722   7.666  0.0422 -0.2843  0.1887
 1310ERGO   ROH17389   9.339  16.206   9.476  0.0992  0.1188  0.1473
 1310ERGO    R117390   9.357  16.075   9.226 -0.0321  0.1163  0.1381
 1310ERGO    R217391   9.415  16.209   8.992 -0.0297  0.0954  0.1259
 1310ERGO    R317392   9.613  16.024   8.972 -0.1243 -0.0010  0.0679
 1310ERGO    R417393   9.527  16.070   8.696  0.0979  0.3506  0.0520
 1310ERGO    R517394   9.541  15.877   8.797 -0.0877  0.2295 -0.1451
 1310ERGO    C117395   9.779  15.815   8.506  0.0835  0.4086 -0.0456
 1310ERGO    C217396   9.938  15.662   8.240  0.0162  0.1399  0.0585
 1311ERGO   ROH17397   2.951  13.750   6.543  0.1044  0.1795  0.1289
 1311ERGO    R117398   2.825  13.584   6.735 -0.0146  0.1822  0.0541
 1311ERGO    R217399   2.952  13.502   6.966 -0.0616 -0.0388  0.0027
 1311ERGO    R317400   2.732  13.609   7.086  0.0339  0.0780  0.0750
 1311ERGO    R417401   2.809  13.385   7.259 -0.1982 -0.1536 -0.1083
 1311ERGO    R517402   2.613  13.420   7.171 -0.1603  0.1177 -0.0981
 1311ERGO    C117403   2.520  13.418   7.541 -0.1881 -0.1108 -0.1051
 1311ERGO    C217404   2.578  13.422   7.890 -0.0406  0.2410 -0.0308
 1312ERGO   ROH17405   6.111  13.064   9.679  0.0765  0.0221 -0.1349
 1312ERGO    R117406   6.076  12.976   9.412 -0.0309  0.0421 -0.1279
 1312ERGO    R217407   5.966  13.135   9.216  0.1413  0.1546 -0.1362
 1312ERGO    R317408   6.195  13.075   9.083  0.0725 -0.1126 -0.1380
 1312ERGO    R417409   5.995  13.118   8.872  0.1876  0.4398 -0.1493
 1312ERGO    R517410   6.122  12.942   8.897 -0.1179  0.1898 -0.2871
 1312ERGO    C117411   6.227  13.050   8.547  0.1500  0.3550 -0.1585
 1312ERGO    C217412   6.293  12.951   8.221  0.1161 -0.1094  0.1586
 1313ERGO   ROH17413   0.414  14.588   6.552  0.2244  0.1821  0.0166
 1313ERGO    R117414   0.517  14.460   6.782  0.1168  0.1398  0.0416
 1313ERGO    R217415   0.577  14.598   7.015 -0.0143  0.0930  0.1025
 1313ERGO    R317416   0.412  14.414   7.128 -0.0563  0.0533 -0.0214
 1313ERGO    R417417   0.555  14.534   7.354 -0.0013 -0.1531  0.0587
 1313ERGO    R517418   0.541  14.322   7.308 -0.0647 -0.1172 -0.0995
 1313ERGO    C117419   0.388  14.323   7.657 -0.0332 -0.3336 -0.0831
 1313ERGO    C217420   0.332  14.327   8.073  0.2234 -0.1616 -0.0241
 1314ERGO   ROH17421  11.733  16.514  10.278 -0.2127  0.1171  0.0851
 1314ERGO    R117422  11.564  16.655  10.100 -0.1533  0.2658  0.1444
 1314ERGO    R217423  11.633  16.901   9.993  0.1062  0.1302 -0.0179
 1314ERGO    R317424  11.584  16.775   9.757 -0.2353  0.0814  0.0745
 1314ERGO    R417425  11.641  17.053   9.683  0.1041 -0.0343 -0.0991
 1314ERGO    R517426  11.465  16.938   9.627 -0.0989  0.1840  0.0799
 1314ERGO    C117427  11.600  17.024   9.280 -0.2176 -0.1761 -0.0598
 1314ERGO    C217428  11.651  16.926   8.953 -0.1088  0.1353 -0.0198
 1315ERGO   ROH17429   9.806  13.671   9.830  0.1787  0.0421 -0.0056
 1315ERGO    R117430   9.889  13.551   9.587  0.1031 -0.1001  0.0366
 1315ERGO    R217431   9.785  13.312   9.496 -0.0500 -0.0700  0.1230
 1315ERGO    R317432   9.733  13.457   9.272  0.0418 -0.1163  0.0719
 1315ERGO    R417433   9.858  13.211   9.173 -0.0264 -0.1873  0.1651
 1315ERGO    R517434   9.920  13.415   9.129  0.0524 -0.2226  0.1179
 1315ERGO    C117435   9.851  13.289   8.775  0.0735 -0.2991  0.1417
 1315ERGO    C217436   9.879  13.210   8.374  0.1055  0.2070 -0.0430
 1316ERGO   ROH17437  16.269   2.048   6.618 -0.0440 -0.3448 -0.0518
 1316ERGO    R117438  16.380   2.039   6.878 -0.1282 -0.1605 -0.0072
 1316ERGO    R217439  16.227   1.994   7.103 -0.1769 -0.1796 -0.0426
 1316ERGO    R317440  16.406   1.794   7.146 -0.0469 -0.0360  0.0999
 1316ERGO    R417441  16.241   1.799   7.388 -0.0795 -0.0026  0.0753
 1316ERGO    R517442  16.459   1.809   7.379 -0.0855  0.1375  0.0974
 1316ERGO    C117443  16.418   1.497   7.594  0.0992  0.2352  0.2778
 1316ERGO    C217444  16.394   1.304   7.937 -0.0968 -0.3421  0.1989
 1317ERGO   ROH17445   5.611  15.650   9.724  0.0081 -0.1045 -0.0008
 1317ERGO    R117446   5.599  15.740   9.456  0.0776 -0.0696  0.0078
 1317ERGO    R217447   5.824  15.759   9.296  0.1106 -0.0848  0.0567
 1317ERGO    R317448   5.677  15.603   9.128  0.1233 -0.0385  0.0045
 1317ERGO    R417449   5.843  15.769   8.951 -0.1921  0.3519  0.0452
 1317ERGO    R517450   5.626  15.747   8.944 -0.1850  0.1385  0.2150
 1317ERGO    C117451   5.716  15.629   8.592 -0.3564  0.6497 -0.0105
 1317ERGO    C217452   5.737  15.602   8.254 -0.0734 -0.1519 -0.0437
 1318ERGO   ROH17453  11.569   4.254   6.241  0.1237  0.0154 -0.1345
 1318ERGO    R117454  11.535   4.303   6.518  0.1393 -0.0959 -0.1125
 1318ERGO    R217455  11.730   4.246   6.704  0.2362  0.0321 -0.1742
 1318ERGO    R317456  11.697   4.507   6.772  0.0070 -0.0161 -0.0909
 1318ERGO    R417457  11.807   4.380   7.013  0.2022  0.0185 -0.1596
 1318ERGO    R517458  11.625   4.499   7.001  0.0822 -0.1503 -0.0702
 1318ERGO    C117459  11.821   4.703   7.257 -0.0325 -0.0347 -0.0729
 1318ERGO    C217460  12.054   4.811   7.559  0.1010 -0.1001  0.2060
 1319ERGO   ROH17461   6.305  13.245   6.297  0.0947  0.1452  0.1134
 1319ERGO    R117462   6.528  13.071   6.309  0.0650  0.0954 -0.0031
 1319ERGO    R217463   6.758  13.133   6.448  0.0814 -0.0350  0.0438
 1319ERGO    R317464   6.711  12.893   6.568  0.0284 -0.1086 -0.1154
 1319ERGO    R417465   6.990  12.877   6.477  0.0841 -0.0300  0.0466
 1319ERGO    R517466   6.830  12.735   6.434  0.1239 -0.0232 -0.1297
 1319ERGO    C117467   7.080  12.504   6.607  0.0359 -0.0964 -0.1013
 1319ERGO    C217468   7.335  12.535   6.883  0.2144  0.3009  0.0430
 1320ERGO   ROH17469  10.665  15.712   9.922 -0.1281  0.3333  0.0314
 1320ERGO    R117470  10.583  15.696   9.652  0.0631  0.0522 -0.0134
 1320ERGO    R217471  10.561  15.919   9.489 -0.1743 -0.0717 -0.1529
 1320ERGO    R317472  10.727  15.777   9.327  0.1456  0.0819  0.0296
 1320ERGO    R417473  10.616  15.986   9.155 -0.3344 -0.3685 -0.2426
 1320ERGO    R517474  10.614  15.772   9.116  0.1424 -0.4380  0.0295
 1320ERGO    C117475  10.803  15.892   8.808 -0.1273 -0.3972 -0.1235
 1320ERGO    C217476  10.867  15.954   8.429 -0.2134 -0.1269  0.2099
 1321ERGO   ROH17477   2.940   4.248   6.676 -0.0760  0.0261 -0.1904
 1321ERGO    R117478   3.098   4.454   6.791 -0.1163  0.0181 -0.1192
 1321ERGO    R217479   2.991   4.650   6.954 -0.1510 -0.0746 -0.0251
 1321ERGO    R317480   3.183   4.565   7.126 -0.1142 -0.1030 -0.0804
 1321ERGO    R417481   3.085   4.816   7.242 -0.3511 -0.3200  0.1873
 1321ERGO    R517482   3.292   4.766   7.197 -0.3007 -0.0889  0.1722
 1321ERGO    C117483   3.321   4.833   7.571 -0.4330 -0.4895  0.2591
 1321ERGO    C217484   3.343   4.831   7.860 -0.0307 -0.1258 -0.1151
 1322ERGO   ROH17485   8.065   9.527   6.487  0.0342 -0.0485 -0.0363
 1322ERGO    R117486   8.074   9.387   6.732  0.0308  0.0270  0.0057
 1322ERGO    R217487   8.308   9.350   6.874  0.0228  0.0799  0.0221
 1322ERGO    R317488   8.166   9.462   7.077  0.0143  0.1318 -0.0108
 1322ERGO    R417489   8.409   9.358   7.205 -0.0310  0.0622  0.0400
 1322ERGO    R517490   8.202   9.316   7.263 -0.0605  0.1233  0.0032
 1322ERGO    C117491   8.333   9.468   7.587 -0.0703  0.1006  0.0194
 1322ERGO    C217492   8.295   9.464   7.938  0.1340  0.0746  0.1882
 1323ERGO   ROH17493  17.443   5.890   9.024  0.0465  0.2346 -0.0648
 1323ERGO    R117494  17.333   5.966   9.274 -0.1062 -0.0268 -0.0483
 1323ERGO    R217495  17.207   5.787   9.442  0.2558 -0.3199 -0.0730
 1323ERGO    R317496  17.386   5.880   9.623  0.0806  0.0177 -0.0653
 1323ERGO    R417497  17.176   5.754   9.784  0.2843 -0.3304 -0.0715
 1323ERGO    R517498  17.252   5.957   9.806 -0.0715 -0.1929 -0.0875
 1323ERGO    C117499  17.327   5.822  10.154  0.1364 -0.0196 -0.0634
 1323ERGO    C217500  17.179   5.679  10.400  0.0795 -0.0393  0.0378
 1324ERGO   ROH17501  16.565  12.857   6.609  0.1538  0.3002 -0.0085
 1324ERGO    R117502  16.577  12.771   6.878 -0.1584 -0.0676 -0.1042
 1324ERGO    R217503  16.657  12.936   7.084  0.4176 -0.5639  0.1028
 1324ERGO    R317504  16.419  12.863   7.193  0.1278  0.1268 -0.0146
 1324ERGO    R417505  16.587  12.935   7.422  0.4639 -0.9384  0.1157
 1324ERGO    R517506  16.478  12.748   7.394 -0.2681 -0.5008 -0.2321
 1324ERGO    C117507  16.322  12.865   7.721  0.2188 -0.5080  0.0130
 1324ERGO    C217508  16.184  12.951   8.006  0.1192 -0.2627  0.0477
 1325W        W17509   1.016   5.580  15.172 -0.2088  0.3041 -0.0630
 1326W        W17510  15.880  17.228  14.142 -0.0773 -0.0571 -0.3598
 1327W        W17511   7.018   2.796   1.568  0.1518  0.1186  0.2039
 1328W        W17512  10.285  14.948   4.286  0.0907 -0.0209  0.1657
 1329W        W17513  14.572   2.525  12.009 -0.1278  0.3016 -0.1448
 1330W        W17514   4.992   8.921   0.830 -0.1100 -0.2811 -0.0167
 1331W        W17515   4.597  12.033   4.327  0.2102  0.3051  0.2489
 1332W        W17516   9.341   1.702  12.585 -0.2172  0.2583 -0.1244
 1333W        W17517   3.528  14.027  13.057  0.1823 -0.2638 -0.0255
 1334W        W17518   5.147  15.750  16.252 -0.0405  0.0547  0.1666
 1335W        W17519   4.008   7.157   4.302  0.0681  0.1031 -0.1496
 1336W        W17520  13.863   4.639  15.872  0.0625  0.2787 -0.1983
 1337W        W17521   8.677   4.469   3.855 -0.0765 -0.0622 -0.1736
 1338W        W17522   1.594  17.020  11.934 -0.1781  0.2789 -0.0223
 1339W        W17523   5.360  13.840   1.329  0.0238  0.0193  0.0349
 1340W        W17524   6.661   8.643  13.359  0.1186 -0.1349  0.2204
 1341W        W17525  14.897  15.142   0.001  0.1650 -0.0113 -0.1325
 1342W        W17526   9.176   3.755  12.800  0.1160  0.0435  0.1604
 1343W        W17527   0.738   4.926   0.273 -0.6237  0.2986  0.0335
 1344W        W17528   0.938  11.818   3.372 -0.1031 -0.1936  0.4150
 1345W        W17529  10.195  12.946  12.479 -0.0907 -0.2508  0.2945
 1346W        W17530   6.488   6.994   6.012 -0.0668  0.0948  0.2769
 1347W        W17531  15.240   2.186   0.163 -0.3253  0.2285  0.2497
 1348W        W17532  14.682   0.494   3.990  0.1151  0.1650  0.2413
 1349W        W17533  15.820  13.589   3.390 -0.3161 -0.0166  0.0156
 1350W        W17534  14.194  14.432   5.120  0.0018 -0.1069  0.1002
 1351W        W17535  12.161   3.082  13.218 -0.0244 -0.0702  0.5102
 1352W        W17536   8.385   9.918  15.850 -0.1624 -0.1970  0.1998
 1353W        W17537  14.326  17.147   0.444 -0.1456 -0.1374 -0.1461
 1354W        W17538  15.258  13.250  11.207 -0.3359  0.1545 -0.1796
 1355W        W17539  12.384   0.978  15.811  0.0178  0.0133  0.2957
 1356W        W17540   1.516  16.742  15.399 -0.0365  0.5099 -0.0097
 1357W        W17541   3.119  16.330  13.396  0.3798  0.0472 -0.0595
 1358W        W17542  10.673   5.912   1.161 -0.1554  0.0869  0.0113
 1359W        W17543   8.528   9.315   5.750 -0.1060 -0.0410  0.1316
 1360W        W17544  16.862   6.054  14.810  0.0006  0.0093  0.0152
 1361W        W17545   6.932   9.368  16.356 -0.0268 -0.0656  0.0406
 1362W        W17546   0.196  12.386  12.952  0.2088 -0.0074 -0.0659
 1363W        W17547   7.268   2.049   4.240  0.0465  0.0241 -0.2448
 1364W        W17548  13.522  13.254   2.839  0.2314  0.0913  0.0079
 1365W        W17549  16.257  10.028   1.594 -0.0174 -0.3296  0.2305
 1366W        W17550  13.648   7.925   3.023  0.0553  0.2325 -0.0174
 1367W        W17551  13.248   1.335  16.035 -0.2036 -0.1445  0.2147
 1368W        W17552   4.522   5.068  13.458 -0.2987 -0.0243 -0.1448
 1369W        W17553  12.821   4.272   4.241  0.1125  0.3065 -0.3230
 1370W        W17554   8.749   2.053  12.910  0.5290 -0.0215  0.3171
 1371W        W17555   0.424  13.687  15.597  0.0371  0.0937 -0.0998
 1372W        W17556   9.149   2.716   0.404 -0.1874 -0.2044  0.0673
 1373W        W17557   6.162  12.914  14.181 -0.2389  0.0774  0.1826
 1374W        W17558  13.064  10.398   6.209 -0.2102 -0.2742  0.4924
 1375W        W17559   8.225   1.823   3.416  0.1113  0.1349 -0.0235
 1376W        W17560  16.274   0.731   2.294 -0.3047  0.2121  0.2235
 1377W        W17561   2.054   9.026   4.864 -0.0955 -0.2660 -0.2140
 1378W        W17562   4.872   0.233  11.875  0.0375  0.1363  0.0327
 1379W        W17563   0.562  10.292   5.220  0.0944  0.2902 -0.1794
 1380W        W17564   6.199   1.544  13.843 -0.1649  0.0146 -0.0612
 1381W        W17565   7.735   9.333   6.123 -0.0766 -0.1377 -0.1148
 1382W        W17566  11.380  15.483  12.382  0.2614 -0.1907 -0.2919
 1383W        W17567   5.455  11.646   3.073 -0.0804  0.0867  0.0685
 1384W        W17568   7.277   0.735   4.200  0.3652 -0.0665  0.3391
 1385W        W17569   0.113  11.812   4.336 -0.1915  0.3450  0.0179
 1386W        W17570   9.718   4.738  12.546  0.0628  0.1148  0.1573
 1387W        W17571   4.752  12.836   4.815  0.2743 -0.1393  0.1431
 1388W        W17572   7.225  15.110  11.350 -0.0845 -0.1050 -0.2822
 1389W        W17573  11.583   4.590   2.815 -0.1212  0.1488 -0.0682
 1390W        W17574   9.896  14.090   5.247 -0.3757 -0.0693 -0.0981
 1391W        W17575  12.295  13.959   5.024 -0.0118  0.4321 -0.0475
 1392W        W17576  11.154  10.602  12.878 -0.0674  0.0532 -0.1259
 1393W        W17577  10.616   9.935  13.019  0.1627 -0.1591  0.0527
 1394W        W17578   4.630  13.880  16.184  0.0379  0.4770 -0.1117
 1395W        W17579   0.946  13.228  16.757 -0.0884 -0.1061  0.1406
 1396W        W17580   8.735  10.571  12.620 -0.0324 -0.2392 -0.0093
 1397W        W17581  15.725   2.817   4.066 -0.0106  0.2537 -0.3545
 1398W        W17582  13.178   8.558   2.931  0.2640  0.0816  0.3871
 1399W        W17583  16.495  13.391  14.481 -0.2638  0.0412 -0.0395
 1400W        W17584  13.983  10.927   5.062 -0.3176  0.2511  0.0973
 1401W        W17585  17.389   0.697  16.415 -0.1139 -0.0005 -0.1563
 1402W        W17586   2.889  17.063  15.710 -0.2249  0.1323  0.2100
 1403W        W17587  13.865  10.783  16.465  0.0143 -0.0822 -0.1543
 1404W        W17588   6.845   7.830  14.299 -0.1750  0.1296 -0.1040
 1405W        W17589   9.898   8.630   3.708  0.0606 -0.2364  0.1125
 1406W        W17590  15.999   5.691  12.553  0.0753  0.1935 -0.0042
 1407W        W17591   2.482  12.312   2.275  0.0521  0.1213 -0.1648
 1408W        W17592  14.313   7.417  14.446 -0.2506 -0.3337 -0.1127
 1409W        W17593  10.788   1.268   1.083 -0.1753  0.0030  0.1162
 1410W        W17594  17.302   3.585  16.448 -0.1092 -0.1367  0.2838
 1411W        W17595   2.301   0.331   0.746 -0.1699  0.5229  0.0077
 1412W        W17596   6.907  16.215   0.574 -0.2460 -0.1125  0.2026
 1413W        W17597  13.760   4.540  12.666  0.2163 -0.1039  0.2852
 1414W        W17598   3.768   3.851   4.998  0.0521 -0.1635  0.1736
 1415W        W17599  14.809   3.883   0.869  0.0937 -0.0304 -0.0956
 1416W        W17600   6.084  13.944   5.913 -0.1001 -0.0196 -0.2083
 1417W        W17601   3.385  15.881  12.266  0.1913 -0.0856 -0.0205
 1418W        W17602   4.912   7.198   4.129 -0.2628  0.1937  0.0482
 1419W        W17603   5.721   2.411   4.724  0.0671 -0.2133 -0.2595
 1420W        W17604   8.608   6.329   1.846 -0.2852  0.3297  0.1875
 1421W        W17605  17.454  11.318   5.537  0.0983  0.0693  0.0671
 1422W        W17606  14.488   3.929  12.114 -0.0595  0.2762 -0.0174
 1423W        W17607  14.386   5.084  13.032  0.1343 -0.2816 -0.0010
 1424W        W17608   6.750   6.984  13.875 -0.1335  0.0980  0.0337
 1425W        W17609  14.381  17.861  16.890 -0.0895  0.1122  0.0749
 1426W        W17610   8.795   6.040  12.745  0.1130  0.1289  0.2876
 1427W        W17611  13.562  11.760   0.341  0.2772 -0.1831  0.1267
 1428W        W17612   6.279   4.823   5.541  0.0172  0.3167 -0.1824
 1429W        W17613   3.490  15.617   5.579  0.2570 -0.1453  0.0594
 1430W        W17614   5.115  15.358  12.855  0.2010 -0.1513 -0.0846
 1431W        W17615   1.119   6.088   5.328 -0.0707 -0.1609 -0.0620
 1432W        W17616   1.848  11.651  16.800  0.3155 -0.1130 -0.0575
 1433W        W17617   3.838  10.466  14.123 -0.1445  0.0735 -0.1116
 1434W        W17618   1.532   9.672   3.937  0.0733 -0.1991  0.0952
 1435W        W17619   8.963  13.802   2.198  0.1800 -0.0270 -0.0429
 1436W        W17620   5.370  13.374   4.730 -0.0185 -0.0361 -0.1245
 1437W        W17621   7.859   0.026  14.870  0.3732 -0.0462 -0.0488
 1438W        W17622   4.903   0.010   4.857 -0.0033  0.3342 -0.2415
 1439W        W17623   3.149  16.149   1.893  0.0201 -0.1584 -0.1195
 1440W        W17624   8.340   0.409  13.223  0.0154  0.1956 -0.0771
 1441W        W17625   2.529  15.966  11.762  0.2390  0.4455 -0.2455
 1442W        W17626  12.378   6.567  14.972  0.0227 -0.0388  0.0635
 1443W        W17627  12.579  15.542   0.259 -0.0749  0.2171  0.0065
 1444W        W17628   2.669   6.270   3.343 -0.0680  0.1299 -0.5385
 1445W        W17629   9.160  12.570   4.143  0.0096  0.0604  0.0170
 1446W        W17630  16.086  14.242   3.037 -0.1733 -0.0798 -0.2010
 1447W        W17631   5.749  11.997  16.545 -0.1384 -0.2855  0.1520
 1448W        W17632   1.939   9.307  16.731 -0.0865  0.0741  0.0130
 1449W        W17633   1.092  14.484   1.450  0.1178 -0.1536  0.0131
 1450W        W17634   7.178  15.059   3.048  0.0911 -0.0768  0.3521
 1451W        W17635   5.363   4.050   2.004 -0.1301 -0.2348 -0.2992
 1452W        W17636   8.446   5.464   2.856  0.0582 -0.2287  0.0364
 1453W        W17637  11.279   0.894  14.540  0.3072 -0.2138  0.0867
 1454W        W17638   0.922  16.863   4.290  0.2151  0.1053 -0.2652
 1455W        W17639  13.618   9.632  13.200  0.0217  0.2966  0.1137
 1456W        W17640   1.235   3.783   6.253 -0.2166 -0.0284 -0.0074
 1457W        W17641   8.124  16.564  16.055 -0.2348 -0.4284  0.0045
 1458W        W17642   7.764   1.798  11.996  0.2254  0.1265 -0.2066
 1459W        W17643   9.341   3.456  16.562 -0.1777 -0.2165 -0.2993
 1460W        W17644   0.003  16.857  16.376 -0.0758  0.2648 -0.0429
 1461W        W17645   6.687  15.827  11.102  0.0785 -0.1093 -0.1038
 1462W        W17646   1.913  12.676  13.868  0.1808  0.1490  0.1850
 1463W        W17647   2.158  17.710  13.551 -0.3758  0.1861 -0.1437
 1464W        W17648   4.412  14.856   1.183 -0.1602 -0.0411  0.0168
 1465W        W17649   7.309   4.231   3.629 -0.2069  0.0008 -0.0293
 1466W        W17650   5.073  16.423   5.185 -0.1172 -0.3404  0.0138
 1467W        W17651   4.214   4.938   5.761 -0.1495  0.1449 -0.4405
 1468W        W17652  11.376  11.975   2.600 -0.0032 -0.2122  0.0218
 1469W        W17653   4.744   6.318   0.637  0.0158  0.0087  0.0645
 1470W        W17654  12.589   0.449   3.138 -0.2146 -0.1088  0.0911
 1471W        W17655  15.341   0.750   2.135 -0.1579  0.1833 -0.0200
 1472W        W17656   7.964   9.662   3.587 -0.1902  0.0399  0.0097
 1473W        W17657   4.996  16.642  13.152 -0.0674  0.0345 -0.1708
 1474W        W17658  15.683  17.097   3.418  0.1940  0.1431 -0.0574
 1475W        W17659  17.111   7.676  15.328 -0.1570 -0.2999  0.2500
 1476W        W17660  11.730   7.513   4.753  0.1097 -0.0358  0.0515
 1477W        W17661   5.742   0.214  13.473  0.0113 -0.1924 -0.2447
 1478W        W17662  16.822  12.950  15.769 -0.0717 -0.0530 -0.0600
 1479W        W17663   7.672   8.614  12.462 -0.2606 -0.0160  0.0091
 1480W        W17664   9.563   4.722  16.581  0.0531  0.0390 -0.1627
 1481W        W17665  10.601  13.676   0.749 -0.0013  0.1244  0.1347
 1482W        W17666   8.930   8.098  14.619 -0.2465  0.0122 -0.2230
 1483W        W17667  15.430  12.124   3.870 -0.1159  0.0149  0.0377
 1484W        W17668   8.539  13.310  13.042 -0.1098  0.2269 -0.2519
 1485W        W17669  10.125   0.571   2.946  0.0529 -0.0240 -0.3087
 1486W        W17670   0.458  17.091   0.741  0.2029  0.1945 -0.3661
 1487W        W17671   7.033   3.661  15.244  0.1278  0.2438 -0.2437
 1488W        W17672  10.155   1.555  16.802 -0.0981  0.0404 -0.1796
 1489W        W17673   9.004   8.358  15.051  0.1142 -0.0688 -0.0903
 1490W        W17674  11.998   5.631  11.780  0.0317 -0.2466  0.0757
 1491W        W17675  10.528  16.702  13.058  0.0186  0.1278 -0.0065
 1492W        W17676   8.187   5.909   4.958  0.0461  0.0041 -0.0215
 1493W        W17677   0.785   9.652   4.689 -0.0546  0.1235 -0.1172
 1494W        W17678   9.303   2.477  13.830  0.1669  0.3449  0.2198
 1495W        W17679   2.403  15.933   0.114  0.1218  0.0978  0.0005
 1496W        W17680  10.640  11.326   2.473  0.0186 -0.1086  0.0561
 1497W        W17681  15.773  11.006   1.525 -0.0836  0.1211 -0.0539
 1498W        W17682   2.967   1.229   5.115 -0.0061  0.0932 -0.1986
 1499W        W17683   5.578  13.403  13.580 -0.0389  0.2926  0.2345
 1500W        W17684   8.906   5.836  15.158  0.0793 -0.0399  0.0940
 1501W        W17685  15.107   2.913  14.846 -0.1689  0.1124 -0.0088
 1502W        W17686   6.131   8.684   5.586 -0.0214  0.1283 -0.1351
 1503W        W17687   6.725  13.814  16.851  0.1780 -0.2876  0.0053
 1504W        W17688  14.332   4.805  15.855  0.0724  0.4550  0.0806
 1505W        W17689   1.937   1.851  13.926  0.0985 -0.0071 -0.0799
 1506W        W17690   7.631  15.304   2.226  0.3379  0.2639  0.3682
 1507W        W17691  10.518   5.668  14.595  0.0397 -0.2693  0.3078
 1508W        W17692   1.805  13.874  12.533 -0.2678 -0.0958  0.1129
 1509W        W17693   4.528  12.944  16.257 -0.1406  0.0756  0.1310
 1510W        W17694  13.135  10.656   5.493 -0.2540 -0.1604 -0.2810
 1511W        W17695   0.563  12.452  16.061  0.1492  0.2000 -0.3864
 1512W        W17696   5.562   7.684  13.551  0.1715  0.0210 -0.0025
 1513W        W17697   9.458  16.310   5.456 -0.0312 -0.0284  0.3744
 1514W        W17698  16.483  17.295  13.095 -0.0433  0.0336  0.0709
 1515W        W17699   0.870   6.310   0.539  0.1233  0.3102  0.0010
 1516W        W17700   4.203   6.295   0.608 -0.1241  0.0129  0.0368
 1517W        W17701   1.141  13.305   3.787 -0.0062  0.1588  0.0677
 1518W        W17702  17.013   6.455  16.178 -0.0270 -0.1512  0.3830
 1519W        W17703   5.010  14.917   1.975  0.2272  0.3256  0.0316
 1520W        W17704  10.392  15.917  15.915  0.1248 -0.1732  0.0688
 1521W        W17705  14.422  12.397   5.475 -0.0550 -0.0432 -0.0315
 1522W        W17706   9.022  13.803  11.930 -0.2097  0.2215 -0.0520
 1523W        W17707   1.681   7.466   1.224  0.1535  0.0328 -0.6234
 1524W        W17708  15.428  12.658  14.871  0.0183 -0.0932  0.0090
 1525W        W17709  16.148   1.314   0.632 -0.0064  0.1372 -0.2170
 1526W        W17710  14.941   3.395  12.454 -0.1422  0.0834 -0.4734
 1527W        W17711   6.783   7.436   4.922 -0.2520 -0.0128 -0.1464
 1528W        W17712   9.489  14.104   3.415  0.1519  0.0770  0.0828
 1529W        W17713  13.844   0.794  13.111  0.0754 -0.3611  0.1547
 1530W        W17714   2.194   1.650  16.778  0.1000 -0.0739  0.0380
 1531W        W17715  10.516  15.171   2.441  0.1522 -0.0984  0.2015
 1532W        W17716   4.414  14.274  12.486 -0.0230  0.0720  0.0724
 1533W        W17717  16.161  16.923   0.152 -0.1071  0.1820  0.1397
 1534W        W17718  14.773  14.119  14.809 -0.0244  0.0962 -0.1990
 1535W        W17719  13.546   3.931   0.224  0.2032  0.1095 -0.0015
 1536W        W17720   3.157   2.051   4.582 -0.1188 -0.0894  0.2239
 1537W        W17721  16.210  12.582  12.875  0.0456 -0.0297  0.0586
 1538W        W17722  13.691   2.622   4.305 -0.0190  0.0520 -0.0753
 1539W        W17723  11.082  14.698   2.308 -0.1251 -0.2258 -0.0464
 1540W        W17724   6.836   5.272  14.016 -0.1672  0.1070 -0.1434
 1541W        W17725  14.655  12.233  12.485 -0.2559 -0.2113 -0.1870
 1542W        W17726   2.284  16.393  10.812 -0.2364 -0.1615  0.0212
 1543W        W17727  13.622   8.821  14.704 -0.0844  0.1734 -0.1624
 1544W        W17728  17.146   9.596   2.411 -0.1885  0.0119  0.0802
 1545W        W17729  11.077   1.949  12.901  0.1332 -0.3232 -0.5213
 1546W        W17730  10.939   0.296   2.377  0.1606 -0.1774  0.1040
 1547W        W17731  17.174  14.720  12.064  0.0689  0.0615 -0.2658
 1548W        W17732  16.821   7.227   4.916 -0.2729  0.0033 -0.4281
 1549W        W17733   0.908   4.937  13.524 -0.1248 -0.0923 -0.1776
 1550W        W17734   7.096  10.921  12.732  0.3028  0.0184  0.2656
 1551W        W17735  13.407   6.753  12.857 -0.3087  0.1110  0.2657
 1552W        W17736   7.037   9.412  13.454 -0.0689  0.2033  0.1763
 1553W        W17737   5.619  16.938  12.566 -0.1410 -0.0015 -0.0053
 1554W        W17738  17.436  16.831  16.196 -0.4305  0.1372  0.2300
 1555W        W17739  17.101  10.594  15.839 -0.2912  0.3107  0.1854
 1556W        W17740  13.762   6.040  13.236 -0.0328 -0.0142  0.0891
 1557W        W17741  11.525  16.539  13.013 -0.1295  0.0023 -0.0686
 1558W        W17742  14.737   8.465  12.896  0.1321 -0.0392 -0.0224
 1559W        W17743   3.799   2.547  13.796  0.0487  0.2306  0.0952
 1560W        W17744   9.592  16.799  15.089 -0.0052  0.1680 -0.1671
 1561W        W17745  16.911   1.800   5.906  0.1584  0.2063  0.0703
 1562W        W17746   9.195   8.877  10.907 -0.1119  0.2063 -0.0639
 1563W        W17747   1.749   2.196   5.874  0.0396 -0.2574  0.3094
 1564W        W17748   8.310  16.771   3.662  0.2121  0.1725 -0.0627
 1565W        W17749   1.880   6.276   2.519 -0.1265 -0.1142  0.1655
 1566W        W17750   0.743  10.162   3.280 -0.0455  0.0822 -0.2403
 1567W        W17751  11.355  11.720  16.120  0.1924  0.3761 -0.0812
 1568W        W17752   9.915   0.829  16.866 -0.5429 -0.2225  0.0014
 1569W        W17753   4.395  16.235   5.034 -0.1544 -0.1830 -0.1050
 1570W        W17754   2.543   3.307   4.679 -0.1459  0.1266 -0.2516
 1571W        W17755  14.062  17.644  12.052  0.0194 -0.2164  0.0997
 1572W        W17756   8.950   1.093   5.379  0.1727 -0.1917  0.1449
 1573W        W17757   9.312  17.440  12.748 -0.0095  0.1634  0.1254
 1574W        W17758  15.071   0.796   0.811  0.0543 -0.1652 -0.0420
 1575W        W17759   0.643   0.463  16.613  0.0913 -0.0056  0.0474
 1576W        W17760   1.243   7.702  14.565  0.0709 -0.0004 -0.0811
 1577W        W17761   5.285   4.273  16.509  0.2534 -0.2871 -0.1133
 1578W        W17762  11.391   4.081   0.306  0.1112 -0.1451 -0.0008
 1579W        W17763   7.464  12.381   2.894  0.0303 -0.3090  0.1125
 1580W        W17764   8.518   5.751   3.299  0.2503  0.0676  0.1541
 1581W        W17765  13.266   8.899   5.920 -0.1155  0.0307 -0.0085
 1582W        W17766  15.218   4.982  11.375  0.3084 -0.1653 -0.4024
 1583W        W17767   3.960  16.669   6.031  0.1552  0.2366 -0.0624
 1584W        W17768   7.743  17.059   2.171  0.0721  0.0339 -0.0108
 1585W        W17769   5.212  10.329  15.308 -0.2195  0.0335 -0.1711
 1586W        W17770   6.965   6.443  14.434 -0.0381  0.0310 -0.0641
 1587W        W17771   7.799   1.474  15.586 -0.0189 -0.3279  0.1762
 1588W        W17772  13.165  14.585  14.047 -0.0557 -0.2915 -0.2885
 1589W        W17773  10.296   2.298   5.163  0.1140 -0.0302  0.0856
 1590W        W17774   7.087   0.581  15.192  0.1585 -0.1062 -0.0531
 1591W        W17775   2.608  13.397   3.882  0.1214 -0.0950 -0.0987
 1592W        W17776  12.310  16.758  14.790 -0.1627 -0.3517 -0.1654
 1593W        W17777  11.642  10.153   0.723  0.2455  0.1138 -0.3025
 1594W        W17778  10.555   7.861   3.062 -0.0741  0.0064 -0.0811
 1595W        W17779  13.403  13.675  13.740  0.0934 -0.4040  0.0843
 1596W        W17780   3.400   7.454  14.444 -0.0143 -0.1461 -0.0246
 1597W        W17781   6.143  10.419   1.714  0.1213  0.1982  0.1209
 1598W        W17782  12.690  12.592  15.971 -0.1464 -0.1181 -0.1339
 1599W        W17783  10.317  13.579   2.521  0.3148 -0.0850  0.3258
 1600W        W17784   8.550   0.790  13.457  0.2382  0.0352  0.0211
 1601W        W17785  14.979   9.216   5.811  0.0355 -0.1456 -0.0222
 1602W        W17786   0.426  11.576  12.622 -0.1226  0.1375 -0.0028
 1603W        W17787   9.283   0.313   5.422  0.1397 -0.1061 -0.0705
 1604W        W17788   5.843   7.465  15.375 -0.0243  0.1277  0.1947
 1605W        W17789   6.757  13.728   5.310  0.1878  0.2307 -0.1879
 1606W        W17790  17.747   6.146   3.910 -0.1251 -0.1432 -0.0228
 1607W        W17791  15.591   4.036  13.405  0.2718  0.0090 -0.4400
 1608W        W17792  10.726   0.294  14.120  0.1541  0.2805 -0.1167
 1609W        W17793  16.071  11.353  11.643 -0.1227  0.0300 -0.0788
 1610W        W17794   4.771  11.647  15.938 -0.1992  0.1784 -0.1591
 1611W        W17795   0.252   6.841   4.712 -0.2452 -0.2665 -0.3306
 1612W        W17796   9.248   5.944   0.623 -0.1513 -0.2064 -0.1410
 1613W        W17797  10.614  14.430   2.943 -0.1458  0.1566  0.2349
 1614W        W17798   8.361   4.018   0.122 -0.0285  0.3998  0.1621
 1615W        W17799  10.172  17.151   6.128 -0.0426 -0.0017 -0.2855
 1616W        W17800  10.089   8.606  15.323 -0.0162  0.0243 -0.1810
 1617W        W17801   8.210  16.189   3.776 -0.0734  0.3639 -0.1976
 1618W        W17802  10.507   5.759   5.329 -0.2621 -0.0349  0.0818
 1619W        W17803   7.337   9.885   3.334 -0.1691  0.1569 -0.1556
 1620W        W17804  14.376  13.503   3.010 -0.1863  0.1758 -0.1502
 1621W        W17805   6.941   5.267   3.751  0.3072  0.0435 -0.1257
 1622W        W17806  16.048  11.771   1.141  0.0328 -0.1121 -0.0151
 1623W        W17807   7.574   6.641  13.739  0.0945 -0.4663 -0.2486
 1624W        W17808  15.727  15.353   4.704 -0.2744  0.2070 -0.0755
 1625W        W17809   1.807  11.233   2.349  0.1635  0.1402 -0.0023
 1626W        W17810  15.580   3.956  16.916 -0.4548  0.0227  0.1106
 1627W        W17811  16.293   2.632   0.134  0.3685  0.0358 -0.1261
 1628W        W17812   5.966   7.413   1.104  0.0574  0.0287  0.0546
 1629W        W17813   8.284   8.182  16.644 -0.2533  0.2475 -0.2273
 1630W        W17814  12.498  14.040   3.929  0.3392  0.1076  0.1534
 1631W        W17815   7.232   9.555  15.968 -0.0792 -0.0083  0.0022
 1632W        W17816  12.888  12.139   5.780 -0.1101  0.1648 -0.0151
 1633W        W17817  15.696  14.373  13.588 -0.1809 -0.1766  0.2758
 1634W        W17818  15.027  11.684  13.193  0.1540  0.2014  0.1761
 1635W        W17819   9.056   0.137   4.976 -0.0468 -0.0237 -0.0873
 1636W        W17820  15.064   0.242   0.718 -0.0531  0.2311  0.0840
 1637W        W17821   1.450   6.338   2.216  0.1772 -0.1299  0.1942
 1638W        W17822  16.423   6.040   2.027  0.2864 -0.1189  0.0846
 1639W        W17823   0.832  17.256  14.651  0.0134  0.1563 -0.0489
 1640W        W17824   0.840  16.363   2.814 -0.2021  0.1482 -0.1925
 1641W        W17825   3.006   7.829  14.363  0.2137  0.0144  0.4710
 1642W        W17826   0.198   3.088   2.721  0.0749  0.2351  0.0005
 1643W        W17827   7.621  14.082   2.316 -0.0570  0.1129 -0.1779
 1644W        W17828  13.832  10.814  14.188 -0.0646  0.1989 -0.0860
 1645W        W17829   8.153  14.274   1.291  0.0772  0.2140 -0.0027
 1646W        W17830   5.770   6.641  15.567 -0.1348  0.0243 -0.0241
 1647W        W17831   0.158   9.788  15.503 -0.2350  0.3299  0.1039
 1648W        W17832   3.433   6.388   2.847  0.2204 -0.6765 -0.0090
 1649W        W17833  10.050   8.156  11.958 -0.0335 -0.1159  0.1375
 1650W        W17834  17.322   5.775   3.110  0.3104 -0.0059  0.3883
 1651W        W17835   8.490   1.267  13.719 -0.0637 -0.0889  0.1252
 1652W        W17836   7.396  16.668   0.050  0.0171 -0.2209  0.3881
 1653W        W17837   9.412  14.921   2.400 -0.1434  0.1931 -0.1867
 1654W        W17838  17.357   6.132   1.815 -0.0902 -0.2431  0.4364
 1655W        W17839  15.062   2.501   2.022  0.1403 -0.1854 -0.0100
 1656W        W17840  16.158   4.521  15.284  0.2600 -0.1366 -0.0325
 1657W        W17841  15.865   0.872  14.309 -0.1557  0.2246 -0.3019
 1658W        W17842   1.172  16.829   6.472 -0.0259  0.0898  0.2157
 1659W        W17843   1.774  16.063   4.223  0.3526 -0.3016  0.0069
 1660W        W17844   6.732  11.650  12.939 -0.1147 -0.1562 -0.2539
 1661W        W17845   6.931   5.857   2.670 -0.0836 -0.2655 -0.0790
 1662W        W17846  17.242   8.791   1.205 -0.2909 -0.1446  0.0928
 1663W        W17847  14.784   5.565  12.601 -0.2849 -0.0355  0.3206
 1664W        W17848  14.308   4.657  14.906  0.0842  0.0523 -0.2048
 1665W        W17849   4.487   9.033   2.279 -0.1288  0.2859  0.1620
 1666W        W17850   9.041  11.255  14.732 -0.1516 -0.2255  0.1040
 1667W        W17851   3.055   5.148   2.062 -0.1209 -0.0115 -0.1878
 1668W        W17852   0.567   5.156   5.463 -0.0503 -0.1755  0.1000
 1669W        W17853  13.519   9.106  13.779  0.0033 -0.2235 -0.0428
 1670W        W17854   3.261  11.847   3.457 -0.1227 -0.2391  0.3392
 1671W        W17855  10.014   4.202   0.195  0.4130 -0.1623 -0.1863
 1672W        W17856  11.929   1.393  14.655 -0.0021 -0.1363 -0.0167
 1673W        W17857  12.269   0.711   4.449  0.3563  0.0343 -0.1078
 1674W        W17858   3.766  11.061   4.324 -0.0480  0.0573  0.0484
 1675W        W17859  10.553   3.540  14.805 -0.0193  0.0515 -0.0275
 1676W        W17860   2.729  16.271   2.202  0.1468  0.0136 -0.0351
 1677W        W17861   5.189  10.863  16.009  0.0263 -0.0148 -0.2196
 1678W        W17862   4.987  11.494  13.060  0.1781  0.0153 -0.1471
 1679W        W17863  11.618  13.821   3.967  0.0008 -0.0070  0.3153
 1680W        W17864   3.646  11.546   3.579  0.1309 -0.3933 -0.2212
 1681W        W17865  16.520   3.922   4.246  0.1036  0.0649  0.0873
 1682W        W17866   2.552  14.107   5.613  0.1855  0.2599 -0.0626
 1683W        W17867  11.070  13.762  10.641 -0.2914 -0.2255 -0.0474
 1684W        W17868  16.021   7.247  16.462  0.2153  0.0993 -0.0479
 1685W        W17869   5.899   4.976  16.084  0.3549  0.0495 -0.0443
 1686W        W17870  16.568  11.663  13.913  0.4077 -0.2614  0.1319
 1687W        W17871   3.275   5.598  12.590 -0.1726  0.0389  0.0925
 1688W        W17872   3.472   6.298  12.786 -0.2887 -0.3443  0.0424
 1689W        W17873  10.066   4.232  13.145  0.0746  0.1190  0.1526
 1690W        W17874  16.758   8.325   0.925 -0.3305 -0.1575 -0.0671
 1691W        W17875  11.338   5.232  12.152 -0.0371  0.0841 -0.4494
 1692W        W17876  13.905  17.298  15.165 -0.0671  0.1615 -0.1959
 1693W        W17877   5.698   2.357  13.168  0.0439 -0.3527  0.1648
 1694W        W17878   6.068   7.853  15.096  0.0595  0.1232  0.1988
 1695W        W17879  12.707   4.798  10.417 -0.2951 -0.0353  0.2600
 1696W        W17880   3.505  12.278   3.705  0.2442 -0.0720 -0.2469
 1697W        W17881   7.724   7.391   5.895  0.0837 -0.2450 -0.2565
 1698W        W17882  10.692  12.201   4.507 -0.1932 -0.0345  0.2430
 1699W        W17883   0.769  12.525   2.258  0.2986  0.1414 -0.1839
 1700W        W17884  15.897  12.713   2.043  0.0511  0.2346 -0.4113
 1701W        W17885   4.438   9.906   4.938 -0.1255 -0.2215 -0.3186
 1702W        W17886   7.888   1.802   5.811 -0.2497 -0.0168  0.3146
 1703W        W17887  12.798   2.203   0.031 -0.2252  0.0044  0.2783
 1704W        W17888   1.574  12.067  11.414 -0.1546  0.0422  0.3576
 1705W        W17889  11.087   0.669   0.239  0.1594 -0.5119  0.1446
 1706W        W17890   2.768   6.125  16.639  0.0901  0.0688  0.0463
 1707W        W17891   9.599  12.067  16.106 -0.1027  0.0837 -0.0105
 1708W        W17892  13.158   5.728  15.869 -0.0237  0.1775 -0.1326
 1709W        W17893  17.340   3.245   1.106  0.0929  0.2007 -0.1493
 1710W        W17894   9.622  10.191  12.852 -0.0817 -0.0302  0.1008
 1711W        W17895  15.138   7.341   2.767 -0.1386 -0.0912  0.1358
 1712W        W17896  14.998  17.135   4.994  0.1786  0.2642 -0.1599
 1713W        W17897   6.100  10.861   3.353 -0.0098  0.2032  0.1314
 1714W        W17898   7.205  15.597   0.025 -0.1885 -0.3233 -0.0824
 1715W        W17899   8.107   3.586   0.156  0.2172 -0.2935  0.1355
 1716W        W17900   3.200   2.945   5.728 -0.1379  0.4326 -0.0090
 1717W        W17901   9.465   7.404  16.875 -0.0655  0.0277 -0.0824
 1718W        W17902   6.134   6.885  16.802 -0.1260 -0.1714 -0.1224
 1719W        W17903  12.862  10.175   1.202 -0.1018  0.1619  0.0514
 1720W        W17904   8.160   0.854   2.286  0.3495 -0.0031 -0.0912
 1721W        W17905  13.462   3.992  14.831 -0.2555 -0.0516  0.0089
 1722W        W17906  12.954  13.011   1.655  0.2079 -0.4050  0.0232
 1723W        W17907  11.160   8.958   4.799 -0.2050  0.2894  0.2317
 1724W        W17908  12.242  17.420  12.422  0.0277 -0.0778 -0.0340
 1725W        W17909   0.403   6.253   3.535  0.2152  0.0846  0.0740
 1726W        W17910  11.718  16.453   3.022  0.0464  0.0411  0.2357
 1727W        W17911   6.997  13.443   1.374  0.1262 -0.3426 -0.0899
 1728W        W17912   9.182  16.999  13.804  0.1015 -0.2049  0.0686
 1729W        W17913  16.914   2.625   1.046 -0.2158 -0.2079 -0.2638
 1730W        W17914   0.624  15.974  12.235 -0.1647  0.1348  0.5153
 1731W        W17915  12.061   6.532  11.785 -0.0766 -0.2309  0.0003
 1732W        W17916  16.652   9.900  13.380  0.0262  0.0237 -0.2687
 1733W        W17917   9.508   4.254   1.009  0.1443  0.0672 -0.3493
 1734W        W17918   0.841  14.541  12.933 -0.2275  0.0958 -0.1978
 1735W        W17919   6.451   4.531   1.968  0.1223 -0.6769 -0.3367
 1736W        W17920   7.078   5.681   4.155  0.0602 -0.2035  0.1368
 1737W        W17921  12.063  11.325  16.678 -0.1315 -0.0562 -0.0529
 1738W        W17922   0.623  15.298  12.860  0.0930 -0.0057 -0.1366
 1739W        W17923   2.343   1.754  13.135  0.0643  0.1750  0.0816
 1740W        W17924  15.447   5.692  14.655  0.3881 -0.2151 -0.3666
 1741W        W17925   1.806  16.733   1.670 -0.0874 -0.2277 -0.1209
 1742W        W17926   1.196  16.789  14.548  0.0271  0.0016 -0.1659
 1743W        W17927   4.153   3.423  11.878 -0.0734 -0.0698 -0.2512
 1744W        W17928   4.220   5.373  13.687  0.0567 -0.4055  0.4939
 1745W        W17929  12.266  14.031   0.883  0.0579  0.0675 -0.2404
 1746W        W17930  17.723   3.425  12.960 -0.2119  0.0789 -0.1245
 1747W        W17931   9.094   8.414   1.343 -0.2172  0.2356  0.2261
 1748W        W17932  14.485   5.323   0.703 -0.0499 -0.1966  0.0063
 1749W        W17933  16.451  13.631   1.407 -0.0245  0.1618 -0.3484
 1750W        W17934  14.869  12.392   4.716  0.0760  0.2298  0.0942
 1751W        W17935   8.969   5.538  15.555 -0.3460  0.0854  0.6194
 1752W        W17936  10.039  16.083   6.088  0.0490 -0.0182  0.1901
 1753W        W17937  16.100  14.717   0.139  0.3020  0.1634  0.1075
 1754W        W17938   1.920  16.675   4.545  0.0327 -0.1016 -0.1336
 1755W        W17939   4.584   5.291   0.780 -0.1300  0.0996  0.0647
 1756W        W17940  12.093  11.765  12.601 -0.0696  0.2019  0.0437
 1757W        W17941   5.066  16.689  10.858  0.0160 -0.3993  0.2698
 1758W        W17942  16.199   6.785  16.735  0.0799  0.1445  0.1085
 1759W        W17943   6.132  11.915  15.291  0.1827  0.2014  0.0195
 1760W        W17944   7.916   2.688   0.444 -0.1417  0.1457 -0.0974
 1761W        W17945  13.223  12.581  13.500  0.1013  0.0495 -0.3054
 1762W        W17946  16.623   5.099   2.479  0.0223 -0.2431 -0.0964
 1763W        W17947   2.040  16.169   3.798  0.0504 -0.0201 -0.0979
 1764W        W17948  14.856   3.358   2.124  0.0106  0.0419  0.1061
 1765W        W17949   3.557  10.919   1.626 -0.2047  0.0234 -0.1969
 1766W        W17950  10.740  10.325  16.641 -0.2022 -0.3057 -0.0734
 1767W        W17951   2.672  17.729  13.458 -0.0435  0.2051 -0.1677
 1768W        W17952  12.240   8.798  11.827 -0.1443 -0.0912  0.1926
 1769W        W17953  13.983   0.784  11.814  0.1219 -0.1695 -0.4436
 1770W        W17954  13.349   9.907  12.091  0.4144  0.1151  0.0836
 1771W        W17955   9.265  13.072  16.029 -0.1214 -0.3006  0.1981
 1772W        W17956  13.389  15.049   3.678 -0.1510 -0.4351 -0.0932
 1773W        W17957   5.606  16.046  14.541 -0.0679  0.0756 -0.0790
 1774W        W17958  15.512   6.391  14.538  0.0212 -0.0930 -0.1137
 1775W        W17959  15.422   1.905  14.407 -0.1577 -0.2657 -0.0837
 1776W        W17960   6.054   0.918   0.143  0.1045  0.1892  0.0100
 1777W        W17961  12.771   5.610  11.712 -0.3224 -0.2137 -0.0982
 1778W        W17962  17.347   4.520  15.301 -0.1005  0.2230  0.2472
 1779W        W17963   4.109  12.757  10.354  0.1538  0.1432 -0.0121
 1780W        W17964  16.423  17.799  13.130 -0.2414 -0.0919 -0.1767
 1781W        W17965   4.768  11.628   2.436 -0.0524 -0.2264 -0.0691
 1782W        W17966   1.500   6.997  15.876 -0.1577 -0.0049 -0.1314
 1783W        W17967   4.458   0.274   5.791  0.0862  0.1711 -0.0481
 1784W        W17968  12.199  11.777  13.986  0.0618 -0.0428 -0.1750
 1785W        W17969  17.157  12.428  12.915  0.3181 -0.2287  0.0313
 1786W        W17970  10.104   2.444  13.973 -0.1916 -0.0068  0.2585
 1787W        W17971   6.029  17.040   5.522  0.0114 -0.0088 -0.2438
 1788W        W17972   8.482   6.625   1.490  0.0305  0.0131  0.1862
 1789W        W17973  12.090  11.836  15.511  0.1551 -0.0642  0.0488
 1790W        W17974  11.366  15.605   3.249 -0.0594 -0.1036  0.0515
 1791W        W17975   8.758   2.195   4.962 -0.1764  0.0466  0.0010
 1792W        W17976  13.486   1.485  13.826 -0.1873 -0.0178  0.2248
 1793W        W17977  14.111  13.085  12.294 -0.0278  0.0418  0.1417
 1794W        W17978   3.292   6.275   1.857 -0.2279  0.0448 -0.2848
 1795W        W17979  15.787  13.938  16.792  0.0932 -0.1278  0.0768
 1796W        W17980   1.790   5.684  12.308  0.0936 -0.2108  0.0790
 1797W        W17981  16.966  17.789   4.199  0.4330 -0.0562 -0.0496
 1798W        W17982  17.494   1.429   1.650  0.0583 -0.0986  0.0403
 1799W        W17983  13.650  16.441  11.631 -0.0196  0.2743  0.1055
 1800W        W17984   1.243  16.002   4.985  0.0299 -0.1200 -0.4430
 1801W        W17985   9.528   0.316  14.916  0.1840  0.1875 -0.3142
 1802W        W17986  11.484  13.889   3.074  0.0108  0.0480 -0.0915
 1803W        W17987   3.792  13.092   0.877  0.1831  0.0536 -0.1158
 1804W        W17988  14.354   5.207  15.091 -0.3564  0.1395  0.0987
 1805W        W17989   2.520  10.663   2.292 -0.3567 -0.2415  0.1828
 1806W        W17990   7.259   7.693   3.685  0.2232  0.0323 -0.1930
 1807W        W17991  13.210   1.266  11.939 -0.0388  0.0053  0.0374
 1808W        W17992   0.067  14.020  11.734 -0.0521 -0.3303 -0.2812
 1809W        W17993  16.357   2.706  11.938 -0.0472  0.1530 -0.1004
 1810W        W17994  14.129   9.802  16.541 -0.2513 -0.0638 -0.0104
 1811W        W17995   5.680   8.226  14.712 -0.1633  0.4064 -0.2920
 1812W        W17996   5.231  16.004   5.544 -0.0423 -0.1586  0.1312
 1813W        W17997  10.490   0.452  14.748 -0.0219 -0.2474 -0.0821
 1814W        W17998   1.218   0.747   0.127  0.0277  0.2046 -0.1156
 1815W        W17999   9.793  11.174   2.095 -0.1274 -0.1259  0.0068
 1816W        W18000  15.622   4.592   5.792  0.0422  0.0309  0.1460
 1817W        W18001   4.956   2.268  14.778 -0.0867  0.1759 -0.0225
 1818W        W18002  14.466  10.800   4.320 -0.0436  0.1470  0.1313
 1819W        W18003   0.122  14.459   4.342 -0.0345 -0.3127 -0.0510
 1820W        W18004   4.758   0.026   5.477 -0.0293  0.1817  0.0482
 1821W        W18005   7.862   3.524  16.547 -0.0559 -0.0520 -0.0685
 1822W        W18006   2.231   7.328   4.636  0.0313 -0.0769  0.0738
 1823W        W18007   5.524   6.377   6.064  0.1247 -0.2525  0.2482
 1824W        W18008  13.245   8.777   4.330 -0.0199  0.2021 -0.1427
 1825W        W18009  14.229   6.335  16.271  0.0951  0.1959  0.0076
 1826W        W18010   4.852  16.022   6.400 -0.4243  0.1336  0.1283
 1827W        W18011   0.324   7.149   3.738 -0.4388  0.1620 -0.0369
 1828W        W18012  17.128   2.868   5.433 -0.2400  0.4658  0.2436
 1829W        W18013  12.298  15.146   3.392  0.3061  0.0481 -0.2650
 1830W        W18014  14.710  12.357   2.961  0.1948 -0.4578  0.2445
 1831W        W18015   5.496   8.581   5.025  0.2439  0.0394 -0.0306
 1832W        W18016   7.879  15.056  13.623  0.1418  0.0265 -0.0949
 1833W        W18017   8.509  15.759   0.819 -0.3096 -0.1671 -0.2012
 1834W        W18018  10.764   4.802   2.467 -0.1169  0.2225  0.0072
 1835W        W18019   3.805   0.335  16.638 -0.2047  0.0601 -0.0630
 1836W        W18020   0.678  11.857   5.169 -0.0709 -0.0825 -0.1288
 1837W        W18021   0.264   2.629  14.905 -0.0436 -0.0509  0.0228
 1838W        W18022  10.559  17.249   3.374  0.2518 -0.1071 -0.1347
 1839W        W18023  10.846  16.844   0.170 -0.5257  0.0874 -0.0353
 1840W        W18024   5.352   5.546   4.991 -0.0853  0.0423  0.3074
 1841W        W18025   7.096   2.342   1.308 -0.1475 -0.1939  0.1992
 1842W        W18026  12.714   7.001  11.941  0.0436  0.0961 -0.0779
 1843W        W18027   3.268   7.294  15.579 -0.3703 -0.1040  0.1126
 1844W        W18028   0.980   3.479  13.996 -0.0154 -0.0122 -0.1731
 1845W        W18029  13.101   9.222   4.955 -0.1790 -0.0623  0.2637
 1846W        W18030   6.776   4.569   0.975  0.0080  0.2865  0.3785
 1847W        W18031  13.858   6.795  16.313 -0.1139 -0.0054  0.1541
 1848W        W18032   9.210  10.858   1.804  0.1739 -0.0812 -0.1024
 1849W        W18033  11.057   6.512  12.903 -0.1987  0.2645  0.3254
 1850W        W18034   1.189   9.531  13.395  0.1583 -0.1284  0.1630
 1851W        W18035  10.623   8.283  12.190  0.1594  0.1780 -0.0383
 1852W        W18036   9.545  12.385   1.581  0.1631 -0.1763  0.2724
 1853W        W18037  12.117  15.734   5.054 -0.0700  0.2840  0.0316
 1854W        W18038  13.930  16.727   5.089  0.1110 -0.1101 -0.0908
 1855W        W18039   3.773   0.172   2.338 -0.4249  0.0274  0.1399
 1856W        W18040   4.515   9.685  13.423 -0.2333 -0.2196 -0.0711
 1857W        W18041   3.154   1.518   0.807  0.0151  0.2663 -0.0591
 1858W        W18042   4.709   3.998  12.908  0.3666 -0.0358 -0.2194
 1859W        W18043   1.296   6.113   4.002 -0.1293  0.2736  0.1719
 1860W        W18044  15.174   7.021   5.241 -0.1919  0.1860  0.0239
 1861W        W18045  10.411  12.383  12.280  0.1051  0.0263 -0.0111
 1862W        W18046   6.639   5.927  13.172 -0.1068 -0.1539  0.1598
 1863W        W18047   6.868  12.085  14.733 -0.2151 -0.3774 -0.1274
 1864W        W18048   0.851   7.831   4.038 -0.0067  0.2955  0.1934
 1865W        W18049   1.854   4.289   3.867  0.2631 -0.2007  0.0073
 1866W        W18050   8.239  11.051  15.875  0.0433  0.2710 -0.0690
 1867W        W18051   8.272   2.370   4.904 -0.1143  0.1755 -0.2054
 1868W        W18052  10.188   5.783  12.597 -0.4188  0.0234  0.2002
 1869W        W18053   7.830  14.107   3.629 -0.0493 -0.0542 -0.1117
 1870W        W18054  11.254  13.255   5.461 -0.1209  0.0969  0.1326
 1871W        W18055   3.639   1.343  11.366 -0.0868 -0.0232 -0.0833
 1872W        W18056  14.856   5.114  15.168 -0.1059  0.0523 -0.2578
 1873W        W18057  12.679   1.305  13.484 -0.0492 -0.1088 -0.0971
 1874W        W18058   8.921   1.719   0.557  0.2870 -0.1349  0.1879
 1875W        W18059   5.584   5.111  15.692  0.0905  0.0615  0.1117
 1876W        W18060  14.024  15.601  16.875  0.2068  0.1539  0.1064
 1877W        W18061   4.950  11.864   3.977 -0.1647  0.2962 -0.3135
 1878W        W18062   8.045   4.209   2.445  0.2814 -0.0533 -0.3230
 1879W        W18063   0.218  16.797   0.368  0.0790 -0.2295  0.0670
 1880W        W18064   3.410  10.695  13.942 -0.1482  0.1258  0.0606
 1881W        W18065   0.767  16.912   5.280  0.1541 -0.1920 -0.0915
 1882W        W18066   7.999   1.586  13.866  0.0502  0.3378  0.0130
 1883W        W18067  14.713  17.467   3.142  0.0869  0.0520  0.0099
 1884W        W18068   4.363   7.386  11.795  0.2957  0.3401  0.2885
 1885W        W18069  12.014   6.921   3.098 -0.1506  0.0693 -0.2252
 1886W        W18070   0.438   5.323  11.155 -0.1125  0.0742 -0.1737
 1887W        W18071   1.282   4.288   4.341  0.1517 -0.1500 -0.1343
 1888W        W18072  13.640  14.088  15.706  0.0125  0.0413  0.0888
 1889W        W18073   3.291   8.267   0.852 -0.0692  0.0150  0.0327
 1890W        W18074   9.482   4.542  13.759 -0.0738  0.0901  0.0918
 1891W        W18075   2.637   8.861  16.418  0.1100 -0.2267 -0.0273
 1892W        W18076   4.063   2.807   4.302 -0.0188  0.0062  0.0284
 1893W        W18077   2.080  13.743   1.789  0.0067  0.2739  0.0595
 1894W        W18078  13.789  13.917  16.402 -0.2566  0.0121  0.1738
 1895W        W18079   7.690   2.552  12.679 -0.2105  0.0171  0.0660
 1896W        W18080   8.803   4.293   3.434  0.0785 -0.1422 -0.0752
 1897W        W18081   4.646   8.557  14.968  0.2497 -0.2705 -0.1390
 1898W        W18082  11.467   2.342   5.641 -0.0232  0.0890  0.0966
 1899W        W18083  13.937   7.303   5.886 -0.0848  0.3348 -0.0831
 1900W        W18084  17.868  17.032   2.890 -0.2083  0.1454  0.2433
 1901W        W18085   9.907   8.991  15.005  0.3453  0.1634 -0.1420
 1902W        W18086   9.583  15.275   2.005 -0.1569 -0.0804 -0.3402
 1903W        W18087   1.295   1.193  15.332 -0.3492 -0.1667 -0.2819
 1904W        W18088  15.546  10.116   0.493  0.0178  0.3585 -0.1916
 1905W        W18089  17.387   6.351  15.856 -0.2768 -0.1117  0.1142
 1906W        W18090  10.830  17.565   5.458  0.0906  0.0427  0.1875
 1907W        W18091   9.490  11.024   1.055  0.0236  0.1089 -0.1058
 1908W        W18092  17.357  12.226  15.500  0.0962 -0.2225  0.0525
 1909W        W18093   3.487  12.687  12.212 -0.0005  0.0491  0.0367
 1910W        W18094   2.572  15.991  13.701  0.0761  0.1333  0.1571
 1911W        W18095  12.637   5.774   1.960  0.2095 -0.2054  0.3170
 1912W        W18096  11.914   6.622  15.135  0.0567  0.0443 -0.1952
 1913W        W18097  13.284  11.933  16.278  0.0069 -0.1037  0.0354
 1914W        W18098   8.748  10.253   3.735  0.0829 -0.2022 -0.0828
 1915W        W18099   9.574   2.404  11.936 -0.2910 -0.0102 -0.1289
 1916W        W18100   8.707   9.391   0.946 -0.0782 -0.0621 -0.1335
 1917W        W18101   7.017   1.798   1.392 -0.0034  0.2499 -0.1495
 1918W        W18102   8.604   0.015   1.882 -0.2914  0.4921  0.0616
 1919W        W18103  16.433   2.957  12.438  0.0029 -0.0570 -0.0953
 1920W        W18104   2.895  12.563   4.036 -0.1174  0.1044 -0.0204
 1921W        W18105   1.793   7.804  13.480 -0.1949  0.3369 -0.2710
 1922W        W18106   7.568  12.781  15.603  0.1392  0.0135  0.1722
 1923W        W18107   0.378  14.757  15.675  0.1613 -0.1076  0.1999
 1924W        W18108   1.399  13.977  14.923 -0.0317  0.0567 -0.1272
 1925W        W18109  17.379  15.104   4.202 -0.4311  0.2922 -0.0725
 1926W        W18110   5.275   5.529  12.384 -0.1582 -0.0898  0.0464
 1927W        W18111  11.915  13.247   0.811 -0.0799  0.1258 -0.1543
 1928W        W18112  10.433  15.191   5.664 -0.1690 -0.1268  0.3140
 1929W        W18113  11.535  15.121  13.091 -0.2678 -0.0056  0.1188
 1930W        W18114  11.383  11.410   6.288  0.3234  0.0992  0.0225
 1931W        W18115   4.318   9.086  16.090 -0.0517 -0.0596 -0.2062
 1932W        W18116   6.036   0.293  13.118 -0.3072 -0.1488  0.3076
 1933W        W18117  14.798  17.159  11.885  0.0041  0.0885 -0.2215
 1934W        W18118   1.889  14.020   4.996  0.2133 -0.1421  0.1082
 1935W        W18119   8.649  15.391  15.152  0.0735 -0.0029 -0.0817
 1936W        W18120   9.048  16.304   0.307 -0.1518 -0.2779 -0.0645
 1937W        W18121   1.152  13.387   2.525 -0.0737  0.0149  0.3709
 1938W        W18122  15.515   6.803  11.932 -0.1737 -0.1681  0.2068
 1939W        W18123   2.503  13.607  15.063 -0.1957  0.4059  0.2232
 1940W        W18124   8.475   7.290  12.405  0.1534  0.1415  0.1910
 1941W        W18125   1.220   3.195   2.436  0.0583 -0.0274 -0.0308
 1942W        W18126  13.084   1.607  13.498 -0.1787 -0.3231 -0.0706
 1943W        W18127   1.469  13.844  14.438 -0.1069  0.0745 -0.1688
 1944W        W18128   8.829  10.122  12.499  0.0843  0.1110 -0.1344
 1945W        W18129  13.971  14.956   2.745 -0.1497  0.0508 -0.0035
 1946W        W18130   4.586  10.240  13.465 -0.0601 -0.0055 -0.3645
 1947W        W18131  15.326  17.385  13.308  0.3864 -0.2379 -0.2779
 1948W        W18132  15.913  12.079  13.614 -0.2350 -0.2339 -0.1725
 1949W        W18133  13.560   5.322   5.342 -0.1248 -0.1610  0.1019
 1950W        W18134   7.846   6.271  13.389 -0.1637  0.0511 -0.3626
 1951W        W18135  17.214   6.940   4.818 -0.0237 -0.1693 -0.0987
 1952W        W18136   7.596  11.370   5.296  0.0231  0.3236  0.0500
 1953W        W18137  14.470   5.504  16.670  0.0571  0.0417  0.1190
 1954W        W18138   3.713   7.043   6.311  0.5282  0.0946 -0.2109
 1955W        W18139  17.660  14.850  12.048  0.0886  0.0011  0.1947
 1956W        W18140  11.687  10.619   4.333  0.1326  0.1564  0.0011
 1957W        W18141   3.807  10.436   0.099  0.3626 -0.2446  0.0173
 1958W        W18142   2.396  12.918  15.845 -0.2014  0.1015 -0.0259
 1959W        W18143   3.906  14.284  13.225  0.3690 -0.2027 -0.1076
 1960W        W18144   1.204   5.273   1.085  0.0633 -0.1311 -0.3097
 1961W        W18145   7.643  13.538  12.130 -0.0337 -0.2043 -0.0285
 1962W        W18146   9.344   8.310  14.694  0.0163 -0.0705 -0.1952
 1963W        W18147   1.723  10.572   5.468 -0.0873  0.0802 -0.1295
 1964W        W18148  10.868   2.748   0.830 -0.0758 -0.0223 -0.4339
 1965W        W18149   1.357   9.544  12.271  0.0783  0.0995  0.1078
 1966W        W18150   6.079   9.339  15.341  0.1827 -0.0027  0.2519
 1967W        W18151   5.016  16.715  16.421  0.2496 -0.2030  0.0539
 1968W        W18152  11.359  15.375   0.508  0.2207 -0.0437  0.2366
 1969W        W18153   7.628   3.375  13.022 -0.2671  0.0889  0.0943
 1970W        W18154   0.220   1.970   4.002  0.0940  0.1935  0.1955
 1971W        W18155   7.182   3.637   3.361  0.0545 -0.0308 -0.0273
 1972W        W18156   8.917   9.066   5.018  0.0275 -0.2393  0.0660
 1973W        W18157  15.408  11.300   5.973 -0.1492 -0.1142 -0.4198
 1974W        W18158   2.930   2.076   0.247  0.2157 -0.1736 -0.1540
 1975W        W18159   0.980  13.786   3.903  0.2293  0.0720  0.0858
 1976W        W18160  13.990  14.766  11.772 -0.0431 -0.1281  0.1594
 1977W        W18161   2.757  16.883  12.162 -0.0702  0.2096 -0.1605
 1978W        W18162   5.164   1.010  14.339  0.0750  0.1394  0.6100
 1979W        W18163  13.213  10.850   4.244  0.0867 -0.0765  0.2546
 1980W        W18164   9.769  17.681  13.408  0.0050  0.0954 -0.0980
 1981W        W18165   9.182   1.669   2.469 -0.0961 -0.2556 -0.1491
 1982W        W18166   6.584  15.352   0.214  0.3247 -0.0870 -0.1255
 1983W        W18167  16.690   4.256   2.369 -0.1385  0.1261 -0.2068
 1984W        W18168   7.225  11.924   1.148 -0.2262  0.2685  0.2796
 1985W        W18169  12.961   6.962   4.691  0.1602 -0.1296  0.1350
 1986W        W18170  16.898  16.209   5.806 -0.0519 -0.0048 -0.0464
 1987W        W18171   1.425   8.138  13.721  0.3411  0.1649 -0.0211
 1988W        W18172  14.664  13.555   5.162  0.2541 -0.1711 -0.2221
 1989W        W18173  14.943  10.491   2.776 -0.1061  0.2393  0.1515
 1990W        W18174  16.473   4.977  11.844  0.3996 -0.3731 -0.3602
 1991W        W18175   7.375   2.902  12.888  0.1499  0.2580 -0.1115
 1992W        W18176   0.549   7.678   2.378 -0.0748  0.3678  0.1780
 1993W        W18177   8.672   3.773   6.546 -0.1548  0.0448 -0.0288
 1994W        W18178  15.262  12.881  12.608  0.0942  0.1993  0.0096
 1995W        W18179  16.474  13.954  15.151  0.0684 -0.0545 -0.0204
 1996W        W18180   2.820  13.858   3.900  0.1571 -0.2592  0.1946
 1997W        W18181  16.490  13.357  15.785  0.1474 -0.0333 -0.0315
 1998W        W18182  17.093   1.516   0.870  0.0514 -0.0397 -0.0297
 1999W        W18183   8.922   6.941  13.758  0.1368  0.0548  0.0088
 2000W        W18184   6.583  14.917  15.810  0.0578  0.2774  0.1101
 2001W        W18185   6.718   6.242   3.880 -0.4061 -0.0439 -0.1751
 2002W        W18186   2.060  13.100  13.540 -0.0100  0.1896 -0.3085
 2003W        W18187  16.107   6.241  15.786  0.0102  0.0356  0.2643
 2004W        W18188  13.479   4.600  14.074 -0.1764 -0.1043  0.1132
 2005W        W18189  17.883  14.624  16.239 -0.2624  0.3023 -0.0863
 2006W        W18190   2.971   9.372   4.476  0.1382 -0.2550 -0.0830
 2007W        W18191   5.860   1.351   0.297 -0.0424  0.0257 -0.0467
 2008W        W18192   9.984  14.877  11.677  0.1014  0.0314  0.1084
 2009W        W18193   5.710   1.651   1.183  0.1074  0.1327  0.2230
 2010W        W18194  16.226  14.520  15.066 -0.1366  0.0814 -0.0516
 2011W        W18195   6.905   6.953  14.567 -0.0536  0.1205  0.0539
 2012W        W18196   7.170  16.542  11.910  0.1457 -0.0120  0.4375
 2013W        W18197  17.355  13.684   3.940 -0.0721  0.1039 -0.2117
 2014W        W18198   0.691   0.042   1.338 -0.0937  0.0799  0.1995
 2015W        W18199   9.832   9.216   0.766  0.0529  0.0751  0.0278
 2016W        W18200   6.974  14.994   0.136 -0.3275  0.2827  0.1212
 2017W        W18201  13.962   1.154  12.249  0.0786 -0.0227  0.0024
 2018W        W18202   5.252  14.772   2.804  0.0846 -0.1188  0.0099
 2019W        W18203   8.607   8.290   1.561  0.1631  0.0028 -0.2580
 2020W        W18204  17.433  10.348  16.702  0.1199 -0.0562  0.0688
 2021W        W18205  17.339   5.754   0.639 -0.0429  0.2161 -0.2614
 2022W        W18206  13.185   1.771  12.089  0.2280 -0.0308  0.0905
 2023W        W18207   4.877   7.452   1.594 -0.1283  0.2215 -0.0170
 2024W        W18208   4.043   4.112  13.486 -0.1472  0.2586  0.1366
 2025W        W18209   7.263   9.429   5.300 -0.4570  0.1051 -0.1714
 2026W        W18210   0.588   3.295   3.017 -0.2129  0.3819 -0.2089
 2027W        W18211   8.959  12.401   3.276  0.0732  0.2335  0.3104
 2028W        W18212  11.359   6.844   5.392  0.2842  0.2284 -0.1138
 2029W        W18213  14.619  10.310   1.094  0.1755 -0.0825 -0.1901
 2030W        W18214   2.840  17.527  14.839 -0.2907 -0.0628  0.2055
 2031W        W18215   9.665  12.277   1.109 -0.0387  0.0772  0.0278
 2032W        W18216  12.358   8.448   3.328 -0.1377  0.0706 -0.0245
 2033W        W18217  14.803  11.380  16.655  0.1282  0.1125 -0.1314
 2034W        W18218   9.247  12.181  12.411 -0.2041  0.0717  0.1070
 2035W        W18219  13.649  12.888   0.991 -0.2114 -0.0644  0.2738
 2036W        W18220  14.824  11.059  12.777 -0.1512  0.2607  0.2308
 2037W        W18221  15.040   1.865  15.582  0.0385  0.2679  0.1885
 2038W        W18222  17.582  17.080   4.462 -0.1116  0.0960 -0.0508
 2039W        W18223   2.533   6.594  13.882 -0.1385 -0.0516 -0.1250
 2040W        W18224  11.119   4.562  15.474 -0.0250  0.0384  0.1257
 2041W        W18225   1.810   4.870   3.723  0.0424 -0.2574 -0.1120
 2042W        W18226   4.597  17.488   4.700 -0.1062  0.1338 -0.1276
 2043W        W18227   9.710   0.987   0.489  0.2537  0.0427 -0.0933
 2044W        W18228  14.902   5.196   2.974 -0.4003  0.0861  0.1685
 2045W        W18229   7.142  10.835   0.128 -0.0568  0.1112  0.1446
 2046W        W18230   4.215  11.812  14.780 -0.1666 -0.2797  0.0934
 2047W        W18231   3.720  17.497   5.371  0.1431  0.0696 -0.2300
 2048W        W18232   2.188   5.429  16.640 -0.0707 -0.0265 -0.1584
 2049W        W18233  15.188  11.934  15.100  0.2138  0.2776 -0.0346
 2050W        W18234   4.455  11.291   3.742  0.1764 -0.0509 -0.0390
 2051W        W18235  15.980   2.005  14.579  0.2750 -0.0951 -0.2306
 2052W        W18236   1.839  11.078  12.614 -0.0344 -0.1884  0.1983
 2053W        W18237  12.151   0.041  12.224  0.0169  0.0034 -0.4379
 2054W        W18238  11.173  16.500   4.180  0.0613 -0.1158  0.2424
 2055W        W18239   3.933  10.410   4.444  0.0336  0.0053 -0.1536
 2056W        W18240   7.889   2.927  13.030  0.1314 -0.2520  0.2591
 2057W        W18241   7.665  14.572   5.235 -0.1772 -0.0236 -0.0129
 2058W        W18242   1.612   3.982  12.090 -0.0135  0.2706 -0.1549
 2059W        W18243   1.415   7.902  13.150 -0.0530  0.0322  0.2102
 2060W        W18244   0.989  14.253  14.822 -0.3123  0.1180 -0.1394
 2061W        W18245  11.852   2.483   1.503  0.1652  0.3276  0.0255
 2062W        W18246  14.212  13.365  15.326  0.0636  0.0349  0.2396
 2063W        W18247   0.455  11.548   2.396 -0.1719  0.0820 -0.0208
 2064W        W18248   5.525   2.889   3.845  0.2895 -0.4002  0.1340
 2065W        W18249   6.812   8.240   4.544 -0.1684 -0.0001  0.3436
 2066W        W18250   3.632   1.778  15.650 -0.0471  0.2208  0.0334
 2067W        W18251   6.516  13.444   0.278 -0.2150  0.2207 -0.1078
 2068W        W18252   3.442   4.413   3.383  0.3040 -0.1464  0.1500
 2069W        W18253   6.377  17.092  13.558  0.1333 -0.2025 -0.0117
 2070W        W18254   2.125  15.009  16.633  0.1239 -0.2750 -0.1190
 2071W        W18255   0.668  17.773  13.593 -0.3288  0.1527  0.0026
 2072W        W18256   3.853   3.981   4.521 -0.0817 -0.3160  0.0920
 2073W        W18257  13.459   8.889   4.789  0.0554 -0.0679 -0.0189
 2074W        W18258  14.301   0.774  15.958 -0.2319 -0.0160  0.4395
 2075W        W18259   5.170   1.741   1.422 -0.1376  0.1032  0.4681
 2076W        W18260   1.978   5.216   2.259 -0.0405  0.1681  0.2020
 2077W        W18261   0.365   1.480   3.906  0.0416  0.0448  0.1945
 2078W        W18262   5.450   7.833  14.083 -0.1122  0.1956  0.1837
 2079W        W18263   0.139  14.131   0.625  0.0325  0.0417 -0.0049
 2080W        W18264   1.082  15.052  14.004  0.0064  0.0410 -0.1661
 2081W        W18265  12.630  15.490   5.595 -0.1344  0.1315 -0.3507
 2082W        W18266   0.209  12.790  16.000  0.1494  0.0359  0.1346
 2083W        W18267  12.246  12.751   1.967 -0.0863 -0.1382 -0.2256
 2084W        W18268  10.380   0.718   0.271  0.0836 -0.1513 -0.0048
 2085W        W18269  15.987  17.331   5.283  0.1477 -0.2824  0.1038
 2086W        W18270   8.999   6.592  14.472  0.0089  0.6060  0.0849
 2087W        W18271  17.336  11.556  12.704  0.1149  0.1708  0.2551
 2088W        W18272  16.435   7.072   1.731 -0.1447 -0.1854 -0.1410
 2089W        W18273   7.395   2.357   3.788 -0.0226  0.0092 -0.0744
 2090W        W18274   8.961  15.964   2.638  0.3024  0.1454  0.1433
 2091W        W18275  12.195  11.637   5.213  0.0108 -0.0715 -0.0625
 2092W        W18276   9.685   4.812  11.979  0.2288  0.1371  0.0701
 2093W        W18277  15.505  17.556  14.120 -0.0662 -0.1364  0.4201
 2094W        W18278  10.310  11.142   1.382 -0.1688  0.0872  0.0302
 2095W        W18279   3.047   4.578   5.633 -0.0732 -0.0371 -0.1046
 2096W        W18280  11.296   4.132  15.744 -0.0507 -0.1907  0.0626
 2097W        W18281   1.021   1.559   5.153  0.0034  0.1454  0.0232
 2098W        W18282   8.471  10.991  12.992  0.0168 -0.1246  0.0837
 2099W        W18283   3.116  10.069  15.401 -0.2444 -0.0049 -0.2491
 2100W        W18284  12.801   7.596   0.393 -0.0465 -0.2433  0.1360
 2101W        W18285  11.008   9.822  15.756 -0.1036 -0.0203 -0.1391
 2102W        W18286   6.269   4.981   3.996 -0.3348  0.0593  0.1564
 2103W        W18287  15.729  16.000   2.011 -0.2604 -0.0647  0.2099
 2104W        W18288   0.252   7.477   1.692  0.3247  0.0553  0.0523
 2105W        W18289  10.182  12.747   5.311  0.0467  0.0288  0.0679
 2106W        W18290  13.270  12.392   5.131 -0.0130  0.0982  0.3753
 2107W        W18291  14.612  10.150   4.113 -0.1757 -0.0719 -0.3144
 2108W        W18292   4.138  17.832  15.662  0.0871  0.2325  0.1076
 2109W        W18293  12.519   7.126  13.762 -0.2018 -0.0797  0.0412
 2110W        W18294   2.365   7.970  16.556 -0.1751 -0.2148 -0.0515
 2111W        W18295   5.954   5.460   0.976 -0.0859  0.4154 -0.2459
 2112W        W18296  14.511  12.494  13.743  0.0158 -0.0283  0.0426
 2113W        W18297   4.783  10.645  11.837 -0.0500  0.6046  0.2503
 2114W        W18298   9.930   3.929  14.144  0.0348  0.1484  0.0547
 2115W        W18299   7.686   1.950  14.155  0.2569 -0.0719  0.0375
 2116W        W18300   6.361   9.301   2.582 -0.2470 -0.1624 -0.1738
 2117W        W18301   3.305   5.746   2.158 -0.0687  0.3093  0.0779
 2118W        W18302  14.482   6.559   5.730 -0.2190  0.4261  0.1044
 2119W        W18303  13.661  15.635   1.583 -0.2163 -0.2181 -0.1848
 2120W        W18304   7.980  10.443  13.856  0.0312 -0.1776 -0.0826
 2121W        W18305  11.899   2.456  16.824 -0.1647 -0.3287 -0.1835
 2122W        W18306   3.921   8.664  13.106 -0.0624 -0.0104  0.1998
 2123W        W18307   7.319  13.255   1.788  0.1161 -0.3160 -0.0579
 2124W        W18308  13.849   9.907   1.170  0.4784  0.0373  0.0650
 2125W        W18309   6.136  16.328   5.382 -0.2627  0.1731 -0.1868
 2126W        W18310   6.987   9.156   4.474 -0.0682 -0.1974  0.0679
 2127W        W18311   3.741  12.778   0.388 -0.0378 -0.1249 -0.1775
 2128W        W18312  16.383   1.621   3.837 -0.1825  0.1908  0.0326
 2129W        W18313  16.696  10.360  16.471 -0.1488 -0.0590 -0.3713
 2130W        W18314   6.573  12.925   4.389  0.1463  0.1078 -0.0893
 2131W        W18315  16.758  12.214   4.778 -0.1144 -0.1094 -0.2972
 2132W        W18316   1.743  17.397   2.116 -0.0966 -0.0257 -0.0182
 2133W        W18317  11.632   0.885  11.885  0.2791  0.3953 -0.1087
 2134W        W18318   9.924  15.274   4.479 -0.0744 -0.0761  0.2126
 2135W        W18319   1.502   1.980   4.727  0.0623  0.1629 -0.2211
 2136W        W18320  17.859  11.175  16.803  0.0111 -0.2972 -0.0398
 2137W        W18321   2.226  11.562  15.004 -0.0630  0.3091 -0.0153
 2138W        W18322   2.675   0.027  15.596 -0.1810 -0.0923  0.1132
 2139W        W18323  12.526   8.351   2.390 -0.1039 -0.0545  0.3853
 2140W        W18324   3.086   6.322  15.476 -0.1138 -0.1633  0.0882
 2141W        W18325   9.907   4.070  13.584 -0.0091  0.0040 -0.2206
 2142W        W18326   0.134   4.182  12.598 -0.1307 -0.2147 -0.0197
 2143W        W18327  12.154  10.508   3.377  0.0057 -0.2190  0.0300
 2144W        W18328  12.500   8.151   4.202  0.2226 -0.1316 -0.0342
 2145W        W18329  13.560  12.178  13.915 -0.1254  0.0288 -0.1304
 2146W        W18330  13.363   7.839   4.773 -0.0618  0.0397 -0.1205
 2147W        W18331   1.124   7.385   3.365  0.1617  0.0260  0.0068
 2148W        W18332   8.578   5.638   1.031  0.1302 -0.1293  0.0412
 2149W        W18333  14.117  15.823   4.430  0.1688 -0.1274 -0.0855
 2150W        W18334   8.239  11.819   4.208 -0.3156 -0.1964  0.2002
 2151W        W18335  10.595  14.069  11.774 -0.0048  0.3245 -0.3183
 2152W        W18336   5.410   3.327  15.828 -0.1346  0.0696  0.2102
 2153W        W18337  11.705  14.913  14.147 -0.4310 -0.3399  0.2312
 2154W        W18338  16.449  17.114  12.514  0.1325  0.0428 -0.1308
 2155W        W18339   9.975   5.592   0.809  0.2091  0.1932  0.4067
 2156W        W18340  15.225  12.478   5.178  0.1640  0.0593  0.2136
 2157W        W18341  14.556   6.738  11.650  0.0654  0.0311  0.1067
 2158W        W18342   7.472  17.522   3.652  0.1364  0.0955 -0.0220
 2159W        W18343   2.684   2.000  16.721 -0.1846  0.1236  0.1310
 2160W        W18344  10.214   9.649  16.379 -0.2670 -0.2306  0.1181
 2161W        W18345  12.790  17.405   3.627  0.1544  0.0215 -0.1096
 2162W        W18346   6.294   0.890   4.234  0.0373  0.0960 -0.0903
 2163W        W18347   5.113   1.142   2.830  0.3769 -0.3351 -0.0801
 2164W        W18348   5.139  11.326  15.819  0.0689  0.1431 -0.3858
 2165W        W18349   4.605  13.591  12.587  0.0237 -0.0662  0.1553
 2166W        W18350   8.498   6.606  14.547 -0.0935 -0.1520  0.0923
 2167W        W18351  13.853  15.351   3.570  0.0831  0.3070  0.0353
 2168W        W18352   7.586  14.879  12.278 -0.0382 -0.2168 -0.4263
 2169W        W18353   3.325   9.902   3.338 -0.0125 -0.0022 -0.0449
 2170W        W18354  14.470  11.957   2.628 -0.0284 -0.1183 -0.2914
 2171W        W18355   9.912  16.036  13.929  0.0550 -0.3332 -0.1396
 2172W        W18356  13.506   6.170   6.221  0.0955  0.0319  0.0044
 2173W        W18357   7.731   0.650  12.405 -0.3221 -0.0681  0.5017
 2174W        W18358   7.116  14.271   2.210  0.0940  0.2621 -0.2224
 2175W        W18359  17.132  13.501   2.021 -0.0114 -0.0041 -0.1566
 2176W        W18360  13.696   5.885   0.351  0.1573 -0.1232 -0.1725
 2177W        W18361   6.602  14.610  14.817 -0.0886 -0.0388  0.0026
 2178W        W18362   4.498  12.467  16.509  0.2164 -0.1573 -0.1270
 2179W        W18363  11.507  15.338   3.803  0.1855 -0.2465 -0.1504
 2180W        W18364   1.984   6.321   3.895 -0.1584  0.0706 -0.2101
 2181W        W18365   7.873   2.419   2.139 -0.1410  0.1104  0.0643
 2182W        W18366  14.449  15.031  12.618  0.0237  0.1538 -0.0283
 2183W        W18367   9.945   0.108  14.627 -0.0999 -0.0015  0.3240
 2184W        W18368   8.809   5.490   1.762 -0.1023  0.1537 -0.0477
 2185W        W18369   9.660   8.261  14.312  0.0754 -0.0326 -0.0769
 2186W        W18370  17.204   2.274   1.353  0.0399 -0.0264  0.0387
 2187W        W18371   7.163   5.125   2.330  0.1206  0.0752 -0.3303
 2188W        W18372  17.256   5.476  16.689  0.0647  0.0664  0.2009
 2189W        W18373  10.306   5.121  15.584  0.0688 -0.2082 -0.0182
 2190W        W18374  11.610   1.502  15.639 -0.1332 -0.3729 -0.0837
 2191W        W18375  10.052  16.300  16.640  0.0496 -0.1075  0.0639
 2192W        W18376   0.180  12.060  16.574  0.0444 -0.0076  0.0636
 2193W        W18377   7.294   5.584   2.423 -0.1135  0.1754  0.0752
 2194W        W18378   7.844   6.081  14.436  0.1319 -0.0498  0.2205
 2195W        W18379  16.358   7.332   0.081  0.1320 -0.1797 -0.0947
 2196W        W18380  10.921  13.429   4.563  0.0561 -0.3691  0.1399
 2197W        W18381  12.843  14.490   0.627 -0.1128  0.1255 -0.1242
 2198W        W18382  12.006   2.341   0.594 -0.1752  0.1222 -0.2899
 2199W        W18383   5.781  10.050   4.476  0.0318 -0.1579 -0.1703
 2200W        W18384  16.945   5.491   2.485  0.0067 -0.1592  0.3701
 2201W        W18385   7.479  10.691  13.967 -0.1844 -0.1854  0.3097
 2202W        W18386  10.025  13.305  15.629 -0.0218 -0.1507 -0.2815
 2203W        W18387  13.148   4.757   1.546  0.0382 -0.1275  0.0359
 2204W        W18388   7.934   8.121   0.762 -0.1936 -0.0106  0.1981
 2205W        W18389  17.263  15.685  13.282 -0.0694  0.2208  0.3636
 2206W        W18390  12.932   0.847  13.257  0.0005 -0.2951  0.4938
 2207W        W18391   4.976  10.864  16.523  0.0182  0.0619 -0.1515
 2208W        W18392   6.588   2.293   1.688  0.2537 -0.1979  0.0327
 2209W        W18393  14.339   6.230  11.487  0.4510  0.1685 -0.4282
 2210W        W18394   3.544   7.421   4.526  0.1178  0.1513  0.3117
 2211W        W18395   7.797   5.335   1.112 -0.1168  0.0705  0.1412
 2212W        W18396  14.347   7.540   1.097  0.1176 -0.1230 -0.4252
 2213W        W18397   5.901   2.502   3.048  0.1076  0.0983 -0.0914
 2214W        W18398  17.433   6.435  13.228  0.1124 -0.3161 -0.0189
 2215W        W18399  17.646   2.794  12.230  0.0125 -0.0252 -0.0259
 2216W        W18400  11.117   4.007  16.266 -0.2555  0.1623 -0.1397
 2217W        W18401   3.071  16.037  13.836 -0.0180 -0.1063 -0.0511
 2218W        W18402   4.345   7.766   0.659  0.0115  0.2107 -0.1496
 2219W        W18403   8.081   8.927  13.936 -0.2334  0.1614 -0.1586
 2220W        W18404   6.440  14.371  11.380 -0.0834  0.1162 -0.2100
 2221W        W18405   5.921   8.780  14.609 -0.2037 -0.1508 -0.0480
 2222W        W18406   4.182   0.128  15.101 -0.0388  0.0616  0.0869
 2223W        W18407  16.138   4.760  13.458 -0.1951  0.2966  0.1973
 2224W        W18408   1.967  13.619  11.498  0.1630  0.1423  0.3059
 2225W        W18409  14.191  12.582  16.050 -0.0043  0.0909 -0.2671
 2226W        W18410   0.709   6.115  14.583 -0.2615 -0.4220 -0.1572
 2227W        W18411   8.055   9.525   2.984  0.0823 -0.1539 -0.0033
 2228W        W18412  13.342   3.166   5.891 -0.3642  0.1480 -0.0029
 2229W        W18413  10.343   9.936  15.417 -0.1022 -0.3923  0.4313
 2230W        W18414   5.309   4.650  14.451 -0.3757  0.1435 -0.1136
 2231W        W18415   2.596   6.921  16.915 -0.1445 -0.1110 -0.0014
 2232W        W18416  14.254   6.253   3.156 -0.1147  0.0073 -0.2434
 2233W        W18417  11.374   0.362  11.854 -0.3155 -0.1035  0.0087
 2234W        W18418   2.318  13.380  11.243  0.3311 -0.0584 -0.2242
 2235W        W18419   7.477  16.958  12.977  0.0704 -0.0980  0.3620
 2236W        W18420  15.151   0.411  15.898  0.1533  0.2400  0.1158
 2237W        W18421  12.349   8.854   1.450  0.0026  0.2391 -0.1640
 2238W        W18422   5.097   7.216   4.606  0.2173 -0.3184 -0.3525
 2239W        W18423   9.123   2.556  15.274  0.0957  0.0865 -0.1819
 2240W        W18424  13.658   5.679  15.711 -0.2756  0.0457 -0.1168
 2241W        W18425  17.396  13.585  13.482  0.1386  0.0060 -0.1406
 2242W        W18426  17.610   7.063  13.076 -0.0811 -0.3105  0.2295
 2243W        W18427  17.568   1.911   4.898 -0.0037  0.3375  0.2375
 2244W        W18428   6.284  10.837   4.744  0.1208  0.0769  0.0634
 2245W        W18429  17.061  10.117   0.915  0.0019 -0.0076 -0.2936
 2246W        W18430  11.054  15.416  14.097  0.2390 -0.0179 -0.2099
 2247W        W18431   1.609  11.201  13.125 -0.2432 -0.2334  0.2036
 2248W        W18432  13.446  17.400  15.328  0.1337 -0.4770  0.0697
 2249W        W18433   8.639   9.276   2.643  0.0769 -0.4026  0.1317
 2250W        W18434  11.914   5.855  16.259  0.0832 -0.0480 -0.0043
 2251W        W18435   0.351  17.030  14.567  0.1047 -0.0160 -0.0762
 2252W        W18436   0.731   1.991   5.290 -0.2468  0.1475 -0.0774
 2253W        W18437  13.227   1.318   2.856  0.0796 -0.1425 -0.0438
 2254W        W18438   0.403   7.673   3.981 -0.0747  0.1303  0.1487
 2255W        W18439  13.707   5.871  15.240  0.0267  0.1110  0.2037
 2256W        W18440   4.831  14.622   3.083  0.0129 -0.0066  0.1610
 2257W        W18441   0.387  14.158   2.146  0.3541 -0.1314 -0.1406
 2258W        W18442   6.037   2.848   0.735 -0.1194 -0.0660 -0.1351
 2259W        W18443   4.240  17.631  13.830  0.3923 -0.0538  0.0332
 2260W        W18444   2.112   2.024   3.213 -0.0274  0.1088 -0.2606
 2261W        W18445   9.181   7.258   4.749  0.0869 -0.2888  0.0297
 2262W        W18446   8.947  13.153  12.664 -0.2813 -0.1666  0.2769
 2263W        W18447   6.184  14.013  15.471 -0.0161 -0.1222  0.0168
 2264W        W18448  17.851   4.253  14.439 -0.0735  0.2262 -0.0130
 2265W        W18449   6.578  16.481   3.323  0.2738  0.2580  0.0313
 2266W        W18450  12.691   4.810  12.556  0.1350 -0.0801  0.1094
 2267W        W18451   5.383  16.050   0.420  0.1141  0.1039 -0.0637
 2268W        W18452   2.800  14.949   1.944 -0.0817  0.0727  0.0012
 2269W        W18453   6.663   9.512   4.266  0.3098 -0.1753  0.3100
 2270W        W18454   5.895  14.338  10.517 -0.2580 -0.0823 -0.0468
 2271W        W18455   1.447   9.664   4.603 -0.0968 -0.2684 -0.3314
 2272W        W18456   6.204  13.465  11.506 -0.2916 -0.1401  0.0819
 2273W        W18457   3.393   2.976  11.384  0.0015  0.3594  0.0910
 2274W        W18458  12.854   8.902   1.434  0.1902  0.1025  0.0333
 2275W        W18459   3.696  12.846  13.118 -0.1492 -0.0323  0.2852
 2276W        W18460  11.737  13.591  13.199  0.0928 -0.2069  0.0724
 2277W        W18461  15.741   8.920   1.571 -0.1376 -0.2558 -0.0226
 2278W        W18462  17.270   9.466  13.934  0.2940  0.1655 -0.2691
 2279W        W18463  15.295  10.232   2.565 -0.0332  0.2642 -0.2275
 2280W        W18464  15.284   2.086   5.142  0.0007 -0.1401 -0.0782
 2281W        W18465   8.313  10.148   1.287 -0.1606  0.0044  0.0185
 2282W        W18466  15.141   9.475  12.548 -0.2871 -0.1323  0.2077
 2283W        W18467   4.677   3.001   3.611 -0.3558 -0.2678 -0.1940
 2284W        W18468   4.686   9.974  16.163 -0.2661  0.0218  0.0981
 2285W        W18469   2.941  13.971  14.979  0.2106  0.3217 -0.0248
 2286W        W18470  10.946  11.043  13.855 -0.1405 -0.2077 -0.1320
 2287W        W18471   3.244  12.229   4.928  0.0770 -0.3575  0.0081
 2288W        W18472  10.773   9.395  15.612  0.0017  0.2874 -0.2536
 2289W        W18473  13.532   9.714   3.807  0.4404 -0.1039  0.1598
 2290W        W18474   8.101  15.775   5.072 -0.1259 -0.2808  0.4130
 2291W        W18475   9.619   0.060  14.245  0.0378 -0.0123 -0.0340
 2292W        W18476   6.441   9.442   1.087  0.1085  0.1534  0.3193
 2293W        W18477  13.660  15.896  12.529  0.2410 -0.3981 -0.0181
 2294W        W18478   8.197   8.062  13.877 -0.4987 -0.1599  0.0792
 2295W        W18479  16.237  14.828  16.621  0.0827 -0.0585  0.0381
 2296W        W18480   3.086   7.328  16.558 -0.0084 -0.3126  0.2439
 2297W        W18481  14.711  12.044  13.039  0.2178 -0.0739  0.1064
 2298W        W18482   8.079   6.663  15.457 -0.0211 -0.5108  0.1069
 2299W        W18483   9.300   4.967  14.981 -0.0286  0.1871  0.0230
 2300W        W18484   9.687  11.355  16.634 -0.0919 -0.0202 -0.0321
 2301W        W18485  13.707   2.963   0.660 -0.0533  0.3318  0.1030
 2302W        W18486   2.169  13.586   3.642 -0.1600  0.2349 -0.0074
 2303W        W18487   2.526  13.532  12.835  0.0277 -0.2977  0.0411
 2304W        W18488   6.103  14.434   2.572 -0.2062 -0.0638 -0.0513
 2305W        W18489  11.171  17.188   3.354 -0.0274  0.0878 -0.2090
 2306W        W18490   5.474   1.733  12.297  0.1698  0.0697 -0.0745
 2307W        W18491   9.393   6.019   4.460 -0.0349 -0.1820 -0.2313
 2308W        W18492  13.085  10.506  16.683 -0.0601 -0.4141 -0.2524
 2309W        W18493  15.461  16.366  15.144  0.0209  0.6749 -0.0450
 2310W        W18494  14.977   3.399  15.051  0.2151 -0.2276  0.1572
 2311W        W18495  15.449  10.970   4.323  0.1982 -0.3382  0.1846
 2312W        W18496   9.967   0.634  13.892 -0.2159 -0.0759 -0.0806
 2313W        W18497   6.845  16.443   3.992 -0.0608  0.0052 -0.2273
 2314W        W18498   7.261  13.521  12.492  0.4479  0.1446 -0.0064
 2315W        W18499  14.510   2.176  13.686  0.0536 -0.1246  0.0811
 2316W        W18500   5.452   2.867  11.737 -0.1395  0.2997  0.1882
 2317W        W18501   6.513   6.317  15.185 -0.4244 -0.0356  0.0655
 2318W        W18502   9.818   2.494  12.723  0.2042 -0.0150 -0.0654
 2319W        W18503   6.321   0.257   0.922 -0.0873 -0.0229  0.2484
 2320W        W18504  13.724   4.578  16.679 -0.0754  0.1596  0.1903
 2321W        W18505  12.858   3.515  12.717 -0.3026  0.0408 -0.2540
 2322W        W18506   5.982  11.148   2.873  0.2446  0.0986  0.0419
 2323W        W18507   7.967  11.499  13.746 -0.1534  0.1600  0.2659
 2324W        W18508   4.043  15.944   0.084 -0.1108  0.1382 -0.1887
 2325W        W18509   2.013   5.677  13.304  0.0695 -0.1510 -0.1734
 2326W        W18510   2.992   4.899  15.972 -0.2427  0.1277  0.1289
 2327W        W18511   6.870  12.301   2.112 -0.0381 -0.1497  0.2666
 2328W        W18512  11.124  13.010  12.418  0.2279  0.0884  0.1099
 2329W        W18513   4.415  12.585  14.019  0.3099 -0.1572  0.0257
 2330W        W18514   2.312  17.649  12.502  0.0341  0.3631  0.0824
 2331W        W18515   7.031  16.176  15.265  0.0827 -0.0816 -0.0771
 2332W        W18516   9.924  12.549  13.682 -0.0832  0.3253  0.2896
 2333W        W18517  17.305   3.552  14.907  0.0332  0.0337  0.0777
 2334W        W18518  15.191  10.168   1.512 -0.1180 -0.1254  0.0989
 2335W        W18519   7.843  13.034   4.519 -0.0918  0.0654  0.2860
 2336W        W18520   7.568  11.236  13.932 -0.0479  0.0311  0.2152
 2337W        W18521  16.244   0.630   1.785 -0.0523 -0.2964  0.2943
 2338W        W18522  10.069   6.805  16.579 -0.2618  0.2205  0.1063
 2339W        W18523   3.154  16.454   5.548  0.0375 -0.1911 -0.1240
 2340W        W18524   0.388   3.902   4.281 -0.0970 -0.2117  0.1399
 2341W        W18525  12.158   5.836   4.568 -0.2733  0.1521 -0.2229
 2342W        W18526   1.188  14.552   4.481  0.2221  0.1465 -0.1238
 2343W        W18527   8.055   5.794   0.880  0.0342  0.0946 -0.0927
 2344W        W18528  10.887   8.798   0.584  0.0712  0.3485  0.0913
 2345W        W18529   3.714   4.683   2.376 -0.0020  0.1303 -0.2627
 2346W        W18530   4.909   7.571   4.913  0.1733  0.2174 -0.1004
 2347W        W18531   3.572  16.464  15.570  0.0511 -0.2049  0.1489
 2348W        W18532  17.522  17.353  13.873  0.0976  0.1053  0.3161
 2349W        W18533   2.525   1.580   1.715  0.0066 -0.1073 -0.2902
 2350W        W18534  10.385  11.892  12.776  0.1226 -0.1514 -0.2327
 2351W        W18535   2.873   5.951   4.234  0.1209  0.3267  0.0279
 2352W        W18536   4.550  17.605   5.780 -0.0177 -0.1960 -0.1966
 2353W        W18537  11.957   1.363  13.993  0.1233  0.3481  0.2139
 2354W        W18538   1.927  12.250   1.540 -0.0968  0.0188  0.1644
 2355W        W18539   0.439   5.437  12.124  0.0664  0.1571  0.3285
 2356W        W18540  16.569  15.469   5.141  0.0484 -0.0095 -0.4925
 2357W        W18541   6.677   6.897   1.260 -0.4350  0.2111  0.1687
 2358W        W18542   6.142  12.771   4.110 -0.1039 -0.2356 -0.0318
 2359W        W18543  16.535  10.130  11.951 -0.0591 -0.2724 -0.0334
 2360W        W18544  12.474   2.779  12.843  0.0749 -0.0667  0.2434
 2361W        W18545  17.616   6.092   2.894 -0.0889 -0.0221  0.0967
 2362W        W18546   6.326   1.947   2.485 -0.0019  0.1020  0.1409
 2363W        W18547  10.209  11.075  13.682  0.0250 -0.2410 -0.0920
 2364W        W18548   3.420   5.310  13.044  0.2219  0.0348  0.4768
 2365W        W18549  16.092  17.336   0.971 -0.0834  0.0046 -0.1466
 2366W        W18550  12.367  11.008  12.636  0.1307 -0.3445  0.1461
 2367W        W18551   8.100  16.868   4.072 -0.0063 -0.1258 -0.1303
 2368W        W18552   7.815  12.188  12.270 -0.0002 -0.0815  0.0641
 2369W        W18553   4.657  15.238  14.191 -0.1437  0.1293 -0.2658
 2370W        W18554   6.269   8.495  16.445 -0.0462 -0.0396 -0.0419
 2371W        W18555   1.695   9.167  14.393 -0.1019 -0.3139 -0.0405
 2372W        W18556  13.384   0.375   5.594  0.1160  0.1033 -0.2252
 2373W        W18557   3.424   3.083   0.234  0.1826 -0.2759 -0.0774
 2374W        W18558   3.073   7.977  10.986  0.1895  0.0099  0.0323
 2375W        W18559   0.814  12.246   3.071  0.2183 -0.2954  0.0569
 2376W        W18560  15.778   8.884   4.456 -0.1437  0.0920 -0.2010
 2377W        W18561  11.041   4.825  14.637  0.1952 -0.1450 -0.2058
 2378W        W18562   9.053   9.664  13.300  0.0102  0.2472  0.0479
 2379W        W18563   5.285  11.854   0.641 -0.3584 -0.0786  0.0921
 2380W        W18564  15.998  16.211  12.497  0.1604 -0.0783  0.1657
 2381W        W18565  12.671   4.011   2.669  0.2070  0.0014 -0.0268
 2382W        W18566   8.652   8.255   0.683 -0.0097 -0.3457 -0.3622
 2383W        W18567  15.406  10.891   3.851 -0.1234  0.0499  0.0188
 2384W        W18568   9.098   0.453   1.159 -0.2014 -0.0129 -0.1955
 2385W        W18569   5.511  13.262  14.936 -0.2704  0.1444 -0.0679
 2386W        W18570   4.180  16.684  13.684  0.2943  0.0632  0.4205
 2387W        W18571   4.351  11.026  12.248  0.0291  0.1687  0.1767
 2388W        W18572   2.973   0.077   0.067 -0.2142  0.0399  0.1426
 2389W        W18573  15.612  13.734   0.724  0.1245  0.0270 -0.5083
 2390W        W18574   9.601  17.786  15.981  0.2298  0.0512 -0.0888
 2391W        W18575   0.221  14.474  11.776 -0.3504 -0.0377  0.0678
 2392W        W18576  13.434   8.224   4.281 -0.0296  0.0575 -0.0681
 2393W        W18577   3.545  11.683  13.757  0.0882  0.1404  0.0381
 2394W        W18578   0.486  10.670  13.121 -0.1386 -0.2387 -0.0182
 2395W        W18579   3.216   2.185   5.120  0.1147  0.2967  0.2454
 2396W        W18580   7.701   2.503   3.364 -0.0131 -0.2530 -0.0550
 2397W        W18581   6.503  10.586   5.108  0.0823 -0.0886 -0.0549
 2398W        W18582   9.889   1.975  11.850 -0.0690 -0.0471  0.0202
 2399W        W18583   0.338  10.647  13.731  0.1330  0.0619 -0.1792
 2400W        W18584  12.698   6.889  10.344  0.0792 -0.0799 -0.0952
 2401W        W18585  11.983  13.982   2.197 -0.1982  0.1237  0.3645
 2402W        W18586  14.191  15.823   0.314 -0.0638  0.1174  0.3665
 2403W        W18587   5.684   6.297  14.652 -0.1333 -0.1882 -0.0868
 2404W        W18588   6.478  15.942   5.202 -0.2044 -0.0919  0.1239
 2405W        W18589   2.773   2.395   4.273  0.1240 -0.0397  0.2900
 2406W        W18590  17.766  15.786   3.990  0.0812  0.0801 -0.0547
 2407W        W18591  12.312  15.320   0.641  0.1235 -0.1722 -0.1140
 2408W        W18592  16.991  12.771   1.054  0.1699 -0.1693 -0.2577
 2409W        W18593  11.980  10.524  13.368  0.1164  0.0758  0.0591
 2410W        W18594  14.712   6.835  14.318  0.1612 -0.0817 -0.3207
 2411W        W18595   0.665   3.266   2.461  0.0299  0.2615  0.2363
 2412W        W18596   0.247  13.537   5.718 -0.1346  0.1329  0.0934
 2413W        W18597  14.321   5.813  16.312  0.3263 -0.1416 -0.0297
 2414W        W18598  12.968   9.848   1.554 -0.3505 -0.0976 -0.0073
 2415W        W18599   6.933  14.762   2.164  0.1912  0.2244 -0.4309
 2416W        W18600   1.521   9.349  16.011 -0.0971 -0.0945  0.0152
 2417W        W18601   3.214  11.825   4.566 -0.0150  0.2607  0.4472
 2418W        W18602   1.354   6.720  14.485  0.1505 -0.4605  0.0319
 2419W        W18603   9.172  12.574  16.366 -0.3340 -0.0913  0.3738
 2420W        W18604  13.378   1.654  16.409  0.0184  0.2905 -0.0220
 2421W        W18605   6.986  16.908   1.894 -0.1286 -0.0104  0.1389
 2422W        W18606  13.423   9.858   3.316 -0.1224 -0.0782  0.0993
 2423W        W18607   8.219   7.225   5.086 -0.2976  0.3235  0.1010
 2424W        W18608   2.683   2.714  12.101  0.0731  0.2400  0.1521
 2425W        W18609  12.171   1.364  16.859  0.1509 -0.2563  0.1156
 2426W        W18610   4.569   3.778   0.492  0.0602 -0.1971  0.0745
 2427W        W18611  14.853   7.349  13.145 -0.0108 -0.1383  0.0223
 2428W        W18612  10.802  15.127  16.511  0.1685 -0.2237 -0.0296
 2429W        W18613  15.303  15.679   1.096  0.2025 -0.0915 -0.0749
 2430W        W18614  14.004  15.376   4.087  0.1028 -0.1248 -0.2546
 2431W        W18615   4.704   3.605  16.258  0.0434  0.0448  0.0696
 2432W        W18616   9.339  12.122   2.434 -0.0192 -0.0129  0.1413
 2433W        W18617   7.231  11.362  14.290  0.0581  0.1168 -0.3858
 2434W        W18618  16.784  13.590   3.203  0.1578  0.1392  0.2641
 2435W        W18619  11.315   2.695   4.247  0.1737  0.0844 -0.0518
 2436W        W18620   9.540  13.458  16.341 -0.1371 -0.0177  0.0683
 2437W        W18621   7.565   7.833  15.123 -0.4336  0.0762  0.1289
 2438W        W18622  16.627   7.934  14.624 -0.1601  0.0203 -0.2195
 2439W        W18623  13.796  12.174   4.385 -0.1526  0.0507  0.0469
 2440W        W18624   9.419  14.959   3.770  0.0653 -0.0320 -0.1270
 2441W        W18625   6.324   0.516  14.473  0.0371 -0.1598  0.0969
 2442W        W18626   6.063  16.705  11.861  0.3202  0.0898 -0.2255
 2443W        W18627   4.666  15.834   3.649  0.1539  0.2529 -0.0893
 2444W        W18628  12.922  10.942   3.576 -0.0003 -0.0358 -0.1443
 2445W        W18629   5.349  10.261  14.162  0.0073  0.0385  0.0592
 2446W        W18630   2.758  13.476  12.271  0.0602 -0.1172 -0.3112
 2447W        W18631   8.874  12.874   3.195 -0.2132 -0.1898 -0.0219
 2448W        W18632  10.457   9.734   3.592 -0.2524 -0.1865 -0.1293
 2449W        W18633   0.883   1.854  16.261  0.0731 -0.3503  0.4047
 2450W        W18634   2.078   4.692   4.528 -0.0615  0.0024  0.1382
 2451W        W18635  17.616   5.335  16.277 -0.1479 -0.0492 -0.1848
 2452W        W18636   8.782  14.477  10.822  0.1627  0.1591 -0.1219
 2453W        W18637   9.717  14.959  15.376  0.0034  0.0119 -0.0252
 2454W        W18638   0.389  10.029   1.951  0.0320  0.1226  0.1781
 2455W        W18639  12.194   1.570   1.794  0.1107  0.1533  0.0827
 2456W        W18640   1.868  16.571   3.542 -0.1859 -0.0766 -0.2355
 2457W        W18641   5.968   7.663  16.728  0.1351  0.0563  0.2298
 2458W        W18642  17.813   6.064  12.104  0.3080 -0.3583  0.1802
 2459W        W18643   0.853   3.664   0.168 -0.0873  0.0114 -0.0547
 2460W        W18644  13.503  13.220  15.614  0.2841 -0.1931  0.1558
 2461W        W18645  17.254  16.023   0.533  0.0156 -0.0679  0.1317
 2462W        W18646   4.795  13.572   4.130  0.0906  0.2885  0.1590
 2463W        W18647   3.404   9.729   0.432  0.1697  0.2115 -0.3911
 2464W        W18648   5.063   6.027   3.272 -0.1506  0.0001 -0.1255
 2465W        W18649  15.668   9.806  16.779  0.1053 -0.1755 -0.3493
 2466W        W18650   0.949   8.347   3.173 -0.0144 -0.2930 -0.1654
 2467W        W18651  12.395  11.415   4.036 -0.1297  0.0653  0.1301
 2468W        W18652  17.114   3.729  11.324  0.0854  0.2990 -0.2250
 2469W        W18653  17.106   2.683   6.401 -0.2338  0.2166  0.0796
 2470W        W18654  12.555  12.888   5.171  0.1521  0.0935 -0.1583
 2471W        W18655  13.052   0.657  15.259 -0.1359 -0.0725  0.1242
 2472W        W18656  17.862   7.542  15.770  0.1173 -0.0005 -0.0813
 2473W        W18657  11.358  10.885  15.432  0.0302 -0.1630  0.1110
 2474W        W18658  17.046  12.710   2.350 -0.3062 -0.1827  0.0752
 2475W        W18659   5.258   6.490   3.359  0.0222  0.1835  0.2683
 2476W        W18660  13.613   0.266   5.022 -0.4222 -0.2169 -0.1143
 2477W        W18661  17.140   6.080   2.613 -0.0527  0.1346  0.2761
 2478W        W18662  15.445  13.931  13.406  0.0876 -0.1533 -0.2587
 2479W        W18663   6.723  11.964   4.839 -0.0583  0.0727 -0.0110
 2480W        W18664  15.794   1.096  11.877 -0.1630  0.3324  0.1701
 2481W        W18665  17.482   0.293  15.639  0.3705 -0.3252  0.0812
 2482W        W18666  15.196   8.609  12.464 -0.0895  0.5541 -0.0283
 2483W        W18667  13.527   8.140  16.499 -0.1723 -0.3567  0.1876
 2484W        W18668  16.406  14.427   3.478 -0.1030  0.0062 -0.0268
 2485W        W18669   0.285   1.897   0.208 -0.2069  0.1212  0.0526
 2486W        W18670   2.606   1.139  14.652 -0.0616 -0.1228 -0.0716
 2487W        W18671  14.372  13.246  12.772  0.2067 -0.1501  0.1749
 2488W        W18672   8.942  15.160  11.636  0.0781 -0.1760  0.0933
 2489W        W18673   8.271  13.775  12.912 -0.2938  0.1469 -0.1127
 2490W        W18674   5.423   8.489   6.032 -0.2742 -0.0294  0.0748
 2491W        W18675   8.518  15.655   1.527  0.2759 -0.3700 -0.1416
 2492W        W18676   4.404  12.080   2.595 -0.0253  0.0396 -0.1078
 2493W        W18677  15.548  12.496   4.222  0.2937  0.4208  0.2203
 2494W        W18678   6.669  13.493   1.035  0.0396 -0.1894 -0.1745
 2495W        W18679   2.200   7.192   0.314  0.0406 -0.1617 -0.0100
 2496W        W18680  13.884  12.196  12.999 -0.3978 -0.1050 -0.1561
 2497W        W18681   2.593  12.227  16.562  0.5317 -0.1858 -0.2331
 2498W        W18682  12.164   1.310  13.389 -0.1671  0.0519 -0.2178
 2499W        W18683  11.728   4.182   1.913 -0.1209 -0.1062  0.0000
 2500W        W18684  13.624   3.300   3.764  0.0488  0.1273  0.1973
 2501W        W18685   0.489  14.325  12.571 -0.0406 -0.2282 -0.2751
 2502W        W18686  15.583  12.909   4.497  0.0021 -0.0696  0.3600
 2503W        W18687   9.231  12.781   2.196  0.3387 -0.0779  0.2646
 2504W        W18688   8.320  10.476  14.713 -0.0934 -0.0901  0.3971
 2505W        W18689   3.904  16.102   3.012  0.0294 -0.1255 -0.1461
 2506W        W18690   6.945   8.524   1.388 -0.0251  0.2412  0.1297
 2507W        W18691   7.678   2.860   5.129  0.2159  0.0873 -0.0090
 2508W        W18692   1.575  12.790  16.094  0.0577 -0.1566 -0.0661
 2509W        W18693   1.311   1.052  13.517  0.1729  0.5292  0.0673
 2510W        W18694  16.922  11.010   2.099  0.0009  0.1368 -0.0124
 2511W        W18695  16.469   7.853  12.710  0.2435  0.3216  0.0911
 2512W        W18696  16.152   6.453  13.184 -0.5371  0.0535  0.0536
 2513W        W18697   1.882  17.822  12.710 -0.1217  0.0411 -0.0935
 2514W        W18698   9.126  15.244   0.041 -0.4349 -0.0745 -0.2144
 2515W        W18699   6.088   6.417  16.873 -0.1452  0.3182  0.2421
 2516W        W18700   1.979   0.248  13.069 -0.2542  0.0679  0.0776
 2517W        W18701  14.081   3.379  11.918  0.3097 -0.0406 -0.2466
 2518W        W18702   1.075  16.002   0.077 -0.1675 -0.1363  0.1712
 2519W        W18703  12.865  14.432   1.456  0.1935 -0.0410  0.1318
 2520W        W18704  17.728   1.780  13.695 -0.1303 -0.5493 -0.1360
 2521W        W18705   2.502  17.751  16.827  0.1575  0.0282 -0.0106
 2522W        W18706  10.275  14.080   3.822  0.1729  0.1019 -0.1776
 2523W        W18707  17.222   4.909   1.204  0.0900 -0.1019 -0.1283
 2524W        W18708  12.025   0.607   3.280 -0.0118  0.1140 -0.1068
 2525W        W18709   2.532  16.815   6.171  0.1449 -0.0784 -0.3733
 2526W        W18710  13.059  11.982  11.871 -0.1032 -0.2103 -0.3154
 2527W        W18711  14.436   4.832  12.149 -0.0711  0.0289  0.2337
 2528W        W18712  11.477   2.870   1.827  0.1047  0.2470  0.0934
 2529W        W18713   0.098  17.706   0.736 -0.0743  0.0340 -0.2936
 2530W        W18714   1.583   9.147   4.775  0.2884 -0.2554 -0.2222
 2531W        W18715  16.695   1.873  14.816 -0.1875  0.1359  0.2968
 2532W        W18716  10.908   1.646  13.305  0.1341 -0.3279 -0.0437
 2533W        W18717   3.375   7.687  13.563  0.0317 -0.3153  0.0062
 2534W        W18718   8.685   7.038   2.562 -0.1406 -0.1263  0.4382
 2535W        W18719  12.131  13.125   4.882  0.1115  0.3169  0.1751
 2536W        W18720   1.386   2.847   1.569  0.0040  0.2471  0.2029
 2537W        W18721   4.279   3.528  16.639  0.0887 -0.1740  0.1802
 2538W        W18722   4.597  14.042  10.468 -0.0779 -0.1872  0.1483
 2539W        W18723  13.047  13.450   2.941 -0.0825  0.0395  0.2242
 2540W        W18724   9.016  14.871  12.457  0.2602 -0.0628 -0.0523
 2541W        W18725   3.725   5.931  15.008 -0.1227 -0.0740  0.1584
 2542W        W18726   9.992   3.769   4.786 -0.1718 -0.1621 -0.3776
 2543W        W18727  13.274   7.418   0.563 -0.3422  0.1452 -0.0865
 2544W        W18728  15.114   8.678  16.285 -0.0511 -0.2156 -0.1939
 2545W        W18729   3.435   3.616  12.249  0.0930  0.0788  0.1012
 2546W        W18730   4.877   0.336   0.219 -0.0222 -0.1073  0.1659
 2547W        W18731   2.276   6.543   4.222  0.0602  0.1221  0.0949
 2548W        W18732   6.516   2.443  11.845  0.0926 -0.1384 -0.1324
 2549W        W18733  15.011  10.625   1.214 -0.0967  0.3053 -0.3634
 2550W        W18734   6.341  12.393  11.861 -0.2046  0.1342  0.1772
 2551W        W18735  15.658   3.098   1.962  0.0509 -0.1708 -0.3068
 2552W        W18736   4.900  10.107  14.935 -0.2805 -0.1222  0.0629
 2553W        W18737   8.361  11.091   1.830 -0.0983 -0.0526 -0.1081
 2554W        W18738   7.411   5.228  15.727 -0.0481  0.1823  0.1068
 2555W        W18739  15.814  15.061  12.817  0.0948  0.0348 -0.2040
 2556W        W18740  14.690  12.179  14.459 -0.1724  0.0415 -0.2304
 2557W        W18741   6.558  16.809  16.203 -0.0904 -0.5304 -0.0079
 2558W        W18742   3.587  15.759   0.095 -0.2368  0.3116 -0.1459
 2559W        W18743  17.320   3.751  16.928  0.0101  0.2005  0.2082
 2560W        W18744   4.261   7.792  16.076  0.1968 -0.0710  0.0673
 2561W        W18745   2.258  14.831  14.207  0.2635  0.0058  0.3916
 2562W        W18746  12.517   3.497   1.217 -0.1399  0.4317  0.1377
 2563W        W18747   3.801   5.611  13.229  0.1527  0.1381 -0.0115
 2564W        W18748   4.631  16.610  13.944  0.1004 -0.0462  0.0073
 2565W        W18749  12.959   9.846  14.163 -0.2476  0.3316 -0.0694
 2566W        W18750   5.812   1.060   2.352  0.0174 -0.2440 -0.0740
 2567W        W18751   7.918   2.503   3.862  0.1476 -0.1420 -0.2308
 2568W        W18752   1.332   5.066   0.334  0.1822  0.1436 -0.1289
 2569W        W18753  13.746   2.312   2.318  0.0306  0.0920 -0.0481
 2570W        W18754   2.765   6.008   2.529 -0.0025  0.1150 -0.1823
 2571W        W18755  15.725  16.853   4.274 -0.0922  0.0433 -0.2024
 2572W        W18756   5.271  16.784  14.395 -0.2296  0.1072 -0.1699
 2573W        W18757   0.382   1.750   2.628  0.0259 -0.1968  0.1191
 2574W        W18758   7.627   0.553   3.264  0.1944  0.0877 -0.1028
 2575W        W18759  13.388   7.780   1.005 -0.1248 -0.0556 -0.1482
 2576W        W18760   5.769  12.488   3.921 -0.0606 -0.0412 -0.2908
 2577W        W18761  10.377  13.616  14.723  0.1772  0.1507  0.1103
 2578W        W18762   1.460   7.778  11.481 -0.0202 -0.1568  0.3206
 2579W        W18763   2.398   8.201   2.204  0.1369  0.0188 -0.1110
 2580W        W18764   7.321   8.578  15.674  0.1105  0.1327 -0.1881
 2581W        W18765  13.043  15.743   2.583 -0.0154  0.3546 -0.0782
 2582W        W18766   6.490   3.905   3.152 -0.1279 -0.3430 -0.0722
 2583W        W18767  13.736  16.032   0.302 -0.1724 -0.1658  0.2423
 2584W        W18768  13.402   2.925   2.912 -0.0970  0.4713  0.1172
 2585W        W18769  12.930  15.508  13.738  0.2398  0.0794  0.2206
 2586W        W18770  15.715  12.318   2.887 -0.2374 -0.3617  0.0646
 2587W        W18771   9.624  10.422   4.135  0.3218 -0.0253 -0.1666
 2588W        W18772   2.947   4.211   1.063  0.0241 -0.4203 -0.0300
 2589W        W18773   8.590   2.305  11.247  0.1232  0.0435 -0.3386
 2590W        W18774  10.791   5.686  12.659  0.0112 -0.2062  0.0026
 2591W        W18775   3.158  14.292   2.482 -0.1611 -0.0399  0.0042
 2592W        W18776  11.599  13.180  15.115 -0.4237  0.2332 -0.1318
 2593W        W18777  15.624   5.790   5.199 -0.1509 -0.6420  0.3557
 2594W        W18778  11.288   9.649   0.078  0.2261  0.2461  0.0018
 2595W        W18779  16.243  14.962   4.241  0.0406  0.0609 -0.0632
 2596W        W18780  11.511   0.601  13.722 -0.0647  0.3459  0.0211
 2597W        W18781   6.793  15.235  12.339 -0.3353 -0.0166 -0.1599
 2598W        W18782   0.081  15.374   4.997  0.1518 -0.2906 -0.0999
 2599W        W18783   7.993  10.512   3.726  0.0218 -0.1148 -0.1893
 2600W        W18784   2.434   2.821   4.125  0.1256 -0.1335 -0.5359
 2601W        W18785   6.200   1.442  11.711  0.2287 -0.1066  0.1687
 2602W        W18786  13.262   9.036   2.813  0.3131 -0.1219 -0.2715
 2603W        W18787   8.024  14.575  13.585  0.0232  0.2114  0.3336
 2604W        W18788  13.923  13.083  15.859 -0.2528 -0.1743 -0.0044
 2605W        W18789  11.272   9.830   0.536  0.0370  0.0626 -0.0789
 2606W        W18790   5.297  13.792   3.378  0.3797  0.2716  0.1686
 2607W        W18791  16.465  16.749  11.471 -0.1718  0.0839 -0.2082
 2608W        W18792   6.783   7.814   1.343 -0.0045  0.0500  0.0150
 2609W        W18793  17.511   4.978  16.699  0.0928 -0.0240  0.2911
 2610W        W18794   5.780   0.516   0.069  0.0764  0.2142  0.0943
 2611W        W18795   3.001  13.205   4.682 -0.0250 -0.2844 -0.1113
 2612W        W18796   8.005   9.492   4.103 -0.1746  0.1625 -0.1185
 2613W        W18797   3.991  16.799  11.792 -0.0881 -0.1444 -0.2791
 2614W        W18798   9.987  14.254   3.390 -0.1171  0.0848  0.2877
 2615W        W18799   3.957   3.963   5.438  0.0820  0.2514  0.1863
 2616W        W18800   9.601   8.372   2.975 -0.4376  0.1918 -0.2744
 2617W        W18801  16.543   1.056  12.141 -0.0748  0.4031  0.3552
 2618W        W18802   6.677  10.856  13.812 -0.0018  0.1426 -0.2049
 2619W        W18803  12.023   5.499  13.540  0.2240 -0.0213 -0.0397
 2620W        W18804   0.757   9.510  11.782 -0.2546  0.1545  0.1678
 2621W        W18805  12.430   2.536  10.625 -0.1738 -0.0400 -0.0722
 2622W        W18806  14.127   6.989   5.104 -0.4856  0.1513  0.3142
 2623W        W18807   5.539   8.244   3.160 -0.2063  0.1649 -0.2757
 2624W        W18808   4.550  11.569   4.171 -0.1275 -0.0813  0.0411
 2625W        W18809  12.185  12.869   1.484 -0.2810 -0.1925  0.2403
 2626W        W18810  10.687   9.553   5.839 -0.0417 -0.0814 -0.0052
 2627W        W18811  17.310  17.755  15.401  0.2487 -0.0199  0.1312
 2628W        W18812   7.144   4.605   1.416  0.1262 -0.0682 -0.1136
 2629W        W18813  15.911   0.400   0.487  0.1432 -0.1792 -0.4102
 2630W        W18814   6.910  17.759   5.702  0.1529  0.2068  0.0646
 2631W        W18815   8.857  13.485   0.977  0.0728  0.0191  0.1287
 2632W        W18816  12.748  16.794  14.515  0.0758  0.1000 -0.2739
 2633W        W18817  17.308   2.901   4.727 -0.0306  0.0104 -0.2909
 2634W        W18818  16.594  14.457   0.895 -0.0711 -0.2945 -0.2892
 2635W        W18819  11.326  17.683  13.412  0.1904 -0.1479 -0.2112
 2636W        W18820  15.718   7.622  11.847 -0.1226  0.1437 -0.1752
 2637W        W18821  15.827  15.739   3.820  0.1314 -0.1625 -0.0372
 2638W        W18822  13.025   7.160  15.528  0.2161  0.1615  0.0617
 2639W        W18823  13.204  13.832   2.065  0.1091  0.1071 -0.0856
 2640W        W18824  11.853  12.958   4.458 -0.0929 -0.0414  0.2858
 2641W        W18825  16.518   1.906  15.910  0.2430 -0.0418 -0.0646
 2642W        W18826   1.608   3.939   5.339 -0.0321 -0.4332 -0.1597
 2643W        W18827   8.508   5.968  13.127  0.0111 -0.1715 -0.0042
 2644W        W18828  15.362  11.273   1.423  0.0211 -0.0476 -0.0977
 2645W        W18829   9.782  16.212  12.478 -0.2359 -0.0728  0.1643
 2646W        W18830   9.507  14.143  14.335  0.0664 -0.0561 -0.3045
 2647W        W18831  14.724   9.265  12.301 -0.1256 -0.3309  0.2160
 2648W        W18832  16.845  16.570  15.544  0.1231 -0.1249  0.1194
 2649W        W18833   6.820   1.254  12.956 -0.1728 -0.1468 -0.0036
 2650W        W18834  13.798  16.461  15.176 -0.1507 -0.0333 -0.1745
 2651W        W18835   8.405  12.994   2.035 -0.1977  0.1945 -0.0362
 2652W        W18836  17.460   0.085   2.139 -0.0619  0.1306 -0.0583
 2653W        W18837   8.250   1.019  13.153 -0.1275 -0.0906 -0.0105
 2654W        W18838   1.469   0.053  12.971 -0.0520  0.3208 -0.0370
 2655W        W18839  10.014   4.796  12.964  0.2627  0.3657  0.0493
 2656W        W18840   2.911  15.051   4.870  0.0733  0.1796 -0.0331
 2657W        W18841  16.309   5.382  14.225 -0.1103  0.0569 -0.1740
 2658W        W18842   0.447   3.355   0.300 -0.1245  0.1172  0.1131
 2659W        W18843   3.147  10.232  13.603 -0.0087 -0.0053 -0.1115
 2660W        W18844  12.861   3.638   3.490 -0.2253  0.0449 -0.2278
 2661W        W18845  17.282  10.152  15.686 -0.0933 -0.1762  0.0203
 2662W        W18846  11.931  15.271  13.607 -0.0337 -0.2206 -0.0728
 2663W        W18847  12.340   5.223   3.126  0.0192 -0.1129  0.0723
 2664W        W18848  13.364  12.157  15.422  0.1225  0.1127 -0.0073
 2665W        W18849   6.326   6.172   5.814 -0.0693 -0.0853  0.0061
 2666W        W18850   7.414   2.612   1.858 -0.0061  0.1212 -0.0754
 2667W        W18851  16.980   6.028   6.616  0.3034  0.1335 -0.0853
 2668W        W18852   1.264  16.366   4.196 -0.1925  0.0361 -0.0529
 2669W        W18853   4.953   4.717   3.027  0.1687  0.2174 -0.3264
 2670W        W18854  10.385   8.211  15.939  0.2353  0.0143 -0.1668
 2671W        W18855  11.333  13.398  13.425 -0.0901 -0.0181  0.2082
 2672W        W18856  10.847  17.467  13.430 -0.0735  0.0839  0.0715
 2673W        W18857  12.643  11.899  14.806 -0.0193  0.0261 -0.2752
 2674W        W18858  17.320   3.257   5.156  0.0988 -0.2916 -0.0981
 2675W        W18859   3.180  14.902  14.703  0.0888  0.0824  0.0502
 2676W        W18860   2.616   5.048   1.383 -0.3892  0.0106 -0.2509
 2677W        W18861  11.606   1.267  13.483 -0.0462  0.4524  0.0593
 2678W        W18862   0.538  15.348  16.370  0.1612  0.1109  0.1460
 2679W        W18863   5.203   8.112  14.562 -0.3254  0.0967 -0.1237
 2680W        W18864  15.141   9.191  15.184  0.2267  0.1555 -0.4899
 2681W        W18865   3.439   2.333  13.127  0.0896 -0.0188 -0.4025
 2682W        W18866  16.763   2.451   0.247  0.1688  0.1296 -0.0669
 2683W        W18867   4.840  16.943   5.985  0.0667 -0.1728  0.0389
 2684W        W18868   4.153   2.087   1.513  0.0182  0.3440  0.0560
 2685W        W18869   2.884  16.633  13.006 -0.2855 -0.0266  0.2183
 2686W        W18870   2.496   1.319  12.804 -0.1023 -0.0637  0.1353
 2687W        W18871  10.679  16.593   2.830  0.2977  0.0711  0.1519
 2688W        W18872  15.025   6.703   3.996  0.2712 -0.1964  0.0928
 2689W        W18873  14.344   9.341   1.407  0.0975 -0.0859 -0.1482
 2690W        W18874   5.380  11.346  11.572  0.1134 -0.1570 -0.1371
 2691W        W18875   5.570  17.818   0.231 -0.1305 -0.2514  0.0718
 2692W        W18876   5.883   0.515   2.559 -0.2886  0.1523 -0.1220
 2693W        W18877  10.356  17.621  15.716  0.1492  0.0007 -0.0453
 2694W        W18878  10.268   6.106  14.532  0.3206  0.2209  0.1300
 2695W        W18879  12.438  16.975   3.587 -0.0982 -0.0100 -0.2183
 2696W        W18880   2.094  15.811  14.529  0.1115  0.0313 -0.0752
 2697W        W18881   3.421   2.682   0.573 -0.1071  0.3043 -0.2073
 2698W        W18882   4.328  13.878  12.882  0.0564  0.0754 -0.0020
 2699W        W18883  11.132  12.035   1.488 -0.0592 -0.0961 -0.1300
 2700W        W18884   7.526   6.903  16.281 -0.2766 -0.0864  0.1172
 2701W        W18885  16.058  14.283  15.767  0.0275  0.1917 -0.0788
 2702W        W18886   6.254  15.507  16.099 -0.2322 -0.3070 -0.0448
 2703W        W18887   4.507  16.661  15.211  0.3106  0.1635 -0.2205
 2704W        W18888   8.780   3.904  15.675 -0.0310  0.1660  0.0425
 2705W        W18889   9.810  15.989   4.087  0.0475  0.1743  0.1893
 2706W        W18890  15.998   0.865   4.383 -0.2551  0.0233  0.3141
 2707W        W18891   7.383   1.725  16.514  0.1849 -0.0838  0.0744
 2708W        W18892   8.603   8.833  13.986  0.0461  0.2055  0.1863
 2709W        W18893   9.390   2.963  16.825 -0.0830 -0.0347  0.2091
 2710W        W18894   1.326  10.248   4.605  0.2497  0.1030 -0.1354
 2711W        W18895  17.667   1.616   5.301  0.4400 -0.1255  0.0280
 2712W        W18896   6.381   3.139   4.248  0.0213 -0.1328  0.0216
 2713W        W18897  10.827   4.427   1.587  0.0440 -0.2623  0.0658
 2714W        W18898   5.589  15.890   4.140 -0.1899  0.1101 -0.0673
 2715W        W18899   3.704   5.722  11.893 -0.0426  0.0098  0.1255
 2716W        W18900  12.273   0.829   2.868 -0.2900  0.1576 -0.1493
 2717W        W18901  14.600  13.913   1.171  0.0295  0.0064 -0.0655
 2718W        W18902   5.974   6.148   0.761 -0.3933  0.2626  0.1273
 2719W        W18903  13.794  11.189  15.242 -0.0340 -0.0961 -0.2296
 2720W        W18904   4.695   0.547  11.454  0.0426 -0.1587  0.3531
 2721W        W18905  10.879   2.108   3.852  0.0185  0.0006  0.1092
 2722W        W18906  12.903   5.691  12.179 -0.0880 -0.0955  0.0888
 2723W        W18907   7.462   2.444   4.775  0.0434  0.0676 -0.2431
 2724W        W18908   2.914  10.581  13.087  0.0890  0.1096  0.1625
 2725W        W18909   3.076   3.460   3.295 -0.1930 -0.2155  0.0226
 2726W        W18910   2.416   1.699  13.644 -0.1727 -0.1088 -0.0131
 2727W        W18911   6.267   4.306   3.370  0.1365  0.0667  0.0287
 2728W        W18912  12.030  14.781  13.826 -0.0951  0.1829 -0.0694
 2729W        W18913  14.340   2.309  14.595  0.4877 -0.1929 -0.1194
 2730W        W18914   1.837   8.305  14.739 -0.0565  0.0732 -0.2344
 2731W        W18915   6.202   3.656  14.522  0.0739  0.0233 -0.0398
 2732W        W18916  12.212   0.767   3.894 -0.2811 -0.3527  0.2863
 2733W        W18917  11.103  14.647   0.926 -0.1184 -0.0438  0.1017
 2734W        W18918   6.141   4.168   2.914 -0.1239 -0.0800  0.1275
 2735W        W18919  16.229   4.110   5.481 -0.3194  0.1065 -0.1849
 2736W        W18920  12.885  12.197  13.143  0.0966 -0.0194 -0.4108
 2737W        W18921   5.879   2.159  16.466  0.0600  0.3782 -0.2274
 2738W        W18922   1.386  15.861   4.388  0.1793  0.0678  0.0961
 2739W        W18923  15.199   0.952   3.169 -0.0489 -0.1825  0.1008
 2740W        W18924   0.214   8.934   6.284  0.0807 -0.3046  0.1233
 2741W        W18925  15.851   7.020   3.520 -0.0562 -0.0001  0.1367
 2742W        W18926   0.238   5.461  11.564 -0.1340  0.2234 -0.1992
 2743W        W18927  15.967  10.509  12.644  0.2201 -0.2667 -0.1723
 2744W        W18928  14.774  17.693   3.613  0.1467 -0.0445 -0.0065
 2745W        W18929  11.038   9.649  12.389  0.2761 -0.0409  0.0560
 2746W        W18930  15.225   6.659  14.258 -0.2702 -0.0213 -0.1391
 2747W        W18931  10.929   4.383  13.053  0.2215 -0.1585 -0.0959
 2748W        W18932   0.259   3.872   1.069  0.1265 -0.2223 -0.1196
 2749W        W18933   4.495   9.555  12.177 -0.3110  0.1019  0.2864
 2750W        W18934   5.671  14.324   3.377 -0.2248  0.2893  0.1486
 2751W        W18935  12.879   8.631  15.924 -0.0848 -0.1157 -0.0675
 2752W        W18936  17.448  15.669   4.372  0.0710  0.0108  0.1838
 2753W        W18937  11.795  10.603  15.684 -0.1436  0.1288  0.1644
 2754W        W18938   5.375   0.890  13.028 -0.1788 -0.4637 -0.0807
 2755W        W18939  16.456   5.932   5.254 -0.1331  0.0798 -0.4374
 2756W        W18940  17.156  13.309  15.798  0.1017  0.1631  0.1325
 2757W        W18941   8.642   0.734  11.956 -0.0071  0.2559 -0.0097
 2758W        W18942   5.543   4.357   0.976  0.1159  0.2515  0.3983
 2759W        W18943  16.275  15.296  12.403 -0.1656  0.1277 -0.1278
 2760W        W18944   1.306  13.799  13.952  0.1611 -0.0454 -0.3486
 2761W        W18945  12.362  17.171   0.735  0.0673 -0.1203 -0.4636
 2762W        W18946   9.018   2.222   3.371 -0.0104 -0.0497 -0.2848
 2763W        W18947  13.154   8.726  15.071 -0.0179  0.2218 -0.0126
 2764W        W18948   7.984  12.637   4.958 -0.2023 -0.2277  0.2040
 2765W        W18949  17.129  11.667   4.313  0.0504 -0.3574  0.0499
 2766W        W18950  16.561   8.085  15.468 -0.2981 -0.2105  0.1568
 2767W        W18951   4.241  11.222  16.145 -0.0669 -0.1903  0.1657
 2768W        W18952   5.744  17.471   1.036  0.0783  0.1032  0.0424
 2769W        W18953  17.048  17.467   0.356  0.2599  0.1434 -0.0453
 2770W        W18954   7.536  10.434   4.027  0.2009  0.0643  0.1628
 2771W        W18955   5.409   3.699   2.382  0.3023 -0.1142  0.2252
 2772W        W18956   7.565  10.331  12.012 -0.2167  0.0205  0.0684
 2773W        W18957   8.862   7.740   0.631  0.2140 -0.2909  0.0588
 2774W        W18958  15.500  13.437  13.791  0.1651 -0.0629 -0.0665
 2775W        W18959  13.784   1.353  11.822  0.0891 -0.4512 -0.0427
 2776W        W18960  11.265  13.790  11.963 -0.2624  0.0079  0.1032
 2777W        W18961   9.760   7.850   5.316 -0.1560  0.1811 -0.1485
 2778W        W18962  16.247   9.392  13.615 -0.0431 -0.2074  0.0412
 2779W        W18963  14.667  13.126   3.266  0.0095 -0.1673 -0.1373
 2780W        W18964   7.821   0.672   5.237  0.2606  0.2367  0.1111
 2781W        W18965   9.706   1.441  12.163 -0.0469 -0.4393 -0.0342
 2782W        W18966   0.459   6.698   6.167 -0.0017  0.0884 -0.0559
 2783W        W18967   6.574   8.035   4.125 -0.3648  0.0541 -0.1269
 2784W        W18968   4.103  11.051   3.120 -0.1841  0.1223  0.0932
 2785W        W18969  17.293  14.394   2.257  0.0464  0.1923 -0.1060
 2786W        W18970  11.785   6.613   5.576 -0.1490 -0.1507  0.1022
 2787W        W18971   1.386  13.586  16.779  0.0597 -0.1216  0.1202
 2788W        W18972  17.263   0.621  12.952  0.0746 -0.3964  0.0085
 2789W        W18973   4.859   2.190  12.356  0.1365 -0.1671 -0.0857
 2790W        W18974   1.027   8.216  13.238  0.2088 -0.2293  0.0567
 2791W        W18975   5.342   2.220  12.425  0.1641  0.2372  0.0771
 2792W        W18976   3.258  16.586  11.656 -0.0734 -0.0378 -0.1151
 2793W        W18977  11.923   3.186   1.980  0.3801  0.2039  0.1700
 2794W        W18978   5.755   6.737  16.030 -0.1890  0.0035  0.1570
 2795W        W18979  15.042  15.640   3.078 -0.0369 -0.1381 -0.3345
 2796W        W18980  11.371  15.067  11.609 -0.6232 -0.1963 -0.0676
 2797W        W18981   7.285  15.160  15.321 -0.1790  0.0586  0.0121
 2798W        W18982   9.491   8.768  13.061 -0.1183 -0.0493 -0.1328
 2799W        W18983  10.723   1.572  12.731  0.0938  0.2541 -0.0454
 2800W        W18984   5.604   2.653  16.680  0.0221  0.5569  0.3408
 2801W        W18985  17.726   9.446  14.707  0.0954  0.2048  0.0373
 2802W        W18986  14.655   4.733   0.126 -0.0848 -0.0121  0.0986
 2803W        W18987   9.357   5.937  14.941  0.0138 -0.0401  0.0385
 2804W        W18988   0.181  11.856   1.514  0.2136 -0.2960  0.0537
 2805W        W18989   2.607   9.044   1.972 -0.1953 -0.2938  0.0047
 2806W        W18990  16.475   3.456   3.845 -0.1079 -0.1604 -0.0222
 2807W        W18991   8.031  17.311   1.866  0.3168  0.0089 -0.1292
 2808W        W18992   8.672   2.978   0.456  0.0188 -0.0350  0.1427
 2809W        W18993   4.372   3.474   3.692 -0.0979  0.1289  0.1824
 2810W        W18994   9.991   2.418   3.842  0.0790 -0.1111 -0.0423
 2811W        W18995   5.094  12.904  12.962  0.3603  0.1172 -0.2525
 2812W        W18996  13.844  17.729  15.399  0.0335  0.0406 -0.1418
 2813W        W18997  10.155   4.585   4.756  0.0674  0.4036  0.0722
 2814W        W18998  14.940   0.853  15.363 -0.0168 -0.1553 -0.3828
 2815W        W18999  16.663  11.780   4.158 -0.2188  0.0624  0.0386
 2816W        W19000   2.884   6.400   2.888 -0.0189 -0.2540 -0.2417
 2817W        W19001  12.490   7.024  16.157  0.2053 -0.3146 -0.3174
 2818W        W19002   0.095   6.982   3.311 -0.0712  0.1018 -0.1425
 2819W        W19003   9.875   2.236  12.300  0.1686 -0.0191  0.1907
 2820W        W19004   7.104  10.014  11.908 -0.1190 -0.0020 -0.2882
 2821W        W19005   1.397  14.818  14.740  0.0295  0.3266 -0.1144
 2822W        W19006   6.936  15.859  12.451 -0.0557 -0.0622  0.1451
 2823W        W19007   6.880   9.567  12.028 -0.0193 -0.0329 -0.0643
 2824W        W19008   5.994   1.097   5.910 -0.1009  0.0393  0.0602
 2825W        W19009   3.074   6.923  12.243  0.2878  0.1291  0.1032
 2826W        W19010   7.629   8.215  14.789  0.1115 -0.3219  0.1196
 2827W        W19011  15.620  12.758   0.284 -0.0325 -0.0064 -0.2038
 2828W        W19012   5.605   6.457  15.113  0.0800 -0.0676 -0.2339
 2829W        W19013  10.893  12.167  13.618  0.0047 -0.0835  0.1127
 2830W        W19014   2.828   8.465  12.235 -0.0436  0.1509  0.1711
 2831W        W19015   3.920   2.187   2.335  0.2699  0.2341  0.0837
 2832W        W19016   1.447  11.468   5.053  0.0035  0.1245 -0.0550
 2833W        W19017   3.532  12.403  16.456  0.1433  0.1109  0.1941
 2834W        W19018  14.863   1.159   1.017  0.0067  0.2011 -0.2999
 2835W        W19019   0.596  14.754  11.536 -0.0939 -0.4925 -0.2156
 2836W        W19020   3.400  16.104  11.497 -0.0398  0.0546  0.0823
 2837W        W19021  13.882   6.576   5.626  0.0425 -0.4655  0.0257
 2838W        W19022   7.743   6.839  12.490  0.0510  0.0611  0.0962
 2839W        W19023  17.509   7.968   4.961  0.0509  0.1738  0.2114
 2840W        W19024   9.490  17.049  12.032 -0.1108 -0.2632 -0.0455
 2841W        W19025   2.646   9.636  15.093  0.0388 -0.0155  0.0809
 2842W        W19026   2.164  11.934  13.687  0.2531  0.0531  0.2006
 2843W        W19027  11.134  11.768  15.689  0.6072  0.1775  0.1001
 2844W        W19028  16.786   0.963  13.732  0.0609 -0.1916 -0.2661
 2845W        W19029  10.514  17.786  16.178 -0.0392 -0.0470 -0.0414
 2846W        W19030  12.109  15.084  15.948 -0.1200  0.0586  0.3094
 2847W        W19031   6.549  17.351   4.627  0.0114 -0.0590 -0.0136
 2848W        W19032   8.239   1.759  11.939  0.1225 -0.3015 -0.1295
 2849W        W19033  13.218  14.720  12.277  0.2097  0.2910  0.1640
 2850W        W19034   5.207   8.056   5.984 -0.1546 -0.1605  0.0116
 2851W        W19035   5.729  16.415  12.830 -0.3019 -0.0240 -0.2862
 2852W        W19036  16.469   2.848  14.602  0.0703 -0.3432 -0.0116
 2853W        W19037  12.853   3.300   1.547  0.0216 -0.0552  0.3096
 2854W        W19038   3.266  10.814  12.748  0.1073 -0.0107 -0.2279
 2855W        W19039   6.642   1.794  14.134 -0.0332  0.1181  0.0866
 2856W        W19040   2.140  17.124   2.868  0.0678 -0.0840  0.3208
 2857W        W19041  11.268  14.154   4.277  0.4218 -0.3578 -0.0413
 2858W        W19042   1.755  12.083   5.475 -0.0161  0.1360 -0.0613
 2859W        W19043   6.169   4.235  15.463  0.0723  0.1939  0.1029
 2860W        W19044   0.594   7.929   4.427  0.1271  0.0248 -0.0381
 2861W        W19045  11.392   5.741  16.185 -0.3877 -0.0267  0.0029
 2862W        W19046   7.273  15.895  14.374  0.1518  0.4047 -0.3444
 2863W        W19047  13.415  13.701  15.519  0.0266  0.0374  0.2820
 2864W        W19048  10.188  11.144  16.457 -0.1154 -0.1354 -0.1314
 2865W        W19049   1.996   1.866  14.860 -0.1501 -0.2998 -0.1837
 2866W        W19050   5.348  12.355   2.237  0.0193 -0.0506 -0.1864
 2867W        W19051   9.015  16.604  11.966 -0.0551  0.0201 -0.0439
 2868W        W19052  13.415   9.950   1.791 -0.1120 -0.0369 -0.0494
 2869W        W19053   0.334   0.179   5.641  0.2693  0.3231 -0.1155
 2870W        W19054   0.077   8.758  12.022  0.3335  0.1446  0.1582
 2871W        W19055  14.105   8.798  14.896 -0.2366  0.1630 -0.0196
 2872W        W19056  15.450  11.548  14.842  0.0120 -0.0606  0.1275
 2873W        W19057   8.174   6.548   4.328 -0.0475  0.1758 -0.0074
 2874W        W19058  16.829   9.007  13.219 -0.2009 -0.1113  0.0572
 2875W        W19059   0.923  15.021  16.189  0.0566 -0.0188 -0.2069
 2876W        W19060   4.869  13.631   3.220 -0.1549 -0.1276 -0.1590
 2877W        W19061  13.597   4.136   4.082 -0.2753 -0.1326 -0.1141
 2878W        W19062  12.094   8.696   5.071 -0.0703 -0.0151 -0.0323
 2879W        W19063   3.473  12.364   3.035 -0.0422  0.0425  0.0737
 2880W        W19064  16.090   6.763  13.604 -0.1711 -0.1354 -0.0775
 2881W        W19065   9.112   4.146  14.404  0.1593  0.0361 -0.2872
 2882W        W19066   2.376  17.635   4.220  0.1641  0.6616 -0.1475
 2883W        W19067   8.937  15.538  13.046 -0.3815 -0.1385  0.1574
 2884W        W19068   9.468   8.186   4.329  0.1313  0.0693  0.2032
 2885W        W19069   1.313  14.817  16.464 -0.1134 -0.1341 -0.0729
 2886W        W19070   5.443   3.404   3.356  0.2173 -0.1438 -0.1502
 2887W        W19071  15.482  13.225  14.331  0.1440 -0.3592 -0.0168
 2888W        W19072   7.252   1.093   0.834 -0.0784 -0.3753 -0.1858
 2889W        W19073  14.849  14.599   6.165  0.1431 -0.1662 -0.0216
 2890W        W19074  17.055   7.748   5.192 -0.1806  0.2870  0.1554
 2891W        W19075   3.894   0.827  16.341  0.0711 -0.1099 -0.1151
 2892W        W19076  11.009   7.825  16.433 -0.2350  0.1521  0.0815
 2893W        W19077  13.867  16.075   1.297  0.0193 -0.2513  0.2174
 2894W        W19078  12.145  16.686   1.673 -0.4233  0.3238  0.3850
 2895W        W19079  12.001  12.708   0.834 -0.1563 -0.2475  0.0138
 2896W        W19080   6.295  17.128  11.456 -0.0761  0.1584 -0.2796
 2897W        W19081   8.886   8.415   3.795 -0.1239 -0.2710  0.0174
 2898W        W19082   0.111   9.339  15.750  0.0550 -0.2308 -0.1214
 2899W        W19083  16.675   7.370  16.151  0.0042  0.0952 -0.1574
 2900W        W19084   4.702  15.063  16.469 -0.0581 -0.1619  0.0310
 2901W        W19085  12.898   8.337  12.199  0.1130 -0.0501 -0.1483
 2902W        W19086   3.632   0.940  13.550  0.1814 -0.1127  0.0463
 2903W        W19087  10.112  16.833  13.715 -0.0622  0.2704  0.0939
 2904W        W19088  15.928  15.560   3.278 -0.1951 -0.1463 -0.2417
 2905W        W19089   1.123  12.747  16.579 -0.0545 -0.1438  0.2018
 2906W        W19090   6.377  16.703   2.325  0.0990 -0.0460 -0.0277
 2907W        W19091   0.012  17.022  16.884 -0.2520 -0.1474  0.1585
 2908W        W19092  11.446  10.619   5.694  0.1428 -0.0411  0.1778
 2909W        W19093  17.243  12.996  12.694 -0.1496 -0.0889 -0.1831
 2910W        W19094   0.925   9.850  12.121  0.1643  0.0432 -0.1742
 2911W        W19095  16.926  11.520  14.882 -0.0116 -0.2884  0.0222
 2912W        W19096   2.948   2.694   1.551  0.1302 -0.1534 -0.1916
 2913W        W19097   6.071   9.637   2.476  0.2964  0.1482  0.0666
 2914W        W19098   3.264  16.819   2.474 -0.1524  0.0520  0.1051
 2915W        W19099  12.451   3.889  15.808 -0.0907  0.1675 -0.0063
 2916W        W19100   1.075   2.150  13.205 -0.5537 -0.0893 -0.2145
 2917W        W19101   4.957  12.685   2.286 -0.2232 -0.2091 -0.1580
 2918W        W19102   8.315   3.921   5.739 -0.3394  0.0380 -0.2077
 2919W        W19103  10.599   8.674   1.950  0.0213  0.1689  0.0487
 2920W        W19104  12.662   6.243   5.806  0.3652  0.1300 -0.0654
 2921W        W19105  14.888   2.209   4.352 -0.2289  0.0545 -0.2270
 2922W        W19106   9.406   9.176  13.945 -0.3552  0.0179 -0.3087
 2923W        W19107  15.712  15.304  11.874  0.3465 -0.3708 -0.0645
 2924W        W19108   3.368   4.999   2.536 -0.1587 -0.1782  0.0941
 2925W        W19109   0.941   5.529   1.939 -0.1450  0.0907 -0.0312
 2926W        W19110  15.679  10.798  12.265  0.3867 -0.1893 -0.0945
 2927W        W19111   8.188  11.445   2.639 -0.7070  0.1411  0.0109
 2928W        W19112  15.285   5.659  13.908  0.2834  0.0251  0.0736
 2929W        W19113   5.835   7.951   3.590 -0.0620  0.0501 -0.1588
 2930W        W19114   2.189   9.962  13.091  0.1047 -0.0608  0.3384
 2931W        W19115   1.543   0.974   0.820 -0.0095  0.3084  0.1001
 2932W        W19116   5.157   6.208  13.243 -0.0075  0.1633  0.0447
 2933W        W19117  14.393   4.686  12.633  0.3973  0.3845 -0.0347
 2934W        W19118  14.203  14.196  11.721 -0.1483  0.1036 -0.0643
 2935W        W19119  16.307  16.923   5.098  0.3877 -0.2466  0.1008
 2936W        W19120   3.720   4.569  14.703  0.2912  0.1981 -0.0913
 2937W        W19121  12.868   1.990   4.850  0.3429  0.3328  0.0196
 2938W        W19122  16.829   4.993   4.296  0.0096  0.0842 -0.0708
 2939W        W19123  12.527   8.813  14.104 -0.1329  0.0566 -0.2222
 2940W        W19124   5.344   2.515   5.076  0.2780  0.1890  0.1646
 2941W        W19125  11.925   1.338   5.165 -0.1861 -0.1147 -0.1347
 2942W        W19126  15.482   6.198   4.949 -0.0208  0.0431  0.2726
 2943W        W19127   1.053   0.688   1.848  0.1954 -0.3003  0.0852
 2944W        W19128   0.585  15.414   3.341 -0.0875  0.0486 -0.1271
 2945W        W19129   8.759  16.475  16.535  0.1792  0.5046 -0.3891
 2946W        W19130   8.308  16.269  15.271  0.0688 -0.1191 -0.1974
 2947W        W19131   0.574   1.260  14.136 -0.0608  0.2218 -0.3428
 2948W        W19132   0.251   0.674  13.332 -0.0344 -0.5605 -0.1885
 2949W        W19133  16.641  14.069   6.339 -0.2655  0.1344 -0.2483
 2950W        W19134   9.880  10.409  16.679  0.0466 -0.1145  0.1341
 2951W        W19135  13.869   1.312  12.994 -0.1483  0.2231 -0.2271
 2952W        W19136   4.002  16.174  14.358 -0.1048 -0.1282  0.2232
 2953W        W19137   1.120   2.064  11.598  0.3715 -0.0183 -0.0689
 2954W        W19138   0.325   2.907   5.006  0.1633 -0.0064 -0.0472
 2955W        W19139   6.102   5.805  15.780  0.0682  0.1901  0.2311
 2956W        W19140  12.255   4.052  12.320  0.0684  0.0054  0.5353
 2957W        W19141   0.446   5.312  14.567 -0.1700 -0.2060 -0.2546
 2958W        W19142   7.779   5.385  14.412  0.0266 -0.2088  0.2800
 2959W        W19143  10.553   3.261  16.044 -0.0673  0.1411 -0.4181
 2960W        W19144  17.649  13.457   3.188 -0.0491 -0.1909  0.0270
 2961W        W19145   2.216   2.633  14.423 -0.0606  0.0696 -0.0795
 2962W        W19146   2.757   9.649   2.111 -0.2367 -0.2495 -0.0746
 2963W        W19147   3.576  17.836   0.452 -0.0968  0.1603 -0.1858
 2964W        W19148  12.056  17.161   5.546  0.0258  0.1483 -0.1187
 2965W        W19149   4.110  13.482  14.587  0.0504  0.1240 -0.1078
 2966W        W19150  13.846   9.195   2.262 -0.0290 -0.0636  0.1004
 2967W        W19151  11.967   1.919   0.402  0.0084  0.1732  0.0342
 2968W        W19152   7.181   2.869   5.128 -0.1425  0.2764 -0.0378
 2969W        W19153   7.407  13.652   2.046 -0.0677 -0.0973 -0.2920
 2970W        W19154  10.381   8.034   4.880 -0.2138  0.3548  0.2910
 2971W        W19155  12.802  14.826  13.841  0.2822 -0.1234 -0.1916
 2972W        W19156   2.642   1.944  11.697  0.0882 -0.1454 -0.0559
 2973W        W19157   0.409  14.531  14.444 -0.0717 -0.0940 -0.1670
 2974W        W19158   3.935   1.550  15.322  0.0922 -0.0683 -0.0160
 2975W        W19159  11.801   7.043  16.226 -0.0151  0.0247 -0.1178
 2976W        W19160   9.025   4.261  13.832 -0.1688 -0.2374 -0.1363
 2977W        W19161  16.767  13.406  12.008 -0.2906  0.0837 -0.0416
 2978W        W19162  15.342  10.798  16.018 -0.0520 -0.0172 -0.1491
 2979W        W19163  14.195  14.347  13.865 -0.1669 -0.0021 -0.2991
 2980W        W19164  12.495   4.744  11.614  0.1291 -0.0301 -0.1579
 2981W        W19165  15.759  16.744   1.630 -0.1253 -0.0348 -0.1871
 2982W        W19166   9.632  17.722  12.391  0.1524  0.1201 -0.2476
 2983W        W19167   3.943   1.402   5.124  0.2822 -0.0120 -0.0175
 2984W        W19168   3.073   3.049   2.424  0.0931  0.2253  0.1114
 2985W        W19169  11.850   7.647   0.258  0.1592  0.1107  0.0598
 2986W        W19170   1.813  12.124   3.090 -0.3268 -0.2866 -0.0883
 2987W        W19171   2.859  11.207  13.666 -0.0868  0.0614 -0.0340
 2988W        W19172   7.728   9.176   2.149  0.1354  0.1714 -0.2787
 2989W        W19173   3.288   7.408   2.128 -0.0607 -0.1941  0.0126
 2990W        W19174  12.390   3.395  13.580 -0.0132  0.0529 -0.0769
 2991W        W19175   4.295  13.392  16.133  0.4434  0.2502  0.0973
 2992W        W19176   5.701  11.928   0.192 -0.1455 -0.0053  0.0930
 2993W        W19177   2.352  14.047   3.666 -0.2686 -0.1896 -0.0362
 2994W        W19178   6.836   3.132  16.620  0.1703  0.0072 -0.0701
 2995W        W19179   8.575  14.794  15.682 -0.2527 -0.0363  0.0390
 2996W        W19180   8.965  11.180  16.306  0.2773 -0.0257 -0.0526
 2997W        W19181   9.288  17.776  11.386  0.3297  0.0581 -0.0020
 2998W        W19182  17.367   2.435  12.019  0.1493 -0.3116 -0.1704
 2999W        W19183   3.923  10.635   2.923 -0.1225  0.3489 -0.0261
 3000W        W19184  14.711  16.536   3.743  0.0158  0.1060  0.2300
 3001W        W19185  15.177  12.958  15.930 -0.0484 -0.0179  0.0235
 3002W        W19186   7.654   3.123  16.228 -0.0571  0.1853  0.2626
 3003W        W19187   1.368  12.896   1.867  0.4262 -0.0298 -0.5484
 3004W        W19188   1.551  12.285   1.181  0.0490 -0.1458  0.0988
 3005W        W19189   4.090   7.211   2.429 -0.0228 -0.0723 -0.3014
 3006W        W19190   7.985  11.415   1.035  0.2214  0.1668 -0.3576
 3007W        W19191   3.740  13.108  12.419 -0.3838  0.1580 -0.0858
 3008W        W19192   2.992  17.527   1.755 -0.0803 -0.2338 -0.1504
 3009W        W19193  15.507  14.055  16.273  0.0404 -0.0295  0.0650
 3010W        W19194   8.446   6.182   4.082  0.2430  0.2058 -0.1315
 3011W        W19195  15.831   3.320  13.533 -0.2483  0.2403 -0.2416
 3012W        W19196   0.313   1.489  13.108 -0.1979 -0.1555  0.1233
 3013W        W19197  10.770  12.659  12.116 -0.1532 -0.0881  0.3609
 3014W        W19198   7.984  15.895  15.669 -0.0328 -0.1400 -0.0650
 3015W        W19199   3.666   6.640   5.924 -0.1974  0.0902  0.0660
 3016W        W19200   9.659   5.269  14.843 -0.0585  0.1503  0.4647
 3017W        W19201   4.055  14.053  13.643 -0.0121  0.0300  0.1845
 3018W        W19202   2.023   9.111   1.914  0.1952  0.0877 -0.2198
 3019W        W19203  12.337  10.054  12.421 -0.1669 -0.0240  0.1685
 3020W        W19204   1.427   8.893   1.760 -0.0465 -0.0231 -0.0879
 3021W        W19205   1.099   3.021  15.868  0.1961  0.0960 -0.1309
 3022W        W19206   9.975   9.914   3.757 -0.2246  0.0817 -0.1330
 3023W        W19207   0.451   0.934   0.281 -0.1984 -0.1206 -0.2579
 3024W        W19208   9.157  16.200   3.651  0.1885 -0.1388 -0.1038
 3025W        W19209  10.666  11.559  15.729  0.1995 -0.0373  0.0152
 3026W        W19210   0.261   7.236   5.476  0.3015 -0.1383  0.0048
 3027W        W19211  11.634   5.482   0.476 -0.1425  0.2572 -0.1187
 3028W        W19212   6.991  14.622   3.066 -0.0111 -0.0967 -0.1276
 3029W        W19213  15.776   8.131   4.747  0.1395 -0.1080  0.1657
 3030W        W19214  13.166   0.849   4.213  0.1148 -0.0368  0.0714
 3031W        W19215  15.937  14.468  11.706 -0.2065 -0.8307 -0.2216
 3032W        W19216   1.284   8.797  12.036  0.0940  0.1359  0.1085
 3033W        W19217   2.908  14.133  16.497 -0.1689 -0.0870  0.0031
 3034W        W19218  11.231   1.145   1.307  0.2855  0.0550 -0.0491
 3035W        W19219   6.164   2.026  13.969  0.0408 -0.2762  0.1493
 3036W        W19220   1.956  12.636   0.224  0.1831 -0.0944 -0.4463
 3037W        W19221  15.799   1.544   0.944 -0.0746  0.0002  0.1589
 3038W        W19222   3.821   5.789   5.621 -0.2630 -0.1151 -0.1106
 3039W        W19223   2.315  14.187   0.612 -0.0813  0.1493  0.2433
 3040W        W19224  13.059  10.726   1.994 -0.2447 -0.1534 -0.0329
 3041W        W19225  13.220   0.609  12.939  0.1846  0.0711 -0.0789
 3042W        W19226   2.576  12.386  15.860  0.0094  0.2231  0.1737
 3043W        W19227   0.728  16.405  14.413  0.3322  0.1943 -0.0347
 3044W        W19228   9.571   9.277   4.322  0.1065  0.1001 -0.0542
 3045W        W19229   7.309   5.971   3.390 -0.0802 -0.0434  0.3649
 3046W        W19230   4.683   6.273  16.702  0.2415  0.1988  0.2798
 3047W        W19231   6.900  15.385   2.278  0.2278 -0.4103 -0.0891
 3048W        W19232   2.035   3.228   2.891 -0.1310  0.0222  0.2071
 3049W        W19233  12.742  10.391  12.541  0.0830 -0.2741  0.3117
 3050W        W19234   6.607   6.862  16.595  0.0661  0.0452  0.1804
 3051W        W19235  17.467  15.701  13.892  0.0370 -0.0370  0.1843
 3052W        W19236  16.238   7.662  15.455  0.2924  0.0469  0.2650
 3053W        W19237  12.515   3.041   0.344 -0.2079 -0.1752  0.1110
 3054W        W19238   1.759  17.177   5.324  0.2265 -0.1736 -0.2925
 3055W        W19239   5.025  10.641   5.618 -0.1313 -0.2739 -0.0959
 3056W        W19240   6.701  17.699   1.312 -0.0449 -0.0802  0.0983
 3057W        W19241  12.260   5.845   3.711  0.0012  0.2374  0.2749
 3058W        W19242   1.410   9.220   3.777  0.1018  0.3266 -0.0239
 3059W        W19243  11.811   0.952   2.986 -0.0903  0.0740  0.0268
 3060W        W19244  14.985   6.882   4.846  0.0743  0.0162  0.3516
 3061W        W19245  17.179   9.538  16.124  0.0871  0.1599 -0.0499
 3062W        W19246  17.831  13.607   3.990 -0.0345 -0.1744 -0.1759
 3063W        W19247   8.976   9.236   5.569  0.1589 -0.1202 -0.0836
 3064W        W19248   0.482   2.228  11.931  0.0085  0.4095  0.0884
 3065W        W19249   4.514  11.417  14.876  0.2115 -0.1860  0.0304
 3066W        W19250  13.987   9.158  15.352  0.1064 -0.2224 -0.2174
 3067W        W19251   3.121  15.027  11.715 -0.0968 -0.0936  0.0005
 3068W        W19252  16.473   6.119   1.350 -0.0998 -0.0073  0.1837
 3069W        W19253   2.637   2.011  16.014 -0.1749  0.0291 -0.4129
 3070W        W19254  13.881   8.372  11.650 -0.1279  0.1419 -0.0421
 3071W        W19255  17.869  17.437  16.354 -0.3168 -0.2375 -0.1171
 3072W        W19256   2.702   9.548   2.603 -0.1948  0.0510 -0.2334
 3073W        W19257   1.006   5.354   0.571  0.2842  0.1615  0.3371
 3074W        W19258   7.072   0.217  13.704 -0.3858 -0.3531  0.0738
 3075W        W19259   2.202   2.121  12.649 -0.0123  0.1280 -0.5693
 3076W        W19260   8.188  17.693   6.164 -0.0476  0.2606  0.0077
 3077W        W19261  14.936   6.302  15.011 -0.0771  0.0599 -0.2122
 3078W        W19262   3.486   3.950   1.918 -0.0000 -0.1307  0.1699
 3079W        W19263  15.770   9.168   2.544  0.3143  0.0504  0.1390
 3080W        W19264   7.025  16.939  13.263 -0.0117  0.4554 -0.3782
 3081W        W19265  17.741  11.152   4.259 -0.4337 -0.0716  0.0171
 3082W        W19266   3.705   6.039   1.475  0.0203  0.3939 -0.1541
 3083W        W19267   1.766   4.914  15.129  0.1901 -0.1586  0.1172
 3084W        W19268   8.554   0.843   2.747 -0.1908 -0.1789 -0.1218
 3085W        W19269   3.624   2.568  14.279  0.0370  0.0086 -0.1019
 3086W        W19270   0.889   7.027   0.111  0.0694  0.2139  0.2929
 3087W        W19271   1.756  12.892  11.761  0.4536 -0.2471  0.1498
 3088W        W19272   3.474   3.478  16.084 -0.3241 -0.3413  0.0226
 3089W        W19273   7.884   3.974  16.265  0.1236 -0.2673 -0.5320
 3090W        W19274  14.275  12.174   4.543 -0.0817 -0.1650 -0.1915
 3091W        W19275  11.967   4.579   6.278  0.1339  0.3554 -0.1224
 3092W        W19276  12.433  16.439  12.772 -0.1362  0.0510  0.1420
 3093W        W19277  14.968  16.724   6.112  0.0586  0.0560  0.2163
 3094W        W19278   8.070  13.803   5.091 -0.2108  0.2401 -0.0983
 3095W        W19279   9.358   2.562   1.842 -0.0704  0.1760  0.1991
 3096W        W19280   6.223  14.607  11.793  0.2155  0.1375  0.1564
 3097W        W19281   6.767   9.569   0.682  0.2531  0.0933  0.0323
 3098W        W19282  14.205   9.470   0.900 -0.3004 -0.1629 -0.2391
 3099W        W19283   1.471   8.512   1.389 -0.0916  0.0684 -0.0832
 3100W        W19284  10.554   7.094  12.079  0.1872  0.2920 -0.3327
 3101W        W19285   0.852  13.462  12.530 -0.1871  0.2801 -0.2086
 3102W        W19286   4.520   2.166   3.084  0.0356 -0.0399 -0.0874
 3103W        W19287   8.217  12.434   5.870  0.2380  0.2244  0.1080
 3104W        W19288  13.544  17.335   3.759 -0.0846 -0.0500  0.1303
 3105W        W19289  11.948   3.750   4.072  0.1520  0.0983  0.2774
 3106W        W19290   5.958  14.040  14.173 -0.1705 -0.1964  0.0800
 3107W        W19291   0.280   3.934  16.514 -0.1287  0.1460  0.0737
 3108W        W19292   3.015   2.042  14.348  0.1887  0.0560 -0.3125
 3109W        W19293   4.908   3.759  15.761 -0.3097 -0.1472 -0.0452
 3110W        W19294  13.793  13.135  16.402 -0.1470  0.1644 -0.1251
 3111W        W19295   5.120  12.663   0.592 -0.1797 -0.2553  0.1138
 3112W        W19296   2.467  10.524  15.918 -0.2124 -0.0781  0.0097
 3113W        W19297  14.748   9.434  13.394  0.1120  0.0225 -0.0533
 3114W        W19298   0.347   1.200  13.620  0.0356 -0.0980  0.3284
 3115W        W19299   9.337  12.657  14.261  0.1887  0.1691  0.2348
 3116W        W19300   8.593   0.554  11.490  0.0612  0.4975  0.2128
 3117W        W19301  15.693  14.929  13.670  0.2249  0.1068 -0.2749
 3118W        W19302  12.725   9.877  16.310 -0.0594 -0.0490  0.3149
 3119W        W19303  14.606   3.816   1.424  0.0594 -0.2141 -0.1062
 3120W        W19304  17.511   9.106   0.096  0.0117 -0.0855 -0.3025
 3121W        W19305  17.411   1.448   3.590  0.0723 -0.2160 -0.3918
 3122W        W19306  11.487   2.562   2.324 -0.0366 -0.1495  0.4086
 3123W        W19307  14.680  13.455  13.141  0.4384  0.2130  0.3503
 3124W        W19308   3.309   1.490   1.349  0.5296 -0.0704 -0.1127
 3125W        W19309  17.389   0.194   3.499  0.0595  0.3112 -0.1248
 3126W        W19310   3.232  17.767  15.639  0.4295 -0.0995 -0.0039
 3127W        W19311   6.865   3.947  13.907 -0.2793 -0.2720  0.0956
 3128W        W19312   5.788  10.271  15.347 -0.0418 -0.2869  0.0115
 3129W        W19313  13.011   4.077  13.573  0.0951  0.0125  0.1077
 3130W        W19314   7.337   3.383   0.437 -0.0366  0.0786  0.0303
 3131W        W19315   9.090   2.374   5.331  0.0782 -0.1522 -0.0775
 3132W        W19316   6.343   0.705  11.932 -0.3212 -0.0045 -0.1540
 3133W        W19317  14.060  15.882  12.135 -0.0407  0.3304 -0.0549
 3134W        W19318   8.688  17.566  11.944 -0.2102 -0.3689  0.1348
 3135W        W19319   4.880  16.467   2.291  0.0369  0.0231  0.2506
 3136W        W19320   7.462   7.964   0.710  0.0820 -0.3517  0.0746
 3137W        W19321  17.795   4.920   5.107  0.1695 -0.0757  0.0050
 3138W        W19322  15.547   2.821  15.103  0.0336  0.0843 -0.3309
 3139W        W19323   9.253   9.043  12.105  0.2427  0.1559 -0.1075
 3140W        W19324  17.489   0.683  13.408 -0.0185 -0.1122 -0.1036
 3141W        W19325  11.209   4.806  14.168  0.0994 -0.3179 -0.0513
 3142W        W19326   3.512   5.480   5.370  0.1168 -0.1178 -0.3016
 3143W        W19327  10.525  11.990   5.954  0.1120  0.0331  0.0526
 3144W        W19328   5.704  10.655   1.564  0.1986  0.2064 -0.1831
 3145W        W19329  17.257   3.090  15.206 -0.0786 -0.0058 -0.2197
 3146W        W19330   9.244   2.243  16.239 -0.1503  0.1115  0.1918
 3147W        W19331   8.127   3.445   3.865 -0.0369  0.1776  0.0511
 3148W        W19332   0.306  10.965   3.905  0.2726  0.1420  0.5272
 3149W        W19333  16.228  12.564  13.420  0.1882 -0.3894  0.2883
 3150W        W19334  14.698   3.348   5.943  0.2634  0.1774  0.1041
 3151W        W19335  10.471  12.703   4.437 -0.0416 -0.1291 -0.1194
 3152W        W19336  16.834   8.484  11.193 -0.0970 -0.0953  0.1449
 3153W        W19337  14.715  12.752   0.139 -0.2479 -0.1311  0.0064
 3154W        W19338  15.734  14.510   1.842 -0.0114 -0.1985 -0.1336
 3155W        W19339  16.699  11.619   0.849  0.1483  0.0348  0.1108
 3156W        W19340   6.894   3.469   0.113  0.2206 -0.1597 -0.0912
 3157W        W19341  12.505  10.383   4.552 -0.0579 -0.3928  0.2911
 3158W        W19342  13.822  11.094   5.863  0.1334  0.0465 -0.0427
 3159W        W19343   5.920   6.720   0.348  0.1336  0.4390  0.1059
 3160W        W19344  13.684   9.595  15.496  0.4247 -0.3197  0.0264
 3161W        W19345  15.214   3.983  13.743  0.0367 -0.0613 -0.0315
 3162W        W19346  16.844   7.591  16.786 -0.3718 -0.1425  0.1828
 3163W        W19347  12.409  14.679  16.303 -0.3620  0.1791 -0.0837
 3164W        W19348  17.804   8.135  12.877  0.0657  0.1545 -0.1664
 3165W        W19349  17.814   5.354   2.339  0.1189  0.1598 -0.0560
 3166W        W19350   3.266  15.193   5.311 -0.3559 -0.1375 -0.1313
 3167W        W19351   2.103  15.272  12.540 -0.0261 -0.3599 -0.0362
 3168W        W19352   0.652  10.106  15.356 -0.2656 -0.0709 -0.0262
 3169W        W19353   6.605   8.201  15.491 -0.1009 -0.0448 -0.2301
 3170W        W19354   8.550  14.716   1.389 -0.2033  0.0485 -0.2462
 3171W        W19355   7.244   6.585  15.252  0.0321  0.3540 -0.1413
 3172W        W19356  16.205  11.793  15.868 -0.0599 -0.0545 -0.1320
 3173W        W19357   7.468  10.374   3.051  0.0185  0.1434  0.1742
 3174W        W19358   4.295  11.480  15.744 -0.3175  0.1084  0.0398
 3175W        W19359  13.787   4.142   2.007  0.0018 -0.0710  0.0329
 3176W        W19360   6.177   6.907  16.275 -0.0087 -0.1349  0.2223
 3177W        W19361  13.169  11.416  13.586  0.0897  0.0792 -0.0609
 3178W        W19362   5.062   8.722   0.250 -0.2834 -0.0180 -0.0854
 3179W        W19363  12.214  15.721   5.570 -0.1545  0.0004 -0.0240
 3180W        W19364   2.046   0.534   4.063  0.2589  0.0804  0.2195
 3181W        W19365  14.840  11.041  13.760  0.0309  0.2493  0.0574
 3182W        W19366   0.414  11.094  13.480 -0.0925  0.1415  0.1424
 3183W        W19367  14.428   9.713  14.312 -0.3007 -0.0437  0.1134
 3184W        W19368  11.781  16.496   4.871  0.0161 -0.0588 -0.1353
 3185W        W19369  12.056   2.283  14.625 -0.1515  0.2390  0.4114
 3186W        W19370   5.071   6.336  14.993  0.0623  0.0374 -0.4923
 3187W        W19371   1.717  12.031   2.529  0.0672 -0.0096 -0.1441
 3188W        W19372   2.801  10.658   5.335  0.1315 -0.1469 -0.2813
 3189W        W19373  13.331   8.351   4.820  0.0876  0.3067  0.0859
 3190W        W19374   7.426   0.370  13.331  0.2052 -0.0931  0.1229
 3191W        W19375  15.891  17.279   2.626  0.1545 -0.1310 -0.1683
 3192W        W19376   3.598  14.302  11.293 -0.0959 -0.2582  0.0435
 3193W        W19377   6.334   2.560   0.132  0.2974 -0.0623  0.0454
 3194W        W19378  12.235  17.519   1.173 -0.1147 -0.2297  0.3083
 3195W        W19379   0.244  10.226   4.408  0.1701 -0.0407  0.3405
 3196W        W19380   8.832   4.917  11.999 -0.1445 -0.2674  0.1129
 3197W        W19381  13.075  11.248  16.877 -0.1587 -0.2704 -0.1209
 3198W        W19382   9.462  15.863   3.314  0.1193 -0.0836  0.2058
 3199W        W19383   4.260  13.254   2.092 -0.1213 -0.1274  0.2614
 3200W        W19384  12.323  12.441   5.117 -0.0931  0.2520 -0.0477
 3201W        W19385  10.202  14.722   2.740  0.0705  0.0333  0.2646
 3202W        W19386  14.372   9.591  12.189  0.0048  0.0912  0.0560
 3203W        W19387  13.822   1.272   1.735  0.1553  0.0714 -0.0878
 3204W        W19388  15.632   2.776  14.601 -0.4641  0.0262 -0.1516
 3205W        W19389   7.419  12.330  11.597  0.0275 -0.0896  0.0668
 3206W        W19390   2.980   7.095  13.634 -0.1104  0.0551 -0.1653
 3207W        W19391   0.551  16.347   4.259  0.0591 -0.3449  0.1764
 3208W        W19392   5.229  13.087  13.935 -0.1412 -0.0666  0.1019
 3209W        W19393   3.778  16.525  11.348 -0.1500 -0.0922 -0.3045
 3210W        W19394   5.108   2.577  12.108  0.2354 -0.2975 -0.1007
 3211W        W19395  13.658   9.903  16.429  0.2412  0.1836 -0.1201
 3212W        W19396   6.576   1.139  11.914 -0.1846 -0.0774  0.0185
 3213W        W19397  10.231   9.250   3.003  0.0735 -0.0563 -0.2987
 3214W        W19398  12.892   8.428   3.986 -0.0757 -0.0778  0.1892
 3215W        W19399  11.268  10.910  14.678 -0.0122  0.1225 -0.1533
 3216W        W19400   1.851   0.857  15.772  0.1802  0.1156 -0.0043
 3217W        W19401   8.139  11.844   3.336  0.0253  0.3163 -0.4172
 3218W        W19402   2.931   2.772   3.934  0.0496 -0.1532  0.6090
 3219W        W19403   1.907   3.159  11.940 -0.2040 -0.1308 -0.2545
 3220W        W19404  13.165  10.235   4.094  0.2687 -0.0143  0.0058
 3221W        W19405  16.669   0.776  16.380  0.1562  0.1801 -0.0646
 3222W        W19406   5.054  13.095   3.116  0.1094  0.0472  0.0410
 3223W        W19407  14.956  12.809  15.098 -0.1449  0.1162 -0.0810
 3224W        W19408   1.770   2.666  16.150 -0.0763  0.0588  0.3613
 3225W        W19409   9.197  13.106   3.890 -0.0503 -0.1676  0.0761
 3226W        W19410  14.740   5.819   3.862 -0.0237 -0.0492  0.2290
 3227W        W19411   5.234  17.678  12.312  0.1544 -0.4614  0.2732
 3228W        W19412  14.815   7.406  14.248  0.2254  0.0827  0.0149
 3229W        W19413  15.023   0.393  11.739 -0.2046  0.2058 -0.0047
 3230W        W19414  15.508  13.266   3.652  0.1166 -0.3479  0.3775
 3231W        W19415  11.780   3.006   4.112 -0.0479  0.1291 -0.0824
 3232W        W19416   2.763  15.400   4.575  0.1040 -0.2688 -0.0049
 3233W        W19417   7.653  15.524  14.440 -0.3095 -0.0742 -0.2845
 3234W        W19418   8.949  16.174  13.318  0.1652  0.0143  0.0335
 3235W        W19419  13.167   5.412  12.849  0.0022  0.1313 -0.0185
 3236W        W19420   8.625  10.145  13.883 -0.2138  0.1180  0.2430
 3237W        W19421   4.216  12.442  14.441 -0.0554 -0.1163  0.0502
 3238W        W19422   8.490   8.415   3.011  0.1882 -0.1858 -0.1248
 3239W        W19423  13.818   9.807   4.667 -0.0180 -0.1378 -0.1959
 3240W        W19424  14.722   7.523   4.157 -0.1208  0.2141 -0.2994
 3241W        W19425  14.823   0.215   4.948  0.2682  0.0186  0.0913
 3242W        W19426  15.658   3.029  16.503  0.0180 -0.1311 -0.1862
 3243W        W19427   0.899   4.047   4.644  0.1219 -0.0625 -0.1184
 3244W        W19428  16.373  11.688  16.904 -0.2500  0.0436  0.1017
 3245W        W19429   8.915  16.080   1.579  0.0351 -0.2861 -0.2164
 3246W        W19430   4.185   5.962   2.862 -0.1905 -0.1314  0.1314
 3247W        W19431   9.211   5.738  16.493 -0.2473  0.1090  0.0484
 3248W        W19432   3.455   3.174   3.242  0.0704 -0.1963  0.0460
 3249W        W19433   7.607   7.698   4.536 -0.3557  0.0787 -0.2075
 3250W        W19434   5.509   1.369   2.577 -0.1355 -0.2917  0.0856
 3251W        W19435   5.990   8.342   1.388 -0.0198  0.1062 -0.1787
 3252W        W19436   9.049  11.610  13.228  0.0098 -0.0571  0.2688
 3253W        W19437   5.752   8.845  13.177 -0.0136 -0.1959 -0.1082
 3254W        W19438  16.317  13.822  15.914 -0.0445 -0.0663 -0.2561
 3255W        W19439  15.748  10.635  15.316  0.2855  0.1556 -0.2548
 3256W        W19440   2.774  11.394   2.100  0.1412  0.2245 -0.3873
 3257W        W19441  13.702  16.617   4.584 -0.0641 -0.1655 -0.2716
 3258W        W19442   2.958  11.172   0.718  0.2233 -0.4161 -0.0461
 3259W        W19443  12.796   2.613   0.929  0.2489  0.0991  0.0123
 3260W        W19444   1.249   5.646   3.204 -0.2829 -0.2652  0.1559
 3261W        W19445  13.650   6.645  11.063 -0.4380 -0.0954  0.0088
 3262W        W19446  14.841   1.586  14.952 -0.0690 -0.1577  0.2305
 3263W        W19447   8.458   1.520   4.255 -0.2705 -0.0624 -0.0208
 3264W        W19448   4.600   9.209   0.228 -0.2906 -0.1569 -0.2010
 3265W        W19449   4.890  17.758   2.354 -0.2635 -0.0650 -0.0460
 3266W        W19450   2.608  12.101  12.288 -0.1809 -0.3487  0.1189
 3267W        W19451   6.715  16.268   1.553  0.2709  0.3277  0.1403
 3268W        W19452   3.681  10.214   4.801  0.2824 -0.0335  0.0891
 3269W        W19453  17.672   1.112   1.344  0.4006 -0.1238 -0.0514
 3270W        W19454   8.398   2.298  15.963  0.0304 -0.3144 -0.1480
 3271W        W19455   4.667   9.801   2.718  0.1499 -0.1791  0.1515
 3272W        W19456  16.170  14.725  13.622 -0.4303 -0.2507 -0.0948
 3273W        W19457  17.129   1.199   4.218  0.1870  0.1330  0.1050
 3274W        W19458  13.530   0.108  16.711 -0.1529  0.0293  0.1698
 3275W        W19459  12.124  15.796   4.164  0.0020 -0.1116 -0.0003
 3276W        W19460   9.301  11.683  16.378  0.0823  0.3695  0.2730
 3277W        W19461  15.559   5.077   2.465  0.0856  0.1324 -0.4104
 3278W        W19462   2.928   8.651   5.182 -0.1204  0.3925 -0.0318
 3279W        W19463   4.941  15.306   2.686 -0.2847  0.3207 -0.1343
 3280W        W19464   7.977   0.040   2.462 -0.1221 -0.0027 -0.2700
 3281W        W19465  17.338   2.087  13.307  0.0100  0.1545 -0.0072
 3282W        W19466  12.977   8.492  13.138  0.0693 -0.0427 -0.3088
 3283W        W19467   9.789   6.716   1.595 -0.0314  0.3055 -0.2586
 3284W        W19468   3.526   8.167   3.888 -0.2243 -0.1485  0.0639
 3285W        W19469   3.029   1.253   5.598  0.1227  0.0546  0.0618
 3286W        W19470  10.713   0.828  14.319  0.1909  0.0469 -0.2512
 3287W        W19471   4.659   8.891  13.743 -0.2021  0.3007 -0.1394
 3288W        W19472  15.703  10.480  13.892 -0.1406 -0.2076 -0.0492
 3289W        W19473  17.824   8.562  14.308  0.0279  0.0003 -0.0957
 3290W        W19474  13.880  10.903  12.532  0.0375  0.0163 -0.0070
 3291W        W19475   2.996   1.475  15.569  0.0185  0.0729  0.0063
 3292W        W19476   9.124  14.932  14.805  0.0830  0.0468  0.0106
 3293W        W19477   9.010  15.424  14.749  0.3554 -0.2266  0.1476
 3294W        W19478   7.894  16.890   1.031 -0.1091 -0.1366 -0.1353
 3295W        W19479   8.195   1.378  15.190  0.1072 -0.2619  0.2777
 3296W        W19480  11.867   9.106   5.204  0.0439 -0.0962 -0.0571
 3297W        W19481  16.972  11.916   1.187  0.0059 -0.2621  0.0335
 3298W        W19482  16.067  12.196  11.935 -0.1404  0.1888  0.1902
 3299W        W19483   1.443  11.425  12.218  0.3854 -0.2028  0.1728
 3300W        W19484  12.611  13.242  16.738  0.1150  0.1520 -0.2245
 3301W        W19485   5.409  17.725   6.220 -0.5326  0.0776  0.0026
 3302W        W19486   5.816   7.731   3.077 -0.1370  0.0092 -0.1029
 3303W        W19487  13.385   8.894   2.324 -0.3121  0.0672  0.0473
 3304W        W19488   1.895  17.138  11.573  0.0416  0.0682 -0.1344
 3305W        W19489   1.976   0.436  14.259 -0.2889  0.1874 -0.0366
 3306W        W19490  11.925  13.445  15.447  0.0491 -0.0547  0.0710
 3307W        W19491   4.103  10.648  16.065  0.0902 -0.0939  0.1031
 3308W        W19492   9.052  15.676   4.423  0.1477  0.2477  0.1991
 3309W        W19493  12.176   9.011  13.816  0.1943  0.0704 -0.1762
 3310W        W19494  16.790  15.796  13.188 -0.0944  0.0274  0.2075
 3311W        W19495  12.460  12.144  15.244 -0.0874 -0.3533 -0.2136
 3312W        W19496   1.327  10.716   1.893 -0.0399 -0.0326  0.0137
 3313W        W19497  12.464   2.363   3.935  0.2095 -0.0724  0.0451
 3314W        W19498   9.108   9.533  12.366 -0.3276 -0.1322 -0.2356
 3315W        W19499   6.617  11.691  15.371 -0.0724  0.1073 -0.2973
 3316W        W19500   9.881   7.929  16.611 -0.0603  0.0168  0.1986
 3317W        W19501  12.481  15.730   0.873  0.4475  0.2766 -0.0674
 3318W        W19502  16.066  11.645  13.957 -0.2385  0.1943 -0.0426
 3319W        W19503   3.791  17.825   1.234 -0.2066 -0.0904 -0.0757
 3320W        W19504   2.747  13.667  14.550  0.2563 -0.0191  0.1398
 3321W        W19505   9.311   3.383  14.157  0.1348  0.3332  0.0461
 3322W        W19506  17.774   6.047   0.573  0.1844 -0.1878  0.0178
 3323W        W19507   8.940   3.383   4.428 -0.0838 -0.0358 -0.0362
 3324W        W19508  16.367   0.943  11.240 -0.1545  0.3612  0.2990
 3325W        W19509   0.946  15.523  15.988 -0.1927  0.1171 -0.1924
 3326W        W19510   5.581   5.487  13.394  0.1905  0.0544 -0.0486
 3327W        W19511  15.282   8.880   4.515 -0.0980 -0.2810 -0.2052
 3328W        W19512  15.358   7.920  15.404 -0.0894 -0.0068 -0.1395
 3329W        W19513   5.051   0.445  13.141  0.2062  0.0738  0.0285
 3330W        W19514   1.194  10.527  14.779 -0.0120  0.0343 -0.1468
 3331W        W19515   2.253  12.906  14.689  0.2200 -0.3214  0.0054
 3332W        W19516   1.425  11.029   0.913  0.0156  0.1204  0.0630
 3333W        W19517  17.423   6.813   0.716 -0.0533 -0.0591  0.0082
 3334W        W19518   3.435   8.059   0.364  0.0290  0.0679  0.0524
 3335W        W19519  15.984   5.550   0.259 -0.0487  0.1603  0.0331
 3336W        W19520  15.407   3.527  12.261 -0.0533  0.3220 -0.2253
 3337W        W19521  11.538  13.641   0.369 -0.5585  0.2832 -0.1211
 3338W        W19522   1.288  14.538   0.957  0.1607  0.0181  0.1672
 3339W        W19523   1.130  14.321  12.412 -0.0372  0.1228 -0.0449
 3340W        W19524  17.672   2.426   3.803  0.1293 -0.0864 -0.1409
 3341W        W19525  13.141   7.050  13.812  0.1586 -0.0107 -0.0597
 3342W        W19526   1.111  15.908  15.555 -0.1436 -0.2558  0.0024
 3343W        W19527  14.445  13.230  14.743 -0.1311  0.0514 -0.0063
 3344W        W19528   1.194   5.703  14.479  0.0080 -0.0301  0.2992
 3345W        W19529  15.255  10.995   4.930  0.0406  0.0414  0.0027
 3346W        W19530  15.436   2.709  15.585  0.0944 -0.0761 -0.2769
 3347W        W19531   0.858  14.232   0.783 -0.0383 -0.0745  0.0116
 3348W        W19532   9.043   3.710  15.011 -0.3289  0.2913 -0.0992
 3349W        W19533   9.361   6.895   0.159 -0.0615 -0.1304 -0.1834
 3350W        W19534  11.743   3.669   0.554  0.2513 -0.1449  0.3466
 3351W        W19535  10.768   5.368   1.028 -0.1461  0.0755 -0.0757
 3352W        W19536  16.482   2.788   1.695 -0.0536 -0.2325  0.1686
 3353W        W19537  14.750  16.496   1.573  0.1234 -0.1654 -0.1155
 3354W        W19538  17.421  13.334  15.355  0.0318  0.0921  0.1276
 3355W        W19539   1.394   6.774   5.986  0.1380  0.1032 -0.0461
 3356W        W19540  12.568   1.285   6.229  0.0371  0.0994  0.3899
 3357W        W19541   0.180  13.211  11.634  0.0841 -0.0841 -0.0747
 3358W        W19542   3.249  13.554  14.809 -0.3328  0.0916  0.0382
 3359W        W19543   1.921   7.221   2.567 -0.2529  0.0758  0.1657
 3360W        W19544  11.430   1.561  13.846  0.0903 -0.2823  0.0916
 3361W        W19545  12.401  12.107   0.127 -0.1741 -0.1156 -0.2025
 3362W        W19546  14.052  14.406  16.467  0.0640  0.1510 -0.4520
 3363W        W19547   0.790  11.330  12.361  0.1006  0.0985  0.1203
 3364W        W19548   7.065  17.670  16.182 -0.2065  0.0518 -0.3027
 3365W        W19549   7.139  15.194  16.652 -0.0739  0.2570 -0.1542
 3366W        W19550   1.608  10.859  16.844 -0.1007  0.0660 -0.1212
 3367W        W19551   8.830   3.141  14.385  0.1680  0.1485  0.0744
 3368W        W19552  12.214   7.532   4.945  0.1784 -0.1782  0.0821
 3369W        W19553  12.979  15.527   4.492 -0.0331 -0.1747 -0.0674
 3370W        W19554   8.103  16.999   3.278  0.1354 -0.1226  0.1638
 3371W        W19555   2.181   4.546   0.965 -0.1659  0.1366  0.2238
 3372W        W19556  12.554   6.082  14.809  0.0787  0.1561 -0.0629
 3373W        W19557   1.675   3.400  15.782  0.1895 -0.0934 -0.0193
 3374W        W19558  13.698   0.417  12.764  0.0715 -0.1399  0.0338
 3375W        W19559  12.166  12.723  13.239  0.0913 -0.1018 -0.2125
 3376W        W19560  17.582   3.638  11.561  0.1052  0.1155 -0.0074
 3377W        W19561   6.623   2.372  12.846 -0.1501  0.0399 -0.1711
 3378W        W19562   4.600   1.013  14.286 -0.0778  0.1675  0.1690
 3379W        W19563   7.455  15.478   3.540 -0.4497 -0.1070  0.0261
 3380W        W19564   0.570   9.226   0.590  0.0804 -0.2626  0.0165
 3381W        W19565  16.680   7.410   0.457  0.1253 -0.0531 -0.1860
 3382W        W19566   6.319  10.900   0.804 -0.0907  0.0244  0.1857
 3383W        W19567  13.163   0.291   0.905 -0.0831  0.0183  0.0454
 3384W        W19568   0.909   1.379   3.925 -0.2097  0.1234  0.0086
 3385W        W19569  13.946  10.436   5.919 -0.0377  0.4803  0.0618
 3386W        W19570   5.770   1.403   0.800  0.1831 -0.0089 -0.0613
 3387W        W19571   7.474   2.344  13.862 -0.1092 -0.0944  0.3142
 3388W        W19572   4.872   8.714   3.536 -0.1935 -0.0832 -0.1638
 3389W        W19573  10.907  16.218   4.595 -0.0096  0.0209  0.0174
 3390W        W19574   0.345   3.483  16.704 -0.0076  0.2246 -0.3199
 3391W        W19575  16.599  11.632   1.735 -0.0148  0.0117  0.1249
 3392W        W19576  15.983  14.444  12.698 -0.1282  0.1799  0.0808
 3393W        W19577   9.139  12.382  14.976  0.1573 -0.0442 -0.1413
 3394W        W19578  12.885  15.888   0.691 -0.2283  0.2461 -0.3614
 3395W        W19579   0.324   3.621   2.635  0.2120  0.0951 -0.0167
 3396W        W19580   7.465   8.750   2.673 -0.0002 -0.0985  0.1683
 3397W        W19581  13.270  16.847  12.645 -0.1520 -0.5135  0.0513
 3398W        W19582   5.646   0.781   1.481  0.1584 -0.0740 -0.0992
 3399W        W19583  10.127  15.079  12.949  0.2494 -0.1015  0.0018
 3400W        W19584  15.501  11.702   1.134 -0.2056 -0.6319  0.1150
 3401W        W19585   8.586  17.588   0.131  0.0830  0.1903  0.0681
 3402W        W19586   3.040   4.768   4.155  0.0883 -0.1152  0.1343
 3403W        W19587   0.278   3.622   3.244 -0.0362  0.2301  0.1503
 3404W        W19588  16.694   6.956   0.173 -0.0275  0.1280 -0.0104
 3405W        W19589  11.862  14.342   0.840  0.2748  0.0507  0.0896
 3406W        W19590  12.508   7.378   2.637 -0.0493 -0.0616  0.1012
 3407W        W19591  14.820  13.935  13.453  0.4095 -0.1317  0.1738
 3408W        W19592  11.840  15.981   3.207  0.2426 -0.0098 -0.1460
 3409W        W19593   2.052   7.802   1.182 -0.0515  0.1534 -0.1611
 3410W        W19594   7.105   8.624   3.218 -0.1476  0.2802  0.1991
 3411W        W19595  17.820   6.048  15.163  0.1418  0.1622 -0.0285
 3412W        W19596  12.754  14.102  12.211  0.0192 -0.1066  0.2346
 3413W        W19597  13.083   0.858  15.773 -0.1627  0.0180 -0.0279
 3414W        W19598  17.158   7.697   4.030  0.1397 -0.1813 -0.1459
 3415W        W19599   3.371   1.272   3.569  0.2026  0.2669  0.0508
 3416W        W19600   7.725   1.119   2.302  0.0487 -0.1755 -0.0319
 3417W        W19601  15.246   1.177  13.908 -0.1177  0.1272 -0.1343
 3418W        W19602   7.162  16.573  11.351 -0.3875  0.4462  0.2630
 3419W        W19603  15.487   3.976   4.672  0.0662 -0.0754 -0.0450
 3420W        W19604   5.758   3.973   2.683 -0.3405 -0.0597 -0.1114
 3421W        W19605   7.588   1.005   0.482 -0.0917 -0.0340 -0.4806
 3422W        W19606   8.088  13.402  15.286 -0.2781  0.0067 -0.4620
 3423W        W19607  12.908   4.183  15.673  0.0476 -0.0311 -0.4095
 3424W        W19608   7.430   6.780   6.242 -0.2566 -0.2224  0.0538
 3425W        W19609  12.632   9.170  15.680 -0.2739 -0.1368 -0.4539
 3426W        W19610   4.924   0.489  13.612  0.3740  0.2192 -0.1162
 3427W        W19611  12.476   7.590   3.582 -0.0290  0.2232  0.0421
 3428W        W19612   5.471   7.343  14.904 -0.2607  0.1378  0.5908
 3429W        W19613   5.320   4.684  16.789 -0.0029 -0.1764 -0.0881
 3430W        W19614  13.340  12.878  12.605 -0.0562 -0.1903 -0.0145
 3431W        W19615  10.139   9.384  15.464  0.2064 -0.0564  0.1164
 3432W        W19616  13.185  10.648   1.020  0.1261 -0.1263  0.2261
 3433W        W19617   0.052   6.401  13.040  0.2352 -0.1135 -0.0956
 3434W        W19618   7.658  16.870   0.456 -0.2509  0.1551 -0.2136
 3435W        W19619   8.542   5.170   4.468  0.2536  0.1381  0.2159
 3436W        W19620   5.295  16.216   2.961  0.2181  0.0908 -0.2884
 3437W        W19621  13.394  16.811   3.841 -0.0688 -0.2546 -0.0990
 3438W        W19622   9.513   3.141  13.211  0.2008 -0.2043 -0.2166
 3439W        W19623   4.844   7.759   2.489 -0.0915 -0.1973  0.0443
 3440W        W19624   2.083  10.847   5.801  0.2747  0.1458 -0.0327
 3441W        W19625  16.868   8.938  14.842 -0.3852  0.1984  0.3520
 3442W        W19626  12.383   3.455   4.392  0.0452 -0.0670 -0.1312
 3443W        W19627  16.833  13.593   5.475 -0.1945  0.2406 -0.3046
 3444W        W19628   9.666   3.177   0.412 -0.0038  0.1182 -0.0354
 3445W        W19629   7.508  10.577  12.565 -0.0437 -0.4157 -0.3598
 3446W        W19630   4.655  16.189   1.264 -0.2126  0.0676  0.1301
 3447W        W19631  17.716  15.883   5.265  0.2853 -0.1510 -0.1064
 3448W        W19632  15.255  13.175  16.906 -0.0189  0.2192 -0.1703
 3449W        W19633   4.969   6.169  14.474 -0.0256 -0.0831 -0.0765
 3450W        W19634   1.679   4.705   0.277 -0.0467 -0.1154 -0.0882
 3451W        W19635  15.214   5.308  16.018 -0.0514  0.0861 -0.0519
 3452W        W19636  16.881  13.294  14.808 -0.2687 -0.0615  0.0184
 3453W        W19637   8.606   4.183   1.085  0.3837  0.1127 -0.2598
 3454W        W19638  16.916  15.340  15.048  0.0416  0.1198 -0.0809
 3455W        W19639   9.219  15.436   3.365 -0.0797 -0.0222 -0.1035
 3456W        W19640  13.508   2.946   1.150  0.1734 -0.1319 -0.0554
 3457W        W19641   9.881   1.507   1.891  0.2515  0.1094  0.0565
 3458W        W19642  17.500  11.048   3.282 -0.0331  0.2938 -0.1568
 3459W        W19643  16.200  12.064   5.050 -0.0404 -0.2116  0.1682
 3460W        W19644   7.233  10.408  14.957 -0.3636  0.2239  0.0929
 3461W        W19645   7.124   5.126  16.465 -0.0768  0.0809 -0.1784
 3462W        W19646  13.095   0.440   3.000 -0.0364 -0.3478  0.0955
 3463W        W19647  17.280   1.821  16.881  0.0227 -0.1283 -0.3404
 3464W        W19648  17.481   7.269  15.530 -0.2776 -0.0978  0.0159
 3465W        W19649  14.333   7.885  13.333 -0.3096 -0.2386  0.1980
 3466W        W19650   2.730   9.214   0.096 -0.0579  0.4929 -0.4123
 3467W        W19651   2.737  14.916   4.322 -0.0333  0.1601  0.0660
 3468W        W19652  17.828   0.295   0.672  0.4806 -0.0581  0.1204
 3469W        W19653   4.772  12.471  14.397  0.1357 -0.0134 -0.1911
 3470W        W19654   6.687   9.760  13.185 -0.0276  0.0674  0.0126
 3471W        W19655   8.192  16.652   5.290 -0.1729  0.0307  0.0237
 3472W        W19656   3.100  13.040   3.285 -0.0480 -0.1381  0.2376
 3473W        W19657  16.588   8.812   5.844  0.2473  0.0156  0.3259
 3474W        W19658  12.154   9.192  12.207  0.1038  0.4831 -0.0248
 3475W        W19659  16.163   6.063   2.524  0.1598  0.0552  0.3110
 3476W        W19660   5.538   2.784   0.729 -0.0469  0.1533  0.0494
 3477W        W19661  15.770   2.018   2.400 -0.0263 -0.0912  0.0499
 3478W        W19662   2.313  16.304  15.121 -0.1168  0.0861  0.1808
 3479W        W19663   9.305  17.695  13.180  0.0236 -0.1166 -0.1576
 3480W        W19664  10.702  12.871   0.236 -0.2032  0.3590 -0.0784
 3481W        W19665  14.891   9.971  16.221  0.1083  0.1724  0.0575
 3482W        W19666   4.863  11.233   1.699 -0.0889 -0.0984  0.0834
 3483W        W19667   6.656   3.722   5.181 -0.0413 -0.0800  0.1847
 3484W        W19668  14.998  15.013  14.203 -0.1774  0.0656 -0.0795
 3485W        W19669  13.219   9.593  11.145 -0.1997  0.0688  0.0504
 3486W        W19670   3.160   1.535  16.495 -0.0003  0.0987  0.0208
 3487W        W19671  10.356  10.648   1.408 -0.0939 -0.0085 -0.0529
 3488W        W19672  10.859   0.772   1.224  0.1163  0.1051 -0.0538
 3489W        W19673  12.921   9.842   3.175 -0.1065  0.3080  0.0625
 3490W        W19674  12.369   1.331   2.864 -0.0084 -0.0967 -0.1813
 3491W        W19675   4.831  14.058  12.960  0.1722  0.0372 -0.2173
 3492W        W19676   6.213  17.413  14.524  0.1574 -0.0413  0.1171
 3493W        W19677   1.845  16.640  11.609 -0.2677 -0.2371  0.0985
 3494W        W19678   1.474  12.875   0.536  0.0417 -0.0408  0.2121
 3495W        W19679   3.284   0.203  16.645  0.0677  0.4458 -0.3330
 3496W        W19680   5.916   0.265   2.076  0.1533  0.2295 -0.0719
 3497W        W19681   3.333  12.890  14.064 -0.2458  0.0237 -0.0414
 3498W        W19682  17.728  14.045  13.783  0.3292 -0.3231 -0.2730
 3499W        W19683   1.432   8.403   2.961  0.2797  0.0642  0.1564
 3500W        W19684  15.149   6.508  13.711  0.0241 -0.0950  0.1071
 3501W        W19685  12.860   0.163  15.064  0.1973 -0.1270 -0.2657
 3502W        W19686   5.045   3.394  15.491 -0.0592  0.2345  0.3453
 3503W        W19687  17.662   9.909   6.038 -0.2251  0.1096 -0.1336
 3504W        W19688   7.864  12.712   3.553  0.0654 -0.0571 -0.2320
 3505W        W19689   2.792  17.830   4.400 -0.0471 -0.2161 -0.0448
 3506W        W19690  12.455   6.860   4.557  0.1169  0.1410 -0.3006
 3507W        W19691   0.272   3.659  12.688  0.0739  0.0723  0.0519
 3508W        W19692   5.211   3.555   1.849  0.3175  0.2660 -0.0510
 3509W        W19693  12.640   1.631  15.565  0.0487 -0.0554  0.2502
 3510W        W19694   3.570  17.477  12.779 -0.0451  0.0525 -0.1023
 3511W        W19695   0.920  15.923   2.387 -0.0620 -0.1577 -0.2485
 3512W        W19696  14.216   6.733  14.375 -0.2112  0.0849 -0.1426
 3513W        W19697   1.805  12.135   3.788 -0.0387  0.0842  0.1481
 3514W        W19698   8.927  10.630   4.220  0.3169  0.0710  0.2712
 3515W        W19699   9.807   5.016  13.842  0.0048  0.1020 -0.2873
 3516W        W19700   4.347   8.706  16.388 -0.3208  0.1479 -0.1091
 3517W        W19701  11.052   6.415  11.713  0.0989 -0.4474  0.0939
 3518W        W19702  15.465   0.095   1.868 -0.2930  0.2551 -0.1123
 3519W        W19703   8.357   8.747  15.027  0.0662 -0.1259  0.0719
 3520W        W19704   5.002  17.081  11.151 -0.0577 -0.2517 -0.0257
 3521W        W19705  10.787   8.430  15.646 -0.0978 -0.0885  0.0400
 3522W        W19706   4.455   3.951   3.601  0.1606 -0.1640 -0.2401
 3523W        W19707   2.454  12.969   1.725  0.1102  0.0145 -0.0199
 3524W        W19708   4.737  16.586   4.854 -0.0382  0.0976  0.0602
 3525W        W19709  16.428  14.125   1.740 -0.2749 -0.2856 -0.2045
 3526W        W19710  14.682   4.756  14.253 -0.0444  0.1080  0.0305
 3527W        W19711   0.639   8.983  14.611  0.1652 -0.0986 -0.0524
 3528W        W19712   3.319   2.568   5.402 -0.2059 -0.1102  0.0025
 3529W        W19713  11.643   5.240  16.929 -0.0306 -0.0590  0.3472
 3530W        W19714  11.274   6.408   2.449  0.1300  0.2421  0.0846
 3531W        W19715   5.016  12.315  13.249  0.3915  0.0819 -0.0488
 3532W        W19716  15.077  10.591   5.450 -0.0035  0.1935  0.2536
 3533W        W19717   7.545   8.537   0.854 -0.2658 -0.0546  0.0615
 3534W        W19718  10.093   2.665   4.899  0.1013 -0.1561  0.2991
 3535W        W19719  17.844   0.312   3.351  0.0055 -0.2974 -0.0218
 3536W        W19720  16.391  10.594   1.866 -0.1488  0.1480 -0.5235
 3537W        W19721   5.221  14.374  16.771  0.1861 -0.0669 -0.1438
 3538W        W19722   3.932   4.048  14.860  0.2395  0.1281  0.1921
 3539W        W19723  11.056  13.360  14.138 -0.2251  0.0754  0.3941
 3540W        W19724   1.820   9.404   5.126  0.0628 -0.0614  0.3080
 3541W        W19725   1.908   9.513  13.981 -0.0751 -0.0565 -0.0285
 3542W        W19726   6.748  14.433   1.835  0.1490  0.1123 -0.1287
 3543W        W19727  14.631   7.170  16.478  0.1780  0.1225 -0.1588
 3544W        W19728   4.894   1.099  11.603 -0.2443 -0.0032  0.0245
 3545W        W19729   8.135   4.773   4.234 -0.0974 -0.1054  0.1088
 3546W        W19730  11.533   9.691  14.092 -0.0739 -0.1583 -0.0236
 3547W        W19731   6.820  17.346  16.463 -0.0063  0.0232 -0.0709
 3548W        W19732  12.896   2.422   1.388  0.1783  0.0585 -0.2334
 3549W        W19733   3.543   5.522   0.006 -0.0291  0.1000  0.2256
 3550W        W19734  11.560  11.066   3.410 -0.1581 -0.1613 -0.2623
 3551W        W19735  16.619  17.869  15.477 -0.1561  0.2072 -0.0939
 3552W        W19736  11.237  14.052   3.768  0.0449 -0.0071  0.0141
 3553W        W19737   3.587  11.782   2.122 -0.1632  0.3111 -0.0531
 3554W        W19738  16.085   8.761  11.864  0.1839  0.1585  0.1733
 3555W        W19739   4.004   0.997   4.795 -0.0589  0.0946 -0.1478
 3556W        W19740   0.282  14.909   1.771  0.2644 -0.0463  0.0191
 3557W        W19741   0.572   2.571   1.015 -0.0107  0.0886  0.0280
 3558W        W19742  17.035   7.401   2.906  0.1964 -0.0349  0.0850
 3559W        W19743   5.297   8.406  12.024 -0.3982  0.2583  0.1558
 3560W        W19744  14.523  13.556   4.685 -0.1192  0.0704  0.1632
 3561W        W19745   3.254   4.488  13.261  0.2446 -0.0246 -0.0369
 3562W        W19746   2.123   5.908   5.405  0.1325 -0.3770  0.2813
 3563W        W19747  15.310  15.794   0.594  0.1249 -0.0655 -0.0321
 3564W        W19748  13.573  14.808   4.316  0.0944  0.0610 -0.0234
 3565W        W19749  10.508   0.032   3.782  0.0088  0.1840 -0.0380
 3566W        W19750   3.932   7.981   0.334 -0.0737 -0.2207  0.0217
 3567W        W19751  14.305   5.403   1.721  0.3454  0.1941  0.0641
 3568W        W19752   3.096  17.642  13.147 -0.0794  0.1256  0.2388
 3569W        W19753  11.836  17.067   3.397  0.0578  0.1824 -0.1151
 3570W        W19754   6.820   2.175   0.954  0.1809  0.0445  0.2624
 3571W        W19755   9.803  16.008  12.969 -0.2693 -0.0850  0.0776
 3572W        W19756  13.476   6.783   1.165  0.0303 -0.0951 -0.1132
 3573W        W19757  16.331  17.871   1.003 -0.0194  0.2491 -0.1265
 3574W        W19758   4.532   7.032  13.393  0.0845  0.1384  0.0199
 3575W        W19759  12.201  17.690   5.563  0.0276 -0.0644 -0.2095
 3576W        W19760   3.611   4.716   4.859 -0.0338 -0.0281 -0.0469
 3577W        W19761   8.689   7.258   3.612 -0.2046 -0.2022  0.2135
 3578W        W19762   1.200   6.738   0.405  0.0539  0.0417  0.2360
 3579W        W19763  10.936  14.669  12.184 -0.0314 -0.2229  0.1565
 3580W        W19764   4.487   2.748   4.974  0.1765  0.0765  0.1889
 3581W        W19765   8.696   2.246  11.930  0.0038  0.0839 -0.0631
 3582W        W19766   5.752  16.264   2.765  0.1012  0.1516 -0.3388
 3583W        W19767   1.029  16.173  11.448  0.2257 -0.0009  0.5675
 3584W        W19768  14.793  11.398   2.740 -0.0595  0.0511 -0.0755
 3585W        W19769   1.665  11.386  16.239  0.1365  0.0555 -0.0603
 3586W        W19770  15.640  15.201   2.388 -0.1211 -0.4020  0.0180
 3587W        W19771   0.025   6.384  15.958 -0.1902  0.0687  0.4081
 3588W        W19772  16.327  16.219   2.046  0.2140  0.1498  0.0789
 3589W        W19773   5.680  13.792  10.896  0.0450  0.0448 -0.0844
 3590W        W19774  12.852   2.518  14.166  0.2584  0.0936 -0.1101
 3591W        W19775   5.273   3.996  12.574 -0.2572  0.0571 -0.1579
 3592W        W19776   5.424  17.615   1.431  0.1760 -0.2912 -0.0821
 3593W        W19777   4.096  12.445   1.114  0.1163 -0.0053 -0.1576
 3594W        W19778   6.778  17.472   4.155 -0.0017  0.0115 -0.4196
 3595W        W19779  14.986   7.012  12.741  0.3449  0.3351 -0.0007
 3596W        W19780   9.603   5.445  13.568 -0.1339  0.1884  0.2189
 3597W        W19781   1.509  17.417   3.430 -0.1790  0.1199 -0.0596
 3598W        W19782   2.278  11.273   6.014  0.1912  0.0884  0.1020
 3599W        W19783   7.992   6.704   1.445  0.6049 -0.0096 -0.0405
 3600W        W19784  10.662   6.275   0.815 -0.0730 -0.3731 -0.0197
 3601W        W19785   6.376   6.602   4.983 -0.0739  0.0797  0.1650
 3602W        W19786  12.828   8.586  13.768  0.0895  0.2321 -0.1160
 3603W        W19787  17.043   9.332   2.896  0.0597 -0.2783 -0.0074
 3604W        W19788   2.059  12.789  13.132  0.0476  0.0511 -0.0904
 3605W        W19789  17.518  14.447   5.452  0.0802 -0.2214  0.0894
 3606W        W19790   7.463  12.874  14.213 -0.1758 -0.0304 -0.1893
 3607W        W19791   4.362   9.520  16.394 -0.0705  0.0166  0.0127
 3608W        W19792   1.703  17.873   2.155 -0.4003  0.0331 -0.0065
 3609W        W19793   0.556  16.258  11.401 -0.0012  0.2684  0.3791
 3610W        W19794   0.276  13.620  14.176 -0.1859 -0.2835  0.1558
 3611W        W19795  14.305   6.343   1.462  0.1966 -0.1200  0.0764
 3612W        W19796   7.233   3.398   2.779 -0.0833 -0.1518 -0.1952
 3613W        W19797  14.385  12.377  12.891  0.0929  0.1902 -0.2111
 3614W        W19798  12.644  13.744  14.865 -0.2713  0.0983 -0.3158
 3615W        W19799  16.705  14.428  12.150  0.1685 -0.2364 -0.0783
 3616W        W19800  11.914  10.155  15.898  0.1641  0.1582 -0.3553
 3617W        W19801   8.503   7.793  14.745 -0.1941 -0.1799 -0.0308
 3618W        W19802   9.803  15.129   4.971 -0.0611 -0.0879  0.1249
 3619W        W19803  14.875   9.675   4.939  0.0270 -0.0808  0.0167
 3620W        W19804  15.715  16.518  13.588 -0.0509 -0.0652  0.1861
 3621W        W19805  17.780   5.790   1.545  0.0307 -0.0404 -0.0346
 3622W        W19806  17.002   0.908   0.334 -0.0218 -0.1328 -0.2598
 3623W        W19807   8.452   3.095  15.641  0.1732 -0.1542 -0.0316
 3624W        W19808   3.128  11.043  14.355  0.1937 -0.0809 -0.0776
 3625W        W19809   2.606   0.033   3.375 -0.0014  0.0265 -0.0512
 3626W        W19810  13.710  16.417   3.652 -0.1926 -0.0778  0.4333
 3627W        W19811  12.489   5.107  15.867  0.1646 -0.0446 -0.1275
 3628W        W19812   8.974   0.069  13.915 -0.1766 -0.2222  0.1038
 3629W        W19813  13.675  15.737   4.225 -0.1884 -0.0528  0.1995
 3630W        W19814   3.584   2.300  15.075  0.0278 -0.4551  0.0152
 3631W        W19815  17.797  10.414   3.144 -0.3494  0.1763 -0.0592
 3632W        W19816   7.492   1.133   4.581 -0.1814  0.2127 -0.0318
 3633W        W19817   2.369  12.364  14.555  0.0993  0.1120 -0.1298
 3634W        W19818  17.869  16.277   1.629 -0.3092  0.1443 -0.2055
 3635W        W19819   0.688   7.467  16.365 -0.0875  0.0101  0.1684
 3636W        W19820  10.033   8.699   0.038 -0.1479 -0.0877 -0.0492
 3637W        W19821   3.586  11.836   1.624  0.0358  0.1124 -0.2013
 3638W        W19822  13.925  13.490  12.498 -0.1049 -0.6067 -0.0831
 3639W        W19823  17.367   7.203  12.600  0.0936 -0.1093  0.1966
 3640W        W19824   9.415   5.326  14.052  0.1174  0.2597 -0.1632
 3641W        W19825  15.683  11.688   3.094  0.1767  0.1184  0.1807
 3642W        W19826   0.195  10.795   6.473 -0.2361  0.0619 -0.0447
 3643W        W19827  17.095   3.978  14.219 -0.0001 -0.1634 -0.2254
 3644W        W19828   5.268  15.605   2.407  0.0694 -0.0991  0.0352
 3645W        W19829   1.687   9.349  13.549 -0.0393  0.1289  0.0103
 3646W        W19830  13.198   3.728  13.880 -0.1957  0.0518  0.1595
 3647W        W19831   2.940   1.795  15.226  0.0149 -0.4025  0.0678
 3648W        W19832  10.858  12.070  12.160  0.2819 -0.2524  0.0033
 3649W        W19833   4.708  10.940   4.036 -0.0903 -0.1655  0.3232
 3650W        W19834   8.980   3.192  13.449 -0.0365  0.0403 -0.0365
 3651W        W19835  12.053   1.950  16.822 -0.0070 -0.0508 -0.0258
 3652W        W19836  10.908   5.129   4.674  0.1739  0.2760 -0.1844
 3653W        W19837  13.387  14.873  15.889  0.4558 -0.1308  0.2935
 3654W        W19838  11.107   3.180  13.734 -0.0277  0.1720  0.0667
 3655W        W19839   0.249  17.426  14.850  0.0963 -0.0665 -0.2995
 3656W        W19840   6.252   0.181  15.247  0.0277  0.0823  0.3410
 3657W        W19841   4.535  15.848   0.209  0.2701 -0.0696  0.0550
 3658W        W19842  12.332   4.336   4.940  0.0771 -0.0026  0.3007
 3659W        W19843   1.040  10.480   1.568 -0.2467  0.0561  0.1961
 3660W        W19844   6.442  16.775   5.556 -0.2944 -0.2639  0.1148
 3661W        W19845   7.047  12.104   3.236 -0.1140 -0.0475  0.2622
 3662W        W19846   3.268   1.090   2.616  0.0011 -0.2334  0.3104
 3663W        W19847   9.970   4.369  16.524 -0.2936  0.2157 -0.2079
 3664W        W19848   2.941  12.596   3.011 -0.4396 -0.0315  0.1001
 3665W        W19849   8.716   3.881   2.081 -0.2155 -0.2701 -0.2564
 3666W        W19850  11.140   6.859   4.093  0.2341 -0.2245  0.1994
 3667W        W19851   1.836   4.884  11.263  0.1722  0.0079 -0.1601
 3668W        W19852  11.766   9.904   6.256  0.0540  0.0662  0.1826
 3669W        W19853  13.499   7.185   6.131  0.2257  0.1734  0.0856
 3670W        W19854   6.530   2.506  13.658 -0.2279 -0.4102 -0.0062
 3671W        W19855   9.029   4.831  15.935 -0.1784 -0.2301 -0.0326
 3672W        W19856   5.566   9.000  16.811 -0.0278 -0.0757  0.3040
 3673W        W19857   2.443   0.348  15.142 -0.0756 -0.0259  0.1561
 3674W        W19858  11.977   7.812   5.228 -0.0988 -0.2401 -0.2456
 3675W        W19859   8.448   3.419   5.666 -0.3200  0.1663  0.1511
 3676W        W19860  12.837   7.697  14.407  0.0977 -0.1831  0.2284
 3677W        W19861  14.739   8.589   2.096  0.0429 -0.1249  0.0975
 3678W        W19862   5.726  16.958   4.221  0.1694  0.3336 -0.1344
 3679W        W19863   8.772  15.622   1.989 -0.0202 -0.0292  0.3518
 3680W        W19864   3.128  13.471   3.542  0.1117 -0.2209 -0.2304
 3681W        W19865   7.084  11.230  15.925  0.0651 -0.0898 -0.0351
 3682W        W19866   2.995   1.693   4.856  0.1097  0.3403 -0.0970
 3683W        W19867   3.441  10.670   3.190 -0.0181 -0.1005 -0.2771
 3684W        W19868   7.040   2.112  14.349  0.0093 -0.0176  0.1087
 3685W        W19869   6.423   7.496   1.253 -0.0851  0.1401 -0.2627
 3686W        W19870   3.200  11.598   2.854 -0.0459 -0.0044  0.1348
 3687W        W19871   8.335   6.355  11.944  0.0383  0.1673 -0.1132
 3688W        W19872   4.690   8.400   0.039 -0.0345 -0.0336 -0.1291
 3689W        W19873   7.192  10.431  16.175 -0.1636  0.1272 -0.2124
 3690W        W19874   5.214  17.767   1.962 -0.2087 -0.0881  0.2043
 3691W        W19875  14.375  14.913  16.364  0.0128 -0.1630  0.0231
 3692W        W19876   5.229   9.610  16.790  0.2360  0.3117  0.0375
 3693W        W19877  14.061  11.015   2.109  0.0637  0.0936  0.0378
 3694W        W19878   7.353  14.448  10.884  0.2694 -0.0200  0.0489
 3695W        W19879  17.144  10.012   6.028  0.2998  0.1152  0.3307
 3696W        W19880   6.325   4.959  12.612 -0.2525 -0.0991 -0.1491
 3697W        W19881  15.729   1.777   3.969 -0.0583  0.1538  0.1154
 3698W        W19882   5.628   9.205  15.039  0.1877 -0.0677 -0.1105
 3699W        W19883  10.873  11.598   0.253 -0.1212 -0.1792 -0.1348
 3700W        W19884   8.234   8.971   0.416 -0.0169  0.1160 -0.0196
 3701W        W19885   5.720   5.564  14.668 -0.0133  0.1981  0.0355
 3702W        W19886  17.259   1.126  14.843  0.2312  0.0424  0.2393
 3703W        W19887   3.539   5.043  16.656  0.0178 -0.1343  0.2700
 3704W        W19888   1.090  11.776   1.523  0.0275 -0.0853  0.0668
 3705W        W19889   5.776   1.885  14.524 -0.3162  0.2684  0.0078
 3706W        W19890  13.140  12.124   2.577 -0.0182 -0.0946  0.1008
 3707W        W19891   2.234   3.910  14.073  0.2913  0.0074  0.2145
 3708W        W19892  15.106   4.307  16.215  0.0453 -0.1000 -0.4075
 3709W        W19893  16.303   3.235  14.877  0.0981  0.0658 -0.3005
 3710W        W19894   4.470  15.907   0.919 -0.1369 -0.2347 -0.2074
 3711W        W19895  11.652  13.744  15.884  0.3296 -0.1731  0.0464
 3712W        W19896   8.286  14.606   0.928  0.0138 -0.1523 -0.0004
 3713W        W19897   1.232   8.146  15.854  0.1353 -0.1418 -0.0569
 3714W        W19898   6.716   9.402   1.590 -0.3327  0.0904  0.1994
 3715W        W19899  13.812  13.387   2.103 -0.1042 -0.3296  0.0472
 3716W        W19900  17.414  12.138  14.984  0.1494  0.3133  0.2864
 3717W        W19901  11.975   1.668   4.337 -0.1134  0.0080  0.1687
 3718W        W19902  10.860  12.965   4.750 -0.0238 -0.2307 -0.1226
 3719W        W19903   8.058   9.208   1.244  0.1434  0.1644 -0.1588
 3720W        W19904   4.468   2.108   5.487 -0.3472 -0.0857  0.4298
 3721W        W19905   0.332  16.477   1.314 -0.2937  0.0630 -0.2033
 3722W        W19906   3.969   7.968   5.442  0.0412 -0.0875  0.2665
 3723W        W19907   3.793  14.085  16.184 -0.0431 -0.0672  0.1739
 3724W        W19908  11.295  17.676   5.329 -0.0685 -0.1567 -0.2990
 3725W        W19909  17.562   3.296   3.910  0.2200 -0.1282 -0.2259
 3726W        W19910  12.312  12.219  12.537 -0.4746  0.0962 -0.1585
 3727W        W19911   9.192   4.253  15.784 -0.0089  0.1342 -0.4412
 3728W        W19912   2.181   7.315   1.243  0.2334  0.1536  0.0753
 3729W        W19913  16.626  13.269   4.653 -0.1303 -0.1480 -0.1895
 3730W        W19914  12.682   9.406  14.863  0.3685 -0.1941 -0.2783
 3731W        W19915   2.604   9.812   4.748 -0.1248 -0.0464  0.1823
 3732W        W19916  11.217   9.307   2.135  0.0595  0.3181  0.1431
 3733W        W19917  12.970  11.134   1.386  0.2761  0.0749  0.1448
 3734W        W19918   1.433   1.689  16.088  0.3512  0.0071 -0.0471
 3735W        W19919   9.346  15.672   2.866 -0.0138  0.0102  0.0637
 3736W        W19920  17.050   8.252  13.987  0.0641 -0.2481 -0.2770
 3737W        W19921  14.937   5.781   2.907  0.2388 -0.2110  0.1621
 3738W        W19922  16.433  12.540   6.129 -0.0522  0.2082 -0.1216
 3739W        W19923   6.510  15.200   2.635 -0.0196 -0.1111  0.2029
 3740W        W19924   0.894   7.291   1.119 -0.1283 -0.2652 -0.1754
 3741W        W19925   4.566  10.733   2.518 -0.3008 -0.2000 -0.2434
 3742W        W19926  12.919  11.613  12.221 -0.1024 -0.2426  0.0942
 3743W        W19927   5.022  13.296  15.685  0.2117  0.0840  0.0761
 3744W        W19928  14.670  13.407   1.196  0.1477  0.0048 -0.0796
 3745W        W19929   6.503  10.513   3.387 -0.0587 -0.0608  0.0269
 3746W        W19930   5.995   2.082   3.429  0.1364  0.2181  0.0112
 3747W        W19931  15.446   8.979  11.854  0.1780 -0.1679  0.1763
 3748W        W19932   4.331  12.469   2.940 -0.1575  0.2672  0.0267
 3749W        W19933  13.545   3.240   4.811 -0.2899  0.1067  0.2891
 3750W        W19934   0.392   6.754  12.523  0.0485 -0.3082 -0.4712
 3751W        W19935  15.426   3.488   2.252  0.1656 -0.0885  0.4405
 3752W        W19936   1.992  11.129   3.770 -0.0853 -0.0291  0.0344
 3753W        W19937   4.167  14.359  14.634 -0.1128 -0.0965  0.2246
 3754W        W19938   4.979  15.702   5.105  0.3135 -0.0484 -0.0740
 3755W        W19939  12.822  13.043  15.598 -0.0116 -0.1444  0.0760
 3756W        W19940  15.356  16.173   2.944  0.2592 -0.0757 -0.0343
 3757W        W19941   7.171  12.771   5.146  0.0291  0.2448  0.1440
 3758W        W19942   4.093   8.386   3.996  0.0316 -0.0433  0.2059
 3759W        W19943  15.623   0.443  16.890  0.1907 -0.1917  0.0100
 3760W        W19944   2.959  14.096  13.834  0.1877  0.0837 -0.0534
 3761W        W19945  13.430  13.307  12.363 -0.0488  0.2343 -0.0814
 3762W        W19946   0.828   9.431   2.477  0.1137 -0.2237  0.1778
 3763W        W19947   0.152   2.066   0.654  0.0747  0.0358 -0.2243
 3764W        W19948   2.464   1.955  14.535 -0.2382 -0.2166  0.0385
 3765W        W19949   2.539  12.633  12.969 -0.4198  0.0103 -0.0622
 3766W        W19950   4.046  17.123   5.239 -0.1194 -0.1780  0.0034
 3767W        W19951   2.015  17.716   1.696 -0.1749  0.0265  0.0839
 3768W        W19952  13.471   4.982  12.584 -0.3251  0.1816 -0.0314
 3769W        W19953  10.656  13.533   2.112 -0.1052  0.1043  0.1660
 3770W        W19954   4.708  14.626  15.555  0.2649  0.3651  0.0365
 3771W        W19955   4.373   6.414   2.780  0.0980  0.2656 -0.1033
 3772W        W19956   6.209  10.210   2.520 -0.0162  0.3091  0.2268
 3773W        W19957   3.949  15.124   3.204  0.1103 -0.2160 -0.3516
 3774W        W19958  12.005  12.567   5.594  0.0643  0.2750  0.1098
 3775W        W19959   4.306  12.954   2.780 -0.0238 -0.1831  0.0329
 3776W        W19960   0.208  11.259  15.159 -0.3323  0.1461 -0.1040
 3777W        W19961  14.789   2.520  12.894  0.2366 -0.2430  0.0709
 3778W        W19962   8.449   8.541  13.109 -0.2004  0.2053  0.0834
 3779W        W19963   1.127  16.444  15.684  0.2034 -0.3281 -0.1448
 3780W        W19964   0.633  10.244  12.256  0.1328 -0.0026  0.1038
 3781W        W19965   3.025   5.485   5.379 -0.0683  0.0619 -0.0253
 3782W        W19966   1.204  16.273   5.427  0.0988  0.0992 -0.1693
 3783W        W19967  16.150  10.865   0.231 -0.0091  0.0986  0.2477
 3784W        W19968  16.666   9.554   4.609 -0.2017 -0.1443 -0.0194
 3785W        W19969  15.341   6.711  12.934  0.1373  0.1467  0.1630
 3786W        W19970  15.679   1.202   5.615 -0.1211 -0.1778 -0.0047
 3787W        W19971   5.126   1.376   5.511 -0.0007 -0.2170  0.0923
 3788W        W19972   0.964   2.118  16.687 -0.3496 -0.0563 -0.0497
 3789W        W19973  13.392  17.141  14.117 -0.0977  0.1617 -0.2772
 3790W        W19974   0.082  16.252   4.002 -0.2694 -0.2741 -0.2197
 3791W        W19975  17.576  15.184   3.190  0.0269  0.2552  0.0543
 3792W        W19976   4.949   4.284  11.307  0.1945 -0.1880 -0.3647
 3793W        W19977  17.032   9.237   0.428 -0.1557 -0.1621 -0.0038
 3794W        W19978   1.116  14.000  16.618  0.2630 -0.0191 -0.0795
 3795W        W19979   0.732   5.498   3.579  0.1668 -0.0816  0.0562
 3796W        W19980   5.061  11.344   3.214 -0.1487 -0.1645  0.2032
 3797W        W19981  11.889   8.121  16.341 -0.3401 -0.2562 -0.0105
 3798W        W19982   8.901   7.176  15.099  0.0229 -0.0625 -0.1393
 3799W        W19983  12.285  12.317   0.661  0.0710  0.0298 -0.1713
 3800W        W19984  10.458   5.836  15.063 -0.0380 -0.0512  0.3767
 3801W        W19985   0.731  10.618   3.666  0.1471 -0.1754  0.0585
 3802W        W19986  12.181   9.013   4.639  0.4546  0.2446 -0.0409
 3803W        W19987   8.615  13.262  16.632 -0.1282  0.1832  0.2650
 3804W        W19988  13.577   1.945   3.555  0.1394 -0.1071  0.0872
 3805W        W19989   8.996   5.485   0.798  0.1021 -0.0772  0.0622
 3806W        W19990  14.929  12.424  11.634 -0.0465 -0.2719 -0.1386
 3807W        W19991  11.510   5.661  13.636 -0.1830  0.2453 -0.0356
 3808W        W19992  13.268   2.137  12.466  0.0748  0.0852  0.2620
 3809W        W19993  11.566   6.958  15.328 -0.2889 -0.2265  0.1227
 3810W        W19994  14.524  17.264  13.866 -0.0093 -0.0281 -0.0207
 3811W        W19995   7.591  10.002  11.543  0.0951 -0.2249  0.0846
 3812W        W19996   1.710  15.838   4.811 -0.0973 -0.0055 -0.0805
 3813W        W19997   4.224   8.651   1.229 -0.4272  0.0291 -0.2967
 3814W        W19998  14.409   9.685   3.701 -0.2752  0.2016 -0.0398
 3815W        W19999  16.243  17.020  16.070 -0.1228 -0.5618 -0.4010
 3816W        W20000  15.365  16.888  16.066 -0.0870 -0.1748 -0.1394
 3817W        W20001   5.371  17.168   6.014 -0.1704 -0.0669  0.1799
 3818W        W20002   4.207  10.340   1.646 -0.3091  0.2131 -0.1216
 3819W        W20003   0.481   9.202  13.709 -0.0374  0.2812 -0.0509
 3820W        W20004  13.412  16.771  14.467  0.0960  0.1123  0.1987
 3821W        W20005   3.694  17.378   4.330  0.0158  0.1821  0.2700
 3822W        W20006  13.350  17.413   5.007 -0.0809 -0.2015 -0.0689
 3823W        W20007   4.927  11.675   5.613 -0.2077  0.2536 -0.1296
 3824W        W20008   2.651  16.986   1.697 -0.4177  0.0268 -0.0544
 3825W        W20009   7.211  16.170  12.774  0.2622  0.1281  0.0194
 3826W        W20010   8.127  13.958   1.724  0.1972  0.0892  0.3704
 3827W        W20011  13.351   3.229  13.540 -0.1517 -0.4050  0.1162
 3828W        W20012  17.557  12.300   3.850  0.1071 -0.0344  0.0675
 3829W        W20013   7.071   5.522  11.107  0.0316 -0.3091 -0.3249
 3830W        W20014  10.011   4.697  11.614 -0.3481 -0.0660 -0.0075
 3831W        W20015   4.234   8.163   1.000 -0.0079  0.0085  0.1987
 3832W        W20016   3.615  13.256  15.477 -0.1399 -0.3089 -0.1937
 3833W        W20017   6.138  14.322   0.962 -0.1171  0.1230 -0.0042
 3834W        W20018   0.617  13.593   4.690  0.0305 -0.0640  0.0695
 3835W        W20019   8.172   0.264  15.205  0.1187  0.2280 -0.3310
 3836W        W20020   1.609  11.223  14.487 -0.0835 -0.1447  0.3403
 3837W        W20021   8.380  15.828   3.262  0.1390 -0.1071  0.2435
 3838W        W20022   1.672   0.792   5.493 -0.1527 -0.3439  0.1693
 3839W        W20023   6.263  12.906  16.492 -0.0946 -0.2028  0.1225
 3840W        W20024   6.964   6.336   3.451 -0.2868  0.2210 -0.0235
 3841W        W20025  14.777   8.411  12.226  0.0979 -0.0587  0.0889
 3842W        W20026   6.953   9.991   2.822 -0.0480 -0.0824  0.1442
 3843W        W20027   8.755  11.039   2.197 -0.2204  0.3769  0.0956
 3844W        W20028  16.979   3.861  14.735  0.2125 -0.1892  0.3981
 3845W        W20029   3.863   9.486   1.350 -0.1611  0.0355  0.1068
 3846W        W20030   4.604   2.565  12.131  0.1029 -0.0051  0.0673
 3847W        W20031   8.184   3.140   5.329 -0.1823 -0.1064  0.2248
 3848W        W20032   8.598   5.351   5.444 -0.3350 -0.0147 -0.1081
 3849W        W20033  14.050   4.735  16.312 -0.3021  0.0348  0.2312
 3850W        W20034   3.770   4.451  16.537  0.1294  0.2316  0.0519
 3851W        W20035   6.739   7.266  16.934 -0.1199  0.0129  0.2489
 3852W        W20036   4.496  13.461  11.517  0.1591 -0.0053  0.0582
 3853W        W20037  13.396   2.503  16.310 -0.0635  0.3205  0.0151
 3854W        W20038  14.183  10.143   3.824 -0.0011 -0.0433 -0.0242
 3855W        W20039  15.356  15.327  16.898  0.0711 -0.2049 -0.0287
 3856W        W20040   9.062  11.891  10.716 -0.1200  0.1355  0.2547
 3857W        W20041   6.831   5.427   5.924  0.2288 -0.1072 -0.2829
 3858W        W20042   1.889   5.288   4.664 -0.1739 -0.5731  0.0035
 3859W        W20043  10.811   7.061   3.012 -0.0966  0.2324  0.1238
 3860W        W20044   9.267  17.577  16.409 -0.1746 -0.0092  0.2490
 3861W        W20045   5.297  11.874  15.548 -0.4056 -0.0198 -0.3105
 3862W        W20046   2.583   4.721  15.600  0.0693 -0.0868 -0.1028
 3863W        W20047  13.641   7.661  12.262  0.0032 -0.0381 -0.2501
 3864W        W20048   7.122   9.933  13.442  0.1742  0.2198 -0.0580
 3865W        W20049  10.708   8.450   5.134 -0.0012 -0.0611 -0.0011
 3866W        W20050   5.790  12.629   0.929 -0.1541  0.0940  0.1624
 3867W        W20051  12.271  16.356  14.432  0.2353 -0.3676  0.2520
 3868W        W20052  10.109   5.428   5.336  0.0884 -0.0328 -0.0531
 3869W        W20053  13.067  10.439  15.449 -0.3817  0.1085 -0.0844
 3870W        W20054   1.448   3.912  13.611 -0.1563  0.0123 -0.0876
 3871W        W20055   5.836  16.258  11.704  0.0172 -0.0105 -0.2122
 3872W        W20056   3.662  13.024   4.617  0.0439 -0.0735  0.1805
 3873W        W20057   2.107   8.823  15.685 -0.3275 -0.3864  0.0658
 3874W        W20058  15.009  13.708   0.964  0.0237 -0.1891  0.3456
 3875W        W20059  10.274  14.417  14.905 -0.1122 -0.3190 -0.0237
 3876W        W20060   1.463   9.655   5.970 -0.1459 -0.0365 -0.0574
 3877W        W20061   3.706   7.455   4.043  0.1969 -0.0180 -0.0925
 3878W        W20062   7.714   1.316   1.805 -0.1235 -0.0823  0.1799
 3879W        W20063  13.450   0.187  15.274  0.0576 -0.1780  0.2458
 3880W        W20064   2.145  17.118  12.769  0.2979 -0.3859 -0.1233
 3881W        W20065   7.788  15.071  14.770  0.1542  0.1688  0.1853
 3882W        W20066   8.766   3.396  15.327  0.0769  0.0033 -0.1219
 3883W        W20067  13.776   8.482   1.668  0.0173 -0.1853 -0.2288
 3884W        W20068   0.518   8.461   3.482  0.0947  0.3340 -0.3817
 3885W        W20069  11.874   9.692   5.266  0.0325 -0.0499  0.4194
 3886W        W20070   2.465   1.640   4.918 -0.2712 -0.0352 -0.0259
 3887W        W20071   5.927   7.466   1.650  0.1445  0.0303  0.0334
 3888W        W20072  10.152  13.518   1.737 -0.0748  0.0987  0.0540
 3889W        W20073  16.330  16.935  15.585  0.0052 -0.3314  0.1710
 3890W        W20074   7.957   3.827   2.801  0.1369  0.3436  0.0492
 3891W        W20075   8.307   5.935  16.567  0.1348 -0.0836 -0.0464
 3892W        W20076   0.322  12.901   5.793 -0.1544  0.1968  0.0650
 3893W        W20077  12.088  12.205   2.799 -0.2119 -0.2643  0.0986
 3894W        W20078   6.130  10.903   1.658  0.2789 -0.0459  0.1265
 3895W        W20079   5.589   3.067   2.408  0.0470  0.1110 -0.1646
 3896W        W20080   9.074   8.573   4.240  0.1213  0.3239 -0.1467
 3897W        W20081  15.769   6.368   0.680  0.1521  0.0480  0.0609
 3898W        W20082   8.822  13.969   0.797 -0.3594  0.2907  0.0119
 3899W        W20083   0.180   8.384   2.650  0.2018 -0.0750 -0.1654
 3900W        W20084   4.325  15.372   0.409  0.0718  0.1608  0.0342
 3901W        W20085  14.166  13.047   2.958 -0.0289  0.0163  0.2355
 3902W        W20086   9.894  16.055   3.104 -0.2196 -0.1645 -0.1200
 3903W        W20087   6.793   6.011   0.246 -0.1549 -0.2374  0.0323
 3904W        W20088  13.371  10.107  13.242  0.0402  0.1161 -0.2106
 3905W        W20089   6.752  15.985   2.045 -0.0000  0.2345 -0.1317
 3906W        W20090   7.762   4.266  12.118  0.2136  0.1964  0.1995
 3907W        W20091   9.559  17.256  13.103  0.0719  0.2449 -0.1683
 3908W        W20092   8.282  16.640   0.864 -0.2350  0.1860 -0.1915
 3909W        W20093   7.289   9.557  16.668  0.0780 -0.0751  0.4060
 3910W        W20094   4.137  14.774  15.778 -0.2088  0.2932  0.1155
 3911W        W20095  10.743   5.904   4.801  0.1966 -0.0205 -0.2497
 3912W        W20096  10.364   5.362   4.608  0.1286  0.1129 -0.1605
 3913W        W20097   9.437  10.990   4.902 -0.2226 -0.0228  0.0412
 3914W        W20098   0.725   4.310  13.384  0.1204 -0.0697  0.0588
 3915W        W20099   1.623  15.970   0.291 -0.1195 -0.3756 -0.0267
 3916W        W20100   0.395   5.650   1.719  0.0495 -0.2581  0.1315
 3917W        W20101   7.474  16.836  13.507  0.1116 -0.4756  0.0686
 3918W        W20102   0.750  14.566  13.503 -0.3504  0.4724  0.1568
 3919W        W20103  16.810   0.872   4.039  0.3447 -0.1913  0.2219
 3920W        W20104   4.193   7.327   0.504  0.1366  0.0071  0.0280
 3921W        W20105   8.006   8.373   5.755  0.4461 -0.2274 -0.1024
 3922W        W20106   6.896  10.551   3.689 -0.0861 -0.1073  0.0368
 3923W        W20107   9.289  15.602  16.713  0.1280 -0.0919 -0.0753
 3924W        W20108   4.720   8.552  11.989  0.2303  0.0539  0.1894
 3925W        W20109  11.958   8.505  15.636 -0.1092 -0.1479  0.3484
 3926W        W20110   6.940  12.628   4.258  0.2497 -0.1118  0.0279
 3927W        W20111   7.203  10.502   5.586  0.1677  0.2356  0.0861
 3928W        W20112   6.378   8.509   2.961 -0.1199 -0.0891 -0.2242
 3929W        W20113  15.610  11.423  16.636  0.0370  0.2102  0.0455
 3930W        W20114  16.337  13.630   6.187 -0.2848  0.1373  0.0807
 3931W        W20115   6.199   9.056   5.960 -0.2400  0.0726  0.0619
 3932W        W20116   5.810  15.130  13.497  0.0218 -0.1054  0.1675
 3933W        W20117   2.494   8.821  13.921 -0.0841  0.1091  0.0792
 3934W        W20118   7.542   3.530  15.628 -0.1646 -0.4298 -0.0365
 3935W        W20119   8.205   9.921  13.639  0.2869  0.1834  0.0055
 3936W        W20120   2.281  11.900   1.609  0.0342  0.0563  0.0216
 3937W        W20121  13.789  13.085  14.275  0.2589 -0.2269  0.0427
 3938W        W20122   0.883   7.188   2.497 -0.0584 -0.1329 -0.2013
 3939W        W20123   5.787   9.697  14.709  0.1483  0.2690 -0.1726
 3940W        W20124  17.339   3.530   3.102 -0.1183 -0.0338  0.2162
 3941W        W20125   5.822  13.924   2.514  0.1099 -0.1931  0.2471
 3942W        W20126  10.325   4.421  13.492  0.1042 -0.1617  0.1254
 3943W        W20127  13.756   7.434   0.526  0.1198 -0.0838 -0.0588
 3944W        W20128   2.242   7.772  15.576 -0.1634 -0.2308 -0.0858
 3945W        W20129  12.673  17.708  13.212  0.2890  0.0315  0.1678
 3946W        W20130  15.059   3.837   4.920  0.2745  0.1461 -0.0406
 3947W        W20131  10.445   4.590  13.937  0.0842 -0.1239  0.0961
 3948W        W20132  17.553   4.174   2.324 -0.0476  0.0997  0.3711
 3949W        W20133   3.727   0.587  14.406 -0.1518 -0.1765 -0.0123
 3950W        W20134  17.662   1.799   0.792 -0.2958  0.0482 -0.2152
 3951W        W20135   5.476   0.627  16.525 -0.1701  0.0313 -0.0284
 3952W        W20136  12.075   7.133   0.070  0.1625  0.2243  0.0119
 3953W        W20137   6.986   8.482   5.383  0.2629  0.0063 -0.0643
 3954W        W20138   4.780  10.062   3.974 -0.1805  0.3869  0.0948
 3955W        W20139  13.056   6.427  12.771 -0.2456 -0.1698 -0.1258
 3956W        W20140   3.751  13.968   4.572 -0.1457 -0.1044  0.0936
 3957W        W20141   7.787   3.997   2.118  0.1138 -0.1415 -0.0863
 3958W        W20142  10.491  13.980  15.131 -0.0380 -0.0076 -0.0702
 3959W        W20143  16.726   1.280   5.559 -0.0705  0.2432 -0.0760
 3960W        W20144  15.218  12.640   0.031 -0.1319 -0.0877 -0.4420
 3961W        W20145  11.734   7.649  15.001  0.1026  0.1341 -0.2465
 3962W        W20146  17.374   7.897  11.906 -0.1017 -0.1874  0.0421
 3963W        W20147  11.154  12.496   4.785 -0.0043  0.0785 -0.0615
 3964W        W20148  11.977   5.429  13.999 -0.1727 -0.3221 -0.0532
 3965W        W20149   2.166   3.033  15.978  0.0058  0.2841 -0.2811
 3966W        W20150   5.126   7.046  15.572 -0.0580  0.1395  0.3992
 3967W        W20151   1.435  17.543  15.980  0.0344  0.5078 -0.1563
 3968W        W20152  12.371   4.423  12.741  0.0809 -0.0080  0.1873
 3969W        W20153   7.324   2.129  11.847 -0.1267  0.3044  0.3040
 3970W        W20154   8.196  11.301   4.187  0.1223 -0.0544 -0.0541
 3971W        W20155  10.801   5.036  13.969 -0.1277  0.1940 -0.0579
 3972W        W20156   8.157   2.045  13.931  0.2099  0.1747 -0.0678
 3973W        W20157   9.530  10.424  14.644  0.0307 -0.1877 -0.1778
 3974W        W20158  13.699   1.379   3.117 -0.0588  0.3231  0.2099
 3975W        W20159   6.578  10.381   2.938  0.0906  0.2271 -0.1233
 3976W        W20160  13.446  15.738  11.667  0.1259 -0.1143  0.0243
 3977W        W20161   6.747   1.390   1.682  0.2635  0.1321  0.1090
 3978W        W20162  12.308   1.754  10.911 -0.3685 -0.1922  0.0413
 3979W        W20163  16.000   0.126  13.036  0.1131 -0.2090  0.0688
 3980W        W20164  15.911  11.443  15.689  0.1387 -0.1350 -0.1194
 3981W        W20165   4.475  11.981   1.052 -0.2485 -0.2078 -0.0858
 3982W        W20166   9.681   0.706   6.350 -0.2999  0.2715  0.2052
 3983W        W20167   0.763   3.679   5.023  0.0666  0.0401 -0.2795
 3984W        W20168  17.238   5.811  14.484 -0.1610 -0.0081 -0.1363
 3985W        W20169   9.622  14.467  12.402  0.0988 -0.2151 -0.0653
 3986W        W20170  10.031   1.693   5.773 -0.0934  0.0184 -0.2856
 3987W        W20171  12.169  15.865  13.429  0.3423  0.2477  0.1420
 3988W        W20172   5.919   9.895   2.898 -0.1882 -0.0862 -0.2969
 3989W        W20173   5.835   3.913   2.217  0.1620 -0.0376 -0.0694
 3990W        W20174  13.533  13.784  12.696  0.2363  0.1300 -0.1946
 3991W        W20175  17.118   4.847  14.440 -0.2380 -0.0222  0.2402
 3992W        W20176  16.799   9.829   3.726  0.0224 -0.1610 -0.3467
 3993W        W20177  15.935   4.154  12.726 -0.1353 -0.0432  0.0335
 3994W        W20178   1.786   6.224  16.369  0.0182 -0.2174 -0.0894
 3995W        W20179  14.651  16.722  12.183  0.1653 -0.1535  0.0950
 3996W        W20180  10.223  11.893   1.882 -0.1339 -0.2601  0.0046
 3997W        W20181  11.505  12.136   4.796 -0.0357  0.3477 -0.1995
 3998W        W20182  11.012   1.565  16.296 -0.0706 -0.2270 -0.0880
 3999W        W20183   3.323  12.648   4.462  0.0165  0.1367 -0.1446
 4000W        W20184  11.543   3.827   5.308  0.2921 -0.0296  0.0923
 4001W        W20185  10.109   5.089  12.049 -0.3299  0.3053  0.0370
 4002W        W20186   7.192  17.078  11.305 -0.0449 -0.3525  0.0725
 4003W        W20187   3.477  15.216  15.443 -0.1750  0.0528 -0.1299
 4004W        W20188  16.744  11.606  12.071 -0.1719 -0.0030 -0.2922
 4005W        W20189  12.403  15.660   4.626 -0.1533  0.0927 -0.1053
 4006W        W20190   1.062   6.083   2.396  0.2961 -0.0619  0.0018
 4007W        W20191   9.373  13.387  14.947 -0.2070 -0.2811 -0.1024
 4008W        W20192  17.539   5.657   4.584  0.1650 -0.1531  0.0710
 4009W        W20193   4.724  10.356   1.674 -0.2199 -0.1142  0.0362
 4010W        W20194  16.472   3.638  12.711 -0.0287  0.3078 -0.0568
 4011W        W20195  14.516   5.486  12.149  0.1782  0.2324 -0.1109
 4012W        W20196  12.375   9.652  15.601  0.2573 -0.0639 -0.1994
 4013W        W20197   6.610  16.734  11.567 -0.0543  0.2348  0.0597
 4014W        W20198   8.137   5.655  12.291 -0.0353  0.0726 -0.0529
 4015W        W20199   7.414  14.123  15.097  0.1729  0.0512  0.1257
 4016W        W20200  11.030   3.543   4.257  0.1556 -0.3128  0.3490
 4017W        W20201  15.122   2.781   3.434 -0.2598  0.3308  0.1674
 4018W        W20202   7.185   4.662  16.898 -0.0306  0.1194  0.1346
 4019W        W20203  11.332  12.311  14.930  0.3458 -0.0187 -0.2634
 4020W        W20204  14.719   6.225   2.919  0.0586  0.3493  0.3284
 4021W        W20205   2.622  11.717   2.715  0.2004  0.1121 -0.2605
 4022W        W20206   4.134   3.033  15.407 -0.0161 -0.0502 -0.1060
 4023W        W20207   5.341   7.844   3.449 -0.0139 -0.2655  0.2483
 4024W        W20208  14.018  17.829  13.031  0.2808 -0.0459  0.0854
 4025W        W20209  13.740  14.538   3.032 -0.1900  0.0164  0.2944
 4026W        W20210   2.041  15.414   3.443 -0.2074 -0.1682  0.0760
 4027W        W20211   5.215  16.603   2.639  0.1398 -0.0256  0.2574
 4028W        W20212   4.752   8.371  12.916 -0.2160  0.0966 -0.2512
 4029W        W20213   5.979  13.099  13.586  0.1115  0.2572  0.0412
 4030W        W20214  10.353   2.249   1.686 -0.0781  0.2211 -0.2540
 4031W        W20215   7.018   7.530  12.695  0.1956  0.2040  0.1438
 4032W        W20216   5.150   3.547   4.785  0.4030 -0.1127 -0.3323
 4033W        W20217   5.297   0.321   2.236  0.0315  0.4477 -0.2285
 4034W        W20218  11.059   1.839   1.297 -0.0957 -0.1653  0.0097
 4035W        W20219  12.739  10.339   6.521 -0.1724  0.1119 -0.0954
 4036W        W20220  15.656  17.693  12.715 -0.0850 -0.0256 -0.0111
 4037W        W20221  16.718   8.689   5.043  0.2200 -0.0105  0.0340
 4038W        W20222   8.131   9.845   2.616  0.0386  0.2953 -0.0581
 4039W        W20223   7.839  10.180  13.347  0.2319  0.2408 -0.1088
 4040W        W20224   0.564   1.547   4.959 -0.0277 -0.1014 -0.1274
 4041W        W20225  11.660   3.064   3.245 -0.2530  0.1459  0.0599
 4042W        W20226   5.350   7.352  13.906  0.0368 -0.2096  0.0366
 4043W        W20227   2.890   3.591   2.786 -0.2625 -0.1049  0.0017
 4044W        W20228   8.609   6.619  11.554  0.1456  0.0266 -0.2012
 4045W        W20229  13.613   3.809   3.666  0.1989  0.0407  0.3324
 4046W        W20230   5.905   2.293  16.924 -0.0547 -0.0272 -0.0676
 4047W        W20231  14.831  14.188  15.925 -0.1483 -0.0642 -0.1734
 4048W        W20232   9.913  17.399  12.025  0.1536  0.0957  0.0750
 4049W        W20233   1.407   0.563   2.754 -0.2253  0.0782  0.1190
 4050W        W20234  12.784   7.402   1.064  0.1551  0.0924 -0.0701
 4051W        W20235   8.225   7.694  16.407 -0.0581 -0.1466  0.0742
 4052W        W20236   0.515   5.966  12.817 -0.2119 -0.2366  0.3126
 4053W        W20237   7.742   8.895  14.276 -0.0517 -0.2761 -0.0462
 4054W        W20238  10.192   2.951   1.643 -0.0795  0.0073  0.1382
 4055W        W20239  12.465  12.688  12.439  0.4291 -0.2389 -0.0211
 4056W        W20240  13.441   9.564   1.497  0.0780  0.1486  0.0281
 4057W        W20241   0.932  11.818   0.410 -0.1636  0.0870 -0.3311
 4058W        W20242  13.789  10.050   4.234  0.1834  0.2383  0.1468
 4059W        W20243   9.096  17.571  14.736  0.0844 -0.0865  0.0923
 4060W        W20244  14.626  17.872  14.648  0.0333  0.2842 -0.2567
 4061W        W20245   2.588  11.177   4.526 -0.1915  0.0792  0.2217
 4062W        W20246   6.400  16.118  12.279  0.1268  0.1096  0.0480
 4063W        W20247  14.622   6.344   1.857 -0.0027  0.0870 -0.2074
 4064W        W20248  11.971  14.618  16.099  0.2239 -0.1885 -0.1860
 4065W        W20249   7.224  13.608  13.872  0.2295  0.3853  0.1058
 4066W        W20250   6.225   3.179  14.719 -0.1532  0.1844 -0.1046
 4067W        W20251  10.065   7.448   1.848 -0.2911  0.1040  0.0048
 4068W        W20252  16.260  11.528   5.835 -0.0449  0.0237 -0.1574
 4069W        W20253   4.425  17.565   2.331  0.0908  0.0693 -0.2228
 4070W        W20254  16.423  12.030   0.757  0.0428  0.2209  0.5279
 4071W        W20255  11.410  14.379  14.668  0.0385  0.1250  0.1331
 4072W        W20256   1.274   2.344   6.063  0.0539  0.2693  0.1493
 4073W        W20257  10.198   1.952   2.035  0.1398 -0.1045  0.3252
 4074W        W20258  13.108  13.603  14.491  0.1550 -0.0428 -0.1252
 4075W        W20259   3.012   6.814  14.027  0.1686 -0.0614 -0.1332
 4076W        W20260   0.611   5.804   0.325  0.1241  0.2825  0.0073
 4077W        W20261   9.713   7.631   3.592  0.0131  0.0639 -0.1741
 4078W        W20262  13.235   3.141  15.293  0.2743 -0.1294  0.2491
 4079W        W20263  14.322   0.209   4.891 -0.1965  0.1710  0.0591
 4080W        W20264  11.657   0.765   2.300 -0.1467 -0.0671 -0.1925
 4081W        W20265  17.226   2.483   5.045  0.0089 -0.3460 -0.0264
 4082W        W20266  13.063  13.709  12.375  0.4900  0.1587 -0.1702
 4083W        W20267  13.604   1.188  16.424 -0.0027 -0.1987  0.1189
 4084W        W20268   3.130   8.425   0.387  0.0556  0.1127  0.0446
 4085W        W20269  14.463  13.499  12.162  0.1551 -0.2604 -0.0676
 4086W        W20270   9.192  14.363   0.375  0.1976  0.2619 -0.1313
 4087W        W20271  17.039   3.336  13.363  0.1842 -0.3521  0.1263
 4088W        W20272   0.804  15.034   0.289 -0.0883  0.0898 -0.0564
 4089W        W20273  14.251   7.468  15.522 -0.0474 -0.1935  0.0937
 4090W        W20274   9.513   4.208   4.185  0.4718 -0.0557  0.2953
 4091W        W20275   7.251   4.826  16.042 -0.1700  0.1948  0.0133
 4092W        W20276   8.953   6.178   5.681  0.1119 -0.1931 -0.2788
 4093W        W20277  15.061   4.293   2.679 -0.1440  0.1514 -0.0953
 4094W        W20278  14.403  10.256   6.104  0.1864 -0.0315  0.0147
 4095W        W20279  12.145   6.336  14.558  0.0284 -0.1088  0.3595
 4096W        W20280   0.556  16.637  15.359 -0.0796  0.2026 -0.0855
 4097W        W20281   2.513   9.327   4.806  0.0910  0.0605 -0.1769
 4098W        W20282  14.565   8.839  15.864  0.0560  0.2091 -0.1179
 4099W        W20283  12.516   2.847   3.831 -0.2306  0.0476  0.4582
 4100W        W20284   9.303  11.023   5.407 -0.0846 -0.0309  0.0566
 4101W        W20285  10.874   1.617  14.992 -0.0219  0.0860 -0.2295
 4102W        W20286  14.574  14.406  16.394 -0.1448 -0.2006  0.2624
 4103W        W20287   4.707  11.185  14.356  0.1327 -0.0725  0.2061
 4104W        W20288   2.923   4.080   4.814 -0.2260  0.2631 -0.2125
 4105W        W20289  11.169  13.863  13.608  0.3158  0.0908 -0.0332
 4106W        W20290   3.918  12.782  14.130 -0.2737  0.0092  0.2456
 4107W        W20291   2.918  11.173  12.664 -0.1031  0.1090  0.0141
 4108W        W20292   5.034   4.618  16.237 -0.0060 -0.0592 -0.3169
 4109W        W20293   8.307   1.966   4.503 -0.0088 -0.0469 -0.1527
 4110W        W20294  17.219   3.979  11.813 -0.0272  0.1438 -0.3206
 4111W        W20295   4.037  16.405  12.085 -0.2135  0.1289 -0.1243
 4112W        W20296  15.453   9.863  14.434  0.0773  0.1616  0.0235
 4113W        W20297  16.029   1.304   3.094  0.2191  0.2452  0.1016
 4114W        W20298  10.232  11.660   1.428  0.1969  0.3093 -0.0575
 4115W        W20299   2.263   8.614   5.812 -0.1868 -0.1227 -0.4846
 4116W        W20300   1.857   9.312  14.854  0.2442 -0.2878  0.0122
 4117W        W20301  15.368   5.551   2.770  0.5088 -0.2278 -0.4198
 4118W        W20302  16.924   7.756   3.257 -0.0001 -0.0989  0.2940
 4119W        W20303  15.394  16.641   5.081  0.1334 -0.0540  0.0946
 4120W        W20304   1.392   8.272  16.372 -0.0522  0.1572 -0.3443
 4121W        W20305   3.158  17.214  15.098 -0.0727  0.1710  0.0380
 4122W        W20306  10.963  12.714   1.029  0.0421 -0.0004  0.1138
 4123W        W20307  13.004   8.224  12.669 -0.2130  0.0139  0.2787
 4124W        W20308   1.043  16.374   4.649  0.1134 -0.1463 -0.0708
 4125W        W20309   3.881   7.721   4.895  0.0995 -0.0037  0.1300
 4126W        W20310   1.837   2.295  10.783 -0.1753  0.1938  0.0864
 4127W        W20311   3.788   0.823   5.978 -0.0507 -0.0987  0.2034
 4128W        W20312   2.752  17.225   2.633 -0.2095  0.1178 -0.2417
 4129W        W20313  17.883   0.454  16.491 -0.4922  0.2385 -0.1021
 4130W        W20314  16.714   8.427  11.671 -0.1626 -0.0890 -0.0915
 4131W        W20315   1.109   9.590  16.084  0.0033 -0.1339 -0.2204
 4132W        W20316  12.553   2.594  15.394  0.1891 -0.1131 -0.0264
 4133W        W20317   1.776   6.106  13.350  0.3772  0.1469 -0.1062
 4134W        W20318   0.043  14.178   5.743 -0.2616 -0.0379  0.0506
 4135W        W20319  11.740   6.483  12.180 -0.0914  0.0059 -0.0245
 4136W        W20320  14.592   8.658  11.764 -0.1380 -0.2085 -0.4293
 4137W        W20321   5.270   3.946   1.423  0.1098 -0.6272 -0.2909
 4138W        W20322  14.975  15.877  11.707 -0.1704 -0.2068 -0.1416
 4139W        W20323   7.705   7.930   4.047  0.1279 -0.2238  0.0053
 4140W        W20324  13.541  17.208   4.259  0.2233  0.1654 -0.2351
 4141W        W20325   8.067  17.233  15.554 -0.0458  0.1155 -0.1911
 4142W        W20326   9.006  14.986   3.454 -0.0214  0.0646  0.1634
 4143W        W20327  17.567   2.013   3.287 -0.0175  0.0343  0.3192
 4144W        W20328  16.315  16.599  12.536 -0.0252 -0.1241 -0.0243
 4145W        W20329  17.201   3.071   3.016 -0.0649  0.0295  0.1963
 4146W        W20330   8.592  10.037  15.043  0.1651 -0.1260  0.1155
 4147W        W20331   8.119  16.110   0.919  0.2195  0.1495 -0.1439
 4148W        W20332  10.693  14.741   4.750 -0.0344  0.1192  0.0302
 4149W        W20333   6.007   1.077   4.599 -0.1151  0.1044  0.0502
 4150W        W20334   4.577   8.572   4.938  0.0877 -0.1315 -0.2352
 4151W        W20335  12.815  16.514   4.215 -0.0257  0.1064  0.0367
 4152W        W20336   4.422   1.601   0.278 -0.0916  0.2287  0.1440
 4153W        W20337   6.767  11.002   2.209 -0.1896  0.1418 -0.0931
 4154W        W20338   9.338  12.666   3.058 -0.1021 -0.1903  0.1647
 4155W        W20339  16.151   5.351   2.167  0.5089 -0.1049 -0.0932
 4156W        W20340   6.630   3.769  16.660 -0.0366 -0.5705 -0.1530
 4157W        W20341   5.493   7.810   5.535  0.1235 -0.1455 -0.1896
 4158W        W20342  16.298   1.461   1.097 -0.2549 -0.3473  0.2302
 4159W        W20343   3.962   8.223   3.481  0.0237 -0.0703  0.2251
 4160W        W20344  11.099   1.433   3.429 -0.3467  0.4746 -0.1052
 4161W        W20345   3.764   0.840  11.863 -0.2638  0.2407  0.0998
 4162W        W20346  13.982   2.721  13.157  0.4544 -0.3816 -0.1777
 4163W        W20347   7.975   8.418  13.225 -0.1141 -0.3733  0.0422
 4164W        W20348   3.057   8.613   3.584 -0.3530 -0.1572  0.2335
 4165W        W20349   3.205   0.315   0.623 -0.3015  0.2030 -0.0174
 4166W        W20350   7.753  15.419   2.696 -0.0776  0.0158  0.1839
 4167W        W20351   6.151   8.106   3.217 -0.0368  0.1827 -0.2041
 4168W        W20352   5.233  16.128   4.506  0.1008 -0.2140 -0.1691
 4169W        W20353   6.235  15.298   1.651  0.1785 -0.3597 -0.1857
 4170W        W20354  17.150   1.280   1.290  0.3070 -0.1736  0.4285
 4171W        W20355  13.424   3.260  12.626  0.1466  0.1015 -0.2779
 4172W        W20356   9.525  14.120   1.219 -0.1888 -0.0585 -0.1185
 4173W        W20357  16.588   8.409  12.665 -0.1509  0.0830  0.0168
 4174W        W20358  13.454  15.665  11.201  0.0589 -0.0914  0.0311
 4175W        W20359   5.268  11.664  15.038 -0.1711 -0.1704  0.1605
 4176W        W20360   8.419  12.502  16.116  0.1019  0.0449 -0.1839
 4177W        W20361  13.834   9.298  14.820 -0.0336  0.1800  0.0503
 4178W        W20362   2.402  14.319  11.256  0.0478 -0.1871 -0.4393
 4179W        W20363  12.671  13.963  14.434  0.0811  0.1943  0.0795
 4180W        W20364  11.875  15.263  11.391  0.2505 -0.2093  0.1238
 4181W        W20365   2.586   8.355   5.435 -0.2115  0.0368  0.1685
 4182W        W20366  11.063   6.058  12.015  0.0429 -0.1255 -0.1017
 4183W        W20367  16.872   8.667  15.791  0.1607  0.2834 -0.0909
 4184W        W20368  12.014   3.484  12.276  0.1590 -0.2344 -0.1128
 4185W        W20369   7.911  17.653   2.894  0.0916 -0.0863  0.0346
 4186W        W20370  14.126   1.287  14.556 -0.2156  0.1651  0.3381
 4187W        W20371   8.997  11.230   6.078  0.0532 -0.1296  0.2578
 4188W        W20372   8.830   6.691  14.963  0.1191 -0.1451 -0.2670
 4189W        W20373   4.768   1.973   5.092  0.0849  0.2378 -0.0336
 4190W        W20374  14.882  15.438  16.510 -0.0314 -0.1501 -0.2523
 4191W        W20375  15.906  16.003  11.945  0.0258  0.2615 -0.1675
 4192W        W20376   2.225   2.085  15.683  0.1627  0.0539  0.1399
 4193W        W20377   5.713   9.554   0.672  0.0442 -0.0242  0.0614
 4194W        W20378   4.578   5.779   3.677  0.0602 -0.1929 -0.4308
 4195W        W20379  10.337   1.023  11.866 -0.2276 -0.2252  0.2399
 4196W        W20380  15.895  16.797   5.445  0.1352 -0.4239 -0.0072
 4197W        W20381  12.926  14.580   2.013 -0.0796  0.0354  0.0644
 4198W        W20382  16.271  12.298   1.317  0.0039 -0.0957 -0.0515
 4199W        W20383   8.607   1.627   3.785  0.0111  0.0687  0.0225
 4200W        W20384   3.761  17.868  14.838  0.2416  0.2655  0.1705
 4201W        W20385  10.802   5.449   3.398 -0.2732  0.3515 -0.0154
 4202W        W20386  16.415  11.485   5.340  0.0193 -0.2647  0.0013
 4203W        W20387   6.031   8.134  16.110 -0.1770 -0.2560  0.1095
 4204W        W20388   5.304   6.024  14.092  0.5929 -0.1482 -0.3137
 4205W        W20389  13.118   1.108   0.288  0.1647  0.0493 -0.1637
 4206W        W20390   8.856  17.803   2.877 -0.0582  0.2168 -0.0247
 4207W        W20391   0.221  10.130   3.437 -0.1556  0.0683  0.0291
 4208W        W20392  17.248  14.088   1.244  0.1612 -0.3164 -0.0487
 4209W        W20393   4.227  11.349   4.827  0.1071 -0.0386  0.2459
 4210W        W20394  14.685   8.425   1.284 -0.3020  0.1195 -0.0472
 4211W        W20395   7.425   7.011   2.885 -0.0026  0.2565 -0.0080
 4212W        W20396  13.808  13.878   0.779  0.1937  0.2135 -0.0467
 4213W        W20397  17.853   8.362  15.537 -0.0130  0.0510  0.1209
 4214W        W20398  16.596   7.010   1.161 -0.0744  0.0603 -0.0028
 4215W        W20399  11.539   5.644   5.850  0.1819 -0.1332 -0.1953
 4216W        W20400   0.974   5.324  12.280  0.2157 -0.0635 -0.0286
 4217W        W20401   5.142  16.520  11.489  0.1734  0.2335  0.1528
 4218W        W20402   0.492   0.329   2.719  0.1908 -0.2212 -0.1767
 4219W        W20403   0.035   5.540   4.882 -0.2035  0.2896  0.2787
 4220W        W20404   6.517  13.892  14.907 -0.2467 -0.0336 -0.1282
 4221W        W20405  14.710  16.200  15.736 -0.0039 -0.2460 -0.2034
 4222W        W20406   1.403   8.536   3.555  0.0179 -0.0741  0.1504
 4223W        W20407  10.276   4.223   2.967  0.1572  0.3139  0.4683
 4224W        W20408  10.480   4.415  11.727 -0.1016 -0.0962  0.1002
 4225W        W20409   4.778   4.904  12.615  0.4825  0.1038 -0.3034
 4226W        W20410  16.229   9.598   4.891  0.1062  0.0618  0.0494
 4227W        W20411   6.858   7.276   1.518 -0.1462 -0.1236 -0.0180
 4228W        W20412  12.871  16.975   3.884 -0.2187 -0.0000  0.0355
 4229W        W20413  16.582  17.671   2.565 -0.2128  0.0498  0.0211
 4230W        W20414   5.652   2.500   4.086  0.2125  0.0936 -0.0569
 4231W        W20415   7.432   7.240  15.905 -0.1201 -0.1056 -0.0601
 4232W        W20416   3.840   0.786  15.832  0.2800  0.0252 -0.2191
 4233W        W20417   5.288   5.245   4.182 -0.1584 -0.0269 -0.3165
 4234W        W20418  14.148   5.455  14.081 -0.1617 -0.0671  0.0109
 4235W        W20419   5.182   1.177   6.161 -0.0154  0.0979 -0.1559
 4236W        W20420   0.730  17.734   5.697 -0.2261 -0.0889  0.2069
 4237W        W20421  14.552  16.223   0.683  0.0980 -0.1690  0.2044
 4238W        W20422  13.843  13.360   1.557 -0.1015  0.2010 -0.0218
 4239W        W20423  13.702   7.889   0.664 -0.4159 -0.0867  0.2363
 4240W        W20424  12.954   6.962  15.975 -0.1873 -0.1445 -0.1017
 4241W        W20425   5.103   8.054  15.671 -0.3640  0.1047 -0.2563
 4242W        W20426   8.541  14.351   2.822 -0.1501 -0.1033 -0.1234
 4243W        W20427  13.087  13.862  12.927  0.2182 -0.1443 -0.2304
 4244W        W20428  12.635  16.365   1.936 -0.1819 -0.0590 -0.3607
 4245W        W20429   4.407   4.561  15.334 -0.1724  0.1104 -0.0078
 4246W        W20430  15.727  10.088  11.776 -0.0560  0.0438 -0.1252
 4247W        W20431   3.380   1.709   3.352 -0.1470  0.0187  0.1367
 4248W        W20432   5.783   0.056  15.209 -0.2255 -0.0207 -0.1012
 4249W        W20433   7.977   7.674   3.083 -0.0877  0.0001  0.3078
 4250W        W20434  17.739  10.890   0.381 -0.0654  0.0150 -0.1815
 4251W        W20435   0.319   7.863   2.759 -0.2361 -0.0325  0.2534
 4252W        W20436   0.274  13.790   6.173 -0.4799 -0.2081 -0.3364
 4253W        W20437  13.646   4.302   1.023 -0.3470  0.1579  0.3498
 4254W        W20438   7.562  12.559  12.593 -0.0578 -0.0656  0.4304
 4255W        W20439   6.135   3.955  16.821  0.1573 -0.0280  0.2501
 4256W        W20440   4.554   8.888  15.351  0.4120  0.1575  0.3068
 4257W        W20441  15.366  16.859   0.738 -0.1774 -0.0978  0.0629
 4258W        W20442   5.929   6.787   4.811 -0.2478  0.0226 -0.0324
 4259W        W20443  11.378   6.573  14.969  0.0635 -0.1930 -0.0626
 4260W        W20444   0.061  14.558  13.440 -0.2055 -0.1482 -0.3071
 4261W        W20445   6.245   3.183   1.081  0.0419 -0.0622 -0.1360
 4262W        W20446   0.239   9.541   3.326 -0.1518  0.2020 -0.2368
 4263W        W20447   3.234  13.000   1.138 -0.0640 -0.2098  0.3299
 4264W        W20448   4.644   7.710  11.594  0.1093 -0.0244 -0.0507
 4265W        W20449  10.624   6.210  11.742  0.0284  0.0589  0.1024
 4266W        W20450   2.196   5.853   2.678 -0.1420 -0.1814 -0.1284
 4267W        W20451   5.213   8.899  13.207 -0.2267 -0.2026 -0.0076
 4268W        W20452   0.332  17.635   4.062  0.2487 -0.0863  0.0216
 4269W        W20453   2.107   4.760  15.421 -0.0359 -0.4089  0.2775
 4270W        W20454   9.668  17.752   2.602  0.0022 -0.0229  0.2715
 4271W        W20455   0.383   0.194   0.426 -0.3594 -0.0194  0.1096
 4272W        W20456   9.946   6.598  15.779 -0.0326 -0.1199  0.1861
 4273W        W20457  10.171   1.553   4.736  0.2279 -0.0865  0.1143
 4274W        W20458  15.496  16.128  12.584  0.1607 -0.1844  0.1783
 4275W        W20459   8.620  10.201  11.139 -0.4345 -0.1240 -0.0051
 4276W        W20460  16.084   3.622   4.137 -0.3139  0.2430 -0.3136
 4277W        W20461   8.730  17.535   4.219  0.0581 -0.4174 -0.0223
 4278W        W20462   4.895  12.149   2.373 -0.1132 -0.0479 -0.0428
 4279W        W20463   8.711  13.668  14.427  0.1953  0.1614 -0.2796
 4280W        W20464  17.299   1.263   5.628  0.2147  0.1397  0.1724
 4281W        W20465   4.486   9.119  14.192 -0.0750 -0.0171  0.1680
 4282W        W20466  11.650  15.128   2.038 -0.3797  0.0776 -0.0092
 4283W        W20467  14.512   2.857   3.367 -0.0225  0.0469 -0.2883
 4284W        W20468  11.987   4.654  11.661  0.1882 -0.0672 -0.1511
 4285W        W20469   5.257  14.826  12.692 -0.2827 -0.1188  0.0529
 4286W        W20470   7.845   3.720  15.312  0.0040 -0.0846 -0.0890
 4287W        W20471   8.302   0.095   2.995  0.0403 -0.2243 -0.2590
 4288W        W20472   8.684   6.851   2.088 -0.3068  0.0008 -0.1991
 4289W        W20473   2.001  12.557  15.958 -0.1135 -0.2205 -0.0802
 4290W        W20474  17.798   6.454   4.660 -0.2151 -0.0459 -0.2461
 4291W        W20475  16.720   4.227   2.929 -0.0338  0.0024 -0.4811
 4292W        W20476   2.461   9.922   3.947 -0.2259  0.1071 -0.0025
 4293W        W20477   2.053  13.590   4.846  0.1402 -0.1790  0.1811
 4294W        W20478  12.497   3.940  12.776  0.1988  0.1211  0.1575
 4295W        W20479  16.940   6.309  15.574  0.1449 -0.2816 -0.4964
 4296W        W20480  15.004   0.430  13.218 -0.2552 -0.1421 -0.1781
 4297W        W20481   6.508   8.863  11.511 -0.1525 -0.0761 -0.2051
 4298W        W20482   1.008   4.731   4.273  0.1944  0.1332  0.0548
 4299W        W20483  12.592  16.890  16.039 -0.0255 -0.1412 -0.0813
 4300W        W20484   1.363   2.787   2.163 -0.0676  0.0819 -0.1689
 4301W        W20485  15.798  17.664  16.599  0.2079  0.2835  0.0960
 4302W        W20486  10.455  14.818   5.281  0.1448 -0.1826 -0.1425
 4303W        W20487  17.790  10.843  14.615 -0.1812 -0.0606  0.1531
 4304W        W20488   9.377  13.507   1.272 -0.2194 -0.0234  0.0115
 4305W        W20489  13.585   0.723   0.959 -0.1845 -0.2216 -0.0090
 4306W        W20490   8.107   0.131   0.183 -0.0645  0.1992 -0.2119
 4307W        W20491   2.435   3.805   3.532  0.1400  0.1726  0.1968
 4308W        W20492   0.360  13.331   1.004  0.0294 -0.0491  0.1020
 4309W        W20493   5.321  17.370   5.206  0.1057  0.1144  0.0920
 4310W        W20494   7.848   6.065  12.342  0.2306  0.1357  0.2630
 4311W        W20495   2.971   6.186   4.656  0.1594  0.1219 -0.1556
 4312W        W20496  16.692   9.036   4.093  0.1611 -0.1086  0.1313
 4313W        W20497  14.107   8.933   4.827 -0.1416 -0.1800  0.1796
 4314W        W20498   5.742  15.367  16.256  0.1281 -0.0388  0.3849
 4315W        W20499  12.167   5.804   1.055 -0.1166 -0.0981 -0.0209
 4316W        W20500   5.917   6.392   3.491  0.2856 -0.0483  0.0257
 4317W        W20501  14.921  15.791   4.853 -0.2188 -0.0580  0.2002
 4318W        W20502  15.710   9.456   5.190  0.0432  0.5478  0.2070
 4319W        W20503   8.012   2.455   0.855  0.1710  0.1494  0.0874
 4320W        W20504  10.116  14.867   0.791  0.0664 -0.0753  0.0290
 4321W        W20505  14.209  16.454   6.525 -0.0683  0.2045  0.0139
 4322W        W20506   5.256   7.778  13.212  0.2331  0.1269 -0.1095
 4323W        W20507   4.649   3.524  14.220 -0.1139  0.1027 -0.2303
 4324W        W20508  14.979   4.376   0.911  0.1931  0.2189 -0.1709
 4325W        W20509   9.946   7.146   3.378  0.1171  0.0684  0.0542
 4326W        W20510   8.677   7.811  16.592  0.1333  0.1215  0.0193
 4327W        W20511   2.601  14.467  14.054  0.0897  0.1098 -0.1434
 4328W        W20512  11.103  15.123  12.174 -0.1715  0.0210  0.0914
 4329W        W20513  12.295  14.565  13.440 -0.1721  0.1114 -0.0645
 4330W        W20514   8.733   0.823  12.497  0.0190 -0.0731  0.0692
 4331W        W20515  16.997   3.259  16.775 -0.1844 -0.2438 -0.1278
 4332W        W20516   3.996   1.852  13.960 -0.2721  0.0166  0.0903
 4333W        W20517  11.132  14.562   2.788 -0.0762  0.1756 -0.0282
 4334W        W20518  15.882  10.273   4.501 -0.0670 -0.0683 -0.0860
 4335W        W20519   7.542  10.185   5.722 -0.1793  0.0560 -0.2406
 4336W        W20520  13.639  17.311  11.835  0.2313  0.0117 -0.2115
 4337W        W20521  11.933  12.382  15.971 -0.0605 -0.0739 -0.1605
 4338W        W20522  12.834  13.144   1.121 -0.2013  0.0452 -0.3850
 4339W        W20523   7.225   9.685   1.650  0.0669  0.0494 -0.3144
 4340W        W20524   6.321  15.434  13.323 -0.3211 -0.2451  0.0081
 4341W        W20525   3.913  14.500  12.264  0.1398  0.0663 -0.3946
 4342W        W20526  11.123  13.582   2.952 -0.0484 -0.1837  0.0353
 4343W        W20527   4.549   9.765  13.910  0.1059 -0.0514 -0.1684
 4344W        W20528   3.701   8.226   5.811  0.2662  0.0378 -0.2352
 4345W        W20529   9.796  17.683  16.436 -0.1270 -0.3334 -0.1145
 4346W        W20530   4.706  12.761   0.906  0.1961  0.0661 -0.1229
 4347W        W20531   8.053   4.364   0.772  0.3302 -0.3370  0.0724
 4348W        W20532   7.927  13.185  11.716  0.0363 -0.0309  0.1003
 4349W        W20533   2.204  12.702  11.929 -0.1902  0.1483 -0.0461
 4350W        W20534   8.688   4.402  15.718  0.1167 -0.1640  0.1684
 4351W        W20535  14.571  16.812  12.701  0.1563  0.1608  0.0474
 4352W        W20536  11.992  10.807  14.208 -0.0455  0.2080  0.0545
 4353W        W20537  12.342  14.843   5.151 -0.1442 -0.2579  0.1574
 4354W        W20538  16.555  11.854  14.892 -0.3277  0.3010 -0.2753
 4355W        W20539   2.532   7.937   3.868 -0.0510  0.3336  0.0339
 4356W        W20540  17.604  15.524  12.677 -0.1924  0.3681  0.0938
 4357W        W20541  13.071   8.124  15.656 -0.0444 -0.2791 -0.3046
 4358W        W20542   9.815  13.033  14.884  0.0089  0.0575 -0.1619
 4359W        W20543   7.548   5.899  13.052  0.1389  0.0526  0.0650
 4360W        W20544  10.664   1.743   1.013 -0.2334  0.0494  0.3027
 4361W        W20545   4.366  15.756   4.621 -0.1805  0.4118 -0.0447
 4362W        W20546   2.471  15.755  15.740  0.1749 -0.1443  0.1351
 4363W        W20547  17.830   8.817   3.940 -0.0733  0.0069 -0.1222
 4364W        W20548  13.773  16.665  12.081 -0.0750 -0.2349 -0.1954
 4365W        W20549   8.893   7.401  12.872 -0.1133 -0.2799 -0.0117
 4366W        W20550   5.810  10.836   2.518 -0.3002 -0.1077  0.0049
 4367W        W20551  15.874   2.618  16.696 -0.0794  0.2251 -0.1940
 4368W        W20552   4.794   2.734  16.042  0.1910 -0.1964 -0.2047
 4369W        W20553   7.708   6.212  13.853 -0.4687  0.1474  0.0934
 4370W        W20554   4.682   5.160   3.099  0.0048 -0.0163 -0.0966
 4371W        W20555  13.309  14.778  13.488 -0.2088 -0.0506  0.0208
 4372W        W20556  14.991   4.477   3.329  0.2397 -0.0676 -0.0344
 4373W        W20557  10.308   6.631   0.907  0.1402  0.1004  0.1944
 4374W        W20558  16.152   8.139   2.106 -0.4970 -0.3747 -0.2486
 4375W        W20559   4.380  11.173  12.794  0.2378 -0.0614 -0.0750
 4376W        W20560  11.062   6.701  13.349 -0.1064  0.0035 -0.2705
 4377W        W20561   5.954   6.545  11.182 -0.1858 -0.0164 -0.0809
 4378W        W20562  17.125   4.162  13.116  0.3373  0.1597  0.0080
 4379W        W20563  11.413  14.261  15.518  0.1334 -0.0778 -0.2559
 4380W        W20564   9.105  10.046  16.314 -0.1183 -0.1799  0.0491
 4381W        W20565  10.988   4.135  11.584  0.0825  0.1166 -0.3364
 4382W        W20566   9.484  16.958  15.568 -0.2812  0.2214 -0.1624
 4383W        W20567  17.592   7.279   5.497 -0.3058  0.2952  0.2373
 4384W        W20568  12.927   6.507  16.385  0.2036  0.1186 -0.1003
 4385W        W20569   7.108   8.962  15.414 -0.0177 -0.0343 -0.1511
 4386W        W20570   2.337   1.135  16.498 -0.0051  0.1662 -0.2689
 4387W        W20571  12.516   5.279  15.400 -0.0676  0.0705 -0.0179
 4388W        W20572  16.264   0.696   2.822  0.0461  0.0298 -0.0769
 4389W        W20573   1.308   4.824   0.803 -0.1687 -0.1632  0.4354
 4390W        W20574  11.275  15.671   0.953 -0.0351  0.2360  0.3670
 4391W        W20575   6.808  17.161  15.373 -0.1852 -0.0842  0.2187
 4392W        W20576  11.839  12.600  15.097 -0.0134  0.3741  0.0122
 4393W        W20577   4.684  16.521  16.130  0.2824  0.2041 -0.2999
 4394W        W20578  15.663   5.963  12.169  0.1464  0.1843 -0.2388
 4395W        W20579   9.901  15.811   2.686  0.2374  0.1268 -0.1272
 4396W        W20580  12.399  11.699   2.471  0.2438 -0.1305 -0.1110
 4397W        W20581   0.780   7.647   4.910  0.1125  0.3559  0.3294
 4398W        W20582  12.586   6.196   3.468 -0.0657  0.0443  0.3109
 4399W        W20583   5.882   8.598  13.830  0.1002  0.4006  0.0330
 4400W        W20584   8.607   8.232  12.807 -0.1547 -0.2408  0.0423
 4401W        W20585   1.780  17.757  16.386  0.2948 -0.1118 -0.1296
 4402W        W20586  15.650  10.499   6.518 -0.0876 -0.0150 -0.0451
 4403W        W20587  14.259   8.919  12.882  0.2004 -0.0875 -0.0470
 4404W        W20588   6.312   2.535   5.580  0.0215  0.3364  0.0461
 4405W        W20589   1.174   5.295  15.878  0.0250  0.0426 -0.1868
 4406W        W20590  10.223  13.971   4.350 -0.2089 -0.0389  0.0522
 4407W        W20591   4.355  14.072  16.768 -0.0708 -0.0673  0.1848
 4408W        W20592  16.508   7.076  15.773 -0.3976 -0.1662 -0.0394
 4409W        W20593   8.874   3.852  13.595 -0.0486 -0.0564  0.2543
 4410W        W20594  12.290   9.759   0.289  0.2017  0.0847  0.1381
 4411W        W20595   2.351  15.977   2.379  0.3058  0.2759 -0.0777
 4412W        W20596  11.783   5.395  16.475 -0.1197 -0.0725  0.2310
 4413W        W20597  12.676  15.572  12.816  0.1722  0.1463 -0.0854
 4414W        W20598  11.232  11.239   1.089 -0.2188  0.1359  0.2958
 4415W        W20599   4.669   5.610   0.269  0.0085  0.1378  0.3675
 4416W        W20600  15.880  17.744  11.668 -0.2370  0.2161 -0.0228
 4417W        W20601  12.075  14.393   5.128 -0.0107 -0.0452  0.1617
 4418W        W20602  12.045   6.479   2.852 -0.0182  0.1530  0.2913
 4419W        W20603  10.714   9.690  15.245 -0.2038 -0.0351  0.1681
 4420W        W20604   4.547  14.453  10.852 -0.0579  0.0152  0.2293
 4421W        W20605   6.264   5.265   5.175  0.0652  0.0503 -0.0120
 4422W        W20606   7.725   6.123   1.855 -0.0062 -0.0104  0.0106
 4423W        W20607   0.091   3.153  14.825 -0.0154 -0.0832 -0.0671
 4424W        W20608  12.144   0.197   4.471  0.1656 -0.1419 -0.0352
 4425W        W20609  14.744   2.360   1.564  0.0246  0.0531  0.1615
 4426W        W20610   7.223   6.176  15.700  0.0505  0.0167  0.1628
 4427W        W20611  11.884  16.866  12.945 -0.2387  0.0080 -0.0793
 4428W        W20612   6.767  13.093   0.710  0.2319  0.0407 -0.1626
 4429W        W20613  11.196   0.212  13.865 -0.0846 -0.1037 -0.1070
 4430W        W20614  13.032   2.750  16.181  0.2544 -0.1800  0.0738
 4431W        W20615  17.691   0.624  16.019 -0.2772 -0.0264  0.2366
 4432W        W20616   9.908  17.798   0.506  0.1465 -0.1679 -0.3741
 4433W        W20617  15.945  14.188   1.486  0.0541 -0.3345 -0.0502
 4434W        W20618  14.733   1.540   1.305 -0.1068  0.0541  0.1406
 4435W        W20619   5.640   2.549  12.158  0.2118  0.0610  0.0938
 4436W        W20620  13.965  13.584   0.442  0.0070 -0.1841  0.0593
 4437W        W20621  16.649  10.946   2.529  0.3063 -0.1132  0.2806
 4438W        W20622  12.793   6.302   5.257 -0.0658  0.0439 -0.1942
 4439W        W20623   5.947  12.426   1.479 -0.3006  0.0582 -0.0321
 4440W        W20624   1.468   6.485   5.203  0.1877  0.0968  0.1022
 4441W        W20625  15.445   8.683   5.441  0.0364 -0.1649  0.0899
 4442W        W20626   7.670  15.496   1.735  0.4122  0.0571  0.0536
 4443W        W20627  12.002   5.202  11.518 -0.0021 -0.3272  0.0444
 4444W        W20628   7.054   1.071   3.088  0.3019  0.2016 -0.3213
 4445W        W20629   8.264   5.699   2.431 -0.2193 -0.1048  0.2459
 4446W        W20630   2.324  10.568   1.051 -0.2861  0.0575  0.1212
 4447W        W20631  11.945   8.183  13.354  0.0061 -0.0966  0.0809
 4448W        W20632  14.669  15.184   3.344  0.1963  0.3877 -0.0749
 4449W        W20633  15.943  10.940  14.852  0.0035 -0.3460 -0.2511
 4450W        W20634  13.983  15.895   2.353  0.2877 -0.1260 -0.2710
 4451W        W20635  16.735  16.314  12.435 -0.1193  0.1811 -0.0408
 4452W        W20636   3.155  12.831  11.741 -0.0325  0.0143  0.0232
 4453W        W20637   3.332  10.194   2.816  0.1258  0.2325  0.0591
 4454W        W20638  15.081  12.689   4.374  0.2383 -0.0779 -0.1806
 4455W        W20639  16.065   9.057  15.503  0.1161  0.4133  0.1705
 4456W        W20640  16.489  13.921   5.215 -0.0564 -0.2760  0.1745
 4457W        W20641   6.924  15.285  11.821 -0.0224  0.2408  0.1875
 4458W        W20642  16.788  14.895   2.166  0.2266  0.1752 -0.0526
 4459W        W20643   8.573   0.191   4.338  0.1037 -0.1630  0.1211
 4460W        W20644   5.621  11.181  15.895  0.0624 -0.0152  0.0530
 4461W        W20645   6.791   3.517   4.209  0.1266 -0.0245 -0.0244
 4462W        W20646   1.190  16.940   1.423 -0.1876  0.2320 -0.0553
 4463W        W20647  13.100   3.210  14.737  0.0522 -0.0801  0.0253
 4464W        W20648  14.277  13.015   5.167  0.2811  0.1450  0.2200
 4465W        W20649  12.842   1.358   4.829 -0.1947  0.1591  0.1476
 4466W        W20650  10.972   4.235   4.046  0.0250 -0.0453 -0.2516
 4467W        W20651  17.537   5.000  12.711  0.1223  0.1536 -0.2734
 4468W        W20652   1.824   8.660   2.143 -0.2774 -0.1004 -0.0894
 4469W        W20653   0.815  10.153   4.574  0.1759  0.3001 -0.1111
 4470W        W20654   2.487   8.202   6.123 -0.0547  0.0170  0.0766
 4471W        W20655   6.142   6.982   2.122  0.1644 -0.0362  0.1246
 4472W        W20656   5.426   4.739   0.372 -0.3455  0.0818  0.1085
 4473W        W20657  17.365  12.867   6.308  0.0412  0.1769  0.1428
 4474W        W20658  12.086   6.941   1.646 -0.3598 -0.1384  0.1748
 4475W        W20659   4.286   3.941   0.035  0.0161 -0.1034  0.1664
 4476W        W20660   7.014  12.852  13.301  0.1193 -0.0211 -0.0185
 4477W        W20661   9.558   6.823  14.821  0.0136 -0.0151 -0.0456
 4478W        W20662   6.843   1.197  13.446  0.1117 -0.1977 -0.0180
 4479W        W20663   2.413   6.712   3.753 -0.0309 -0.0153 -0.1608
 4480W        W20664   4.661   5.389  16.770  0.2741  0.1801  0.0126
 4481W        W20665   6.346   9.830  11.895 -0.1811  0.0332 -0.1825
 4482W        W20666   9.938  10.120   3.023 -0.2058 -0.0937 -0.1458
 4483W        W20667  12.877   3.092   3.594  0.0775 -0.2054 -0.0038
 4484W        W20668   3.375  13.399  12.343  0.1611 -0.1248  0.3098
 4485W        W20669  14.552   8.729   4.924  0.0761 -0.0066 -0.0735
 4486W        W20670   9.570   3.433  12.770  0.1109 -0.0070  0.0253
 4487W        W20671  13.587  16.179  15.512 -0.1564  0.1175 -0.2445
 4488W        W20672  12.906   0.084   5.923 -0.0967 -0.1287  0.1710
 4489W        W20673  15.709  11.342   4.118  0.0894  0.1194  0.0896
 4490W        W20674   8.322   2.252   1.952 -0.0805 -0.1997  0.0907
 4491W        W20675   6.239   3.802   2.541  0.1502 -0.3309 -0.0863
 4492W        W20676   7.961   2.327  14.533 -0.4149  0.1825 -0.1396
 4493W        W20677   1.109  14.702   2.032 -0.0636  0.1018  0.3760
 4494W        W20678  11.128  15.990   4.162  0.1252 -0.0840  0.2565
 4495W        W20679  11.709  13.488   5.918 -0.0555  0.3261  0.0665
 4496W        W20680  12.649  13.638  12.124 -0.0259  0.3231  0.1218
 4497W        W20681   3.117   7.596   6.581  0.1285 -0.0132  0.0676
 4498W        W20682   3.161  17.382   5.249 -0.3885 -0.1385  0.0806
 4499W        W20683   1.132  10.016   3.699  0.0949 -0.2084 -0.1088
 4500W        W20684   5.908   3.581   5.546 -0.0888  0.0247  0.1514
 4501W        W20685  12.895   4.095  14.736 -0.1508  0.2230  0.0399
 4502W        W20686   7.479  12.170  16.422  0.0419 -0.1143 -0.1474
 4503W        W20687   3.641  14.685   0.883  0.1231  0.0960 -0.0595
 4504W        W20688   0.547   5.073   4.494 -0.0098  0.0904  0.0263
 4505W        W20689   0.399  12.758  11.755  0.1594  0.0704  0.0326
 4506W        W20690   9.345  13.686  14.415 -0.1593 -0.0230 -0.1194
 4507W        W20691   3.479   7.557   3.031 -0.2358  0.1868 -0.0040
 4508W        W20692  11.993  14.327   4.624 -0.1959  0.0326 -0.1689
 4509W        W20693  15.763   5.455   1.671  0.2964 -0.1012  0.3011
 4510W        W20694   7.191   4.116  13.547 -0.1864 -0.0841  0.1779
 4511W        W20695  17.628   9.045  13.687  0.1398 -0.1471 -0.0224
 4512W        W20696  13.795   8.117  13.134  0.1874 -0.1503  0.0552
 4513W        W20697  10.275   5.202  16.582  0.0763  0.1509  0.2063
 4514W        W20698  11.739  10.083   3.470  0.0598 -0.1275 -0.1596
 4515W        W20699  14.039   4.257  12.969  0.0498 -0.0832 -0.2311
 4516W        W20700  17.224  11.565   1.697  0.4276  0.2603 -0.0749
 4517W        W20701   9.127   0.999  12.087 -0.0616 -0.1684 -0.1972
 4518W        W20702  13.233   9.355   0.905  0.1823  0.0918  0.1210
 4519W        W20703   6.522   0.974   0.336 -0.1828 -0.1369  0.2099
 4520W        W20704   0.151   4.391  13.992  0.2146 -0.2948  0.0567
 4521W        W20705  12.782   7.658   1.775 -0.3419  0.1094  0.0648
 4522W        W20706   6.380   6.427  16.400 -0.1473 -0.1007 -0.0460
 4523W        W20707  12.149   5.828  14.270  0.0398  0.0707  0.2163
 4524W        W20708   0.159   9.025  16.246  0.0896 -0.2174 -0.0706
 4525W        W20709  16.765   0.387   4.266 -0.0493  0.0015 -0.4061
 4526W        W20710   0.731  16.913  12.601  0.1817 -0.1585  0.2196
 4527W        W20711  15.898  16.342   4.384 -0.0823 -0.1894 -0.0494
 4528W        W20712  16.025  17.793   4.763  0.3327 -0.2749  0.0917
 4529W        W20713  13.874  17.261  10.767 -0.0210 -0.1022 -0.1794
 4530W        W20714   8.905  11.385  12.144  0.1615 -0.0623 -0.1619
 4531W        W20715   4.861   9.716   1.822 -0.1253  0.1927 -0.2465
 4532W        W20716  16.481  15.464   0.313 -0.0949  0.1393 -0.1506
 4533W        W20717   4.675   1.710  12.826 -0.0652  0.1030 -0.0833
 4534W        W20718   8.706  10.653   5.510  0.1821  0.3076  0.3284
 4535W        W20719   2.329   1.594   1.246 -0.1289 -0.0318  0.4069
 4536W        W20720   8.687  11.945  13.193  0.1192 -0.0140 -0.1593
 4537W        W20721   2.628   3.367  12.786 -0.0257 -0.0655  0.0182
 4538W        W20722   3.435  16.511   1.656  0.0882  0.1832  0.1561
 4539W        W20723   7.959  11.907   5.119 -0.0938 -0.1234  0.0914
 4540W        W20724  15.967   2.842   1.061 -0.1658 -0.3989  0.1253
 4541W        W20725   0.181  13.044  16.442  0.1415  0.0375  0.3487
 4542W        W20726   7.087   6.555  13.889  0.1440 -0.1735  0.0804
 4543W        W20727  15.070   9.421   5.287  0.2850 -0.0784  0.0918
 4544W        W20728   6.991   2.772  13.638  0.3098 -0.2098  0.1199
 4545W        W20729   6.808  11.839   2.461 -0.0033 -0.3823  0.0874
 4546W        W20730   0.203   1.156  12.174 -0.0742 -0.2338 -0.1510
 4547W        W20731   3.502  15.696  14.722 -0.0446 -0.1323 -0.0526
 4548W        W20732  10.344  17.292   1.728  0.1225 -0.0689 -0.0953
 4549W        W20733  11.288   4.262   4.552 -0.1207 -0.0867 -0.0790
 4550W        W20734   7.708   3.332  14.013  0.2497 -0.1495 -0.0635
 4551W        W20735   7.157  15.289  13.200  0.1956 -0.0018  0.2882
 4552W        W20736  10.637   1.769   3.042 -0.1353  0.1838  0.2243
 4553W        W20737  13.366   2.269   1.999 -0.1379  0.1579  0.1568
 4554W        W20738  11.715  13.942  13.601  0.3522 -0.2239 -0.0639
 4555W        W20739  13.486   6.207  14.574  0.0419  0.1804  0.0750
 4556W        W20740  14.043  12.383   1.270 -0.4303  0.0867 -0.0205
 4557W        W20741   2.528   7.654  14.354 -0.1568  0.0073 -0.0110
 4558W        W20742  12.247  12.835  13.946  0.0656  0.2804  0.2088
 4559W        W20743   1.775   5.038   1.051 -0.2788 -0.1538 -0.1218
 4560W        W20744  10.692   5.250  11.905 -0.1649 -0.0709 -0.2442
 4561W        W20745  13.146   5.306  11.864 -0.1435  0.0898 -0.0363
 4562W        W20746   6.991   2.340   1.909 -0.0842 -0.1977 -0.1238
 4563W        W20747   3.323   0.002  13.569 -0.1924 -0.4513  0.3996
 4564W        W20748   1.504  16.399   1.492  0.2362 -0.1352 -0.0785
 4565W        W20749   3.807   1.332   3.294 -0.2863 -0.1437 -0.2955
 4566W        W20750  14.236   3.632  12.974 -0.1970  0.1256  0.1835
 4567W        W20751  10.207  13.606   0.226  0.1102 -0.4173 -0.2473
 4568W        W20752  12.732   0.074   2.808  0.2224 -0.1350 -0.0150
 4569W        W20753   6.036   5.231  13.487  0.0245 -0.2139 -0.1206
 4570W        W20754   2.145  12.951  15.187  0.2338  0.0882 -0.3412
 4571W        W20755  10.662  16.319  12.749 -0.0609 -0.4894 -0.3276
 4572W        W20756  11.014  15.921  14.157 -0.1562  0.1965  0.0378
 4573W        W20757  16.980   9.921  13.757  0.1491  0.1056 -0.0201
 4574W        W20758   2.141   7.640   3.552 -0.1066 -0.0395  0.1219
 4575W        W20759   7.823   9.173  12.815 -0.2226 -0.1406  0.0260
 4576W        W20760   1.472   1.769  14.076  0.0299  0.0064  0.0456
 4577W        W20761   3.386  11.359   3.975  0.1804  0.3289  0.4472
 4578W        W20762  13.669  15.262   0.870  0.0549  0.0245 -0.3403
 4579W        W20763   9.472  14.974  12.251  0.0031 -0.0755  0.2325
 4580W        W20764   0.375   6.233   0.410  0.4286 -0.1550 -0.1081
 4581W        W20765   8.035   1.663   1.197 -0.3409 -0.0329 -0.0899
 4582W        W20766   6.136  11.110  16.066  0.1671  0.3796 -0.1710
 4583W        W20767  15.863  15.778  15.621 -0.1419 -0.0361 -0.0836
 4584W        W20768   3.672  10.617  13.477 -0.2167 -0.1309  0.1446
 4585W        W20769   1.664   3.134  15.221 -0.4475 -0.1421  0.1796
 4586W        W20770  16.523  15.525   2.643  0.1346 -0.0758  0.1195
 4587W        W20771   1.344  16.850  13.328  0.2842 -0.0060 -0.0150
 4588W        W20772   8.786  16.978  11.380  0.0516  0.0107  0.2093
 4589W        W20773   4.138   5.788   6.244 -0.0367  0.1184 -0.1724
 4590W        W20774   8.170   3.929   4.584  0.1104 -0.2466  0.1820
 4591W        W20775   6.865   5.364  11.548 -0.0783 -0.2320  0.0130
 4592W        W20776   7.524   5.552   6.257  0.1682  0.0289  0.2085
 4593W        W20777  11.306   8.969  11.740  0.1333 -0.0005  0.2684
 4594W        W20778  13.266   3.983   5.142 -0.0773 -0.1794 -0.0157
 4595W        W20779  13.650   5.177   0.912 -0.1568  0.0056  0.2524
 4596W        W20780   3.582  15.257   4.919  0.3483 -0.1714  0.1566
 4597W        W20781  14.395   9.826   2.706  0.1977  0.1716  0.0803
 4598W        W20782  12.110   8.512   4.575  0.4063 -0.1854 -0.0448
 4599W        W20783  11.153   2.281   2.752  0.3149 -0.2017 -0.1122
 4600W        W20784   8.069   9.265   5.552 -0.1787  0.5927  0.0660
 4601W        W20785   0.068   0.656   5.614 -0.0600  0.1093 -0.1358
 4602W        W20786   4.944   0.586  16.631  0.0165  0.1100 -0.0162
 4603W        W20787   9.456   7.426   3.204  0.1075  0.0557 -0.0538
 4604W        W20788  17.460  11.206  13.061  0.1318  0.2752  0.0298
 4605W        W20789  10.427   0.953   2.620 -0.0132  0.1670  0.2210
 4606W        W20790   2.926   2.228  11.370 -0.0705  0.0032 -0.1743
 4607W        W20791   1.980  11.017  14.169 -0.0046 -0.1564 -0.0646
 4608W        W20792  14.282  10.587   4.814  0.0382 -0.0264  0.0365
 4609W        W20793   2.748  11.838   4.736  0.3330  0.2243 -0.1838
 4610W        W20794  10.421   6.333  14.934  0.0915 -0.1816  0.1000
 4611W        W20795   3.202   9.981   5.088 -0.0396  0.0043  0.0134
 4612W        W20796   2.088  12.225  12.216  0.1657 -0.0854 -0.2053
 4613W        W20797   8.874  17.738   2.341  0.2192  0.1775 -0.3334
 4614W        W20798   2.841  10.827   1.058  0.1319 -0.1588 -0.2316
 4615W        W20799  16.620   7.165  16.641 -0.1611  0.2527 -0.1357
 4616W        W20800   2.123   9.903  15.411  0.0743 -0.0887 -0.0538
 4617W        W20801  16.597  11.740  12.852  0.1400 -0.3531 -0.0855
 4618W        W20802   4.260  17.580  16.124 -0.2118  0.2278  0.0653
 4619W        W20803  12.684   3.100   0.858 -0.2208  0.4119 -0.3096
 4620W        W20804  14.985  12.671  13.639 -0.0751  0.1642 -0.4914
 4621W        W20805   6.747   3.032   2.828  0.2549 -0.3289 -0.0183
 4622W        W20806   7.661   9.469   1.504  0.2642  0.2326 -0.1551
 4623W        W20807  12.865  17.634   0.242  0.1642 -0.1799 -0.0145
 4624W        W20808   7.345   7.024   0.766  0.0614 -0.1215  0.1976
 4625W        W20809   3.702  15.852   2.624 -0.0001  0.0337  0.1598
 4626W        W20810  17.428   0.103   4.039 -0.3148 -0.2446 -0.2562
 4627W        W20811   4.351  13.043  14.428 -0.2868  0.0942 -0.1029
 4628W        W20812   6.095   2.501   4.335 -0.1919 -0.3744 -0.0401
 4629W        W20813   7.860  13.504  16.176 -0.0316  0.0407 -0.0423
 4630W        W20814   6.076   2.324   3.870  0.1834  0.0515  0.0445
 4631W        W20815   4.269  16.187  13.859  0.0942 -0.1299 -0.1092
 4632W        W20816   0.495  17.150   1.586 -0.1354 -0.0749  0.0360
 4633W        W20817  11.492  14.465   6.039 -0.0261  0.0065  0.1790
 4634W        W20818   3.152   7.807  15.476  0.3738  0.0995 -0.0505
 4635W        W20819   6.459   9.478  16.496 -0.1042  0.0946  0.0841
 4636W        W20820  11.242  13.849   4.687 -0.1621 -0.0782  0.0393
 4637W        W20821   6.567  16.463   5.108  0.0471  0.0764  0.1460
 4638W        W20822  15.388  11.109   5.411  0.0706 -0.0285 -0.1754
 4639W        W20823  14.945   2.082  11.768  0.1105  0.1847 -0.0575
 4640W        W20824   0.066   7.307  12.672 -0.1772 -0.1769 -0.0323
 4641W        W20825  16.908   2.809   3.362 -0.4151  0.3798  0.0637
 4642W        W20826  16.452  15.111  15.378  0.1499  0.0513  0.0522
 4643W        W20827  13.571   4.521   3.721 -0.0742  0.0301 -0.0610
 4644W        W20828   3.091   1.291  14.583 -0.0514  0.0014 -0.5601
 4645W        W20829   7.997   3.212  15.455 -0.1605 -0.0006 -0.2571
 4646W        W20830  13.963   3.093  12.790 -0.3183  0.0428  0.5861
 4647W        W20831  10.281  16.935   0.738 -0.0181  0.0586 -0.0940
 4648W        W20832   4.360   6.092  11.152  0.0610 -0.0396  0.1522
 4649W        W20833  14.027  13.382  13.845  0.2730 -0.0828 -0.1831
 4650W        W20834   1.092   5.964  14.026 -0.4054 -0.1815  0.0795
 4651W        W20835   4.905  15.889   4.185  0.2193  0.1096  0.1830
 4652W        W20836  14.586  15.076   2.147 -0.2688 -0.0325  0.0190
 4653W        W20837   9.159   0.854   4.498  0.2386 -0.3397 -0.0145
 4654W        W20838   3.887   5.284  15.441 -0.3755  0.1719  0.2980
 4655W        W20839  15.129   1.537   3.759 -0.0231 -0.1559  0.1821
 4656W        W20840   0.195  15.743   0.560 -0.1114  0.1037 -0.2038
 4657W        W20841   9.828   9.860  11.393 -0.2539  0.1376  0.2101
 4658W        W20842  11.110   1.075   5.265  0.0393 -0.2633 -0.0430
 4659W        W20843   8.555  17.046   1.812 -0.2176 -0.2020 -0.1609
 4660W        W20844  14.227   9.609  15.656 -0.2197  0.2840 -0.0114
 4661W        W20845   9.388  16.095   4.367  0.0817 -0.0694 -0.1105
 4662W        W20846  15.781  12.115   1.331  0.1044 -0.2655 -0.3023
 4663W        W20847  12.780  15.562   2.169 -0.2023  0.0271 -0.0683
 4664W        W20848   9.693   6.029   0.218  0.1281 -0.1938 -0.3562
 4665W        W20849   5.838  15.395   0.657  0.2566  0.2625  0.1973
 4666W        W20850   7.336   0.669  12.940  0.1550 -0.0035  0.2243
 4667W        W20851  10.749  13.032   1.947 -0.2017 -0.0726 -0.2712
 4668W        W20852   1.522  10.742   2.343  0.1701  0.0862  0.0057
 4669W        W20853  13.224   2.366   2.548  0.0540  0.2307  0.2495
 4670W        W20854   4.504  11.975   0.470 -0.1224  0.3212  0.0243
 4671W        W20855  13.982   9.370  12.925 -0.1125  0.2608 -0.0748
 4672W        W20856   3.906   4.941   4.509 -0.0302  0.1100  0.1896
 4673W        W20857   5.049   6.736  14.734  0.1019 -0.2411 -0.3528
 4674W        W20858  17.630   0.321  13.741  0.1022  0.2188 -0.1321
 4675W        W20859  14.796   1.178   3.706 -0.2179 -0.0146 -0.2947
 4676W        W20860  12.023  13.719   3.260 -0.0586  0.3034 -0.1540
 4677W        W20861   8.377   8.997  13.011 -0.1353  0.5150  0.3041
 4678W        W20862   3.182   2.684  11.854 -0.0404 -0.0332  0.1296
 4679W        W20863   0.971  13.618  13.637  0.0314  0.0250  0.1547
 4680W        W20864   4.052   2.795  12.317  0.0985  0.0738  0.0725
 4681W        W20865  13.243  10.045  13.724 -0.5069  0.1095 -0.0046
 4682W        W20866  11.947   3.965   4.947 -0.0834 -0.1515  0.0987
 4683W        W20867  14.547  10.951   1.911  0.1224  0.3390  0.0187
 4684W        W20868   5.984  15.756  12.392 -0.0513  0.1953  0.2973
 4685W        W20869   9.275   5.404   2.548 -0.3659  0.1754  0.2346
 4686W        W20870   9.290   1.008  10.629  0.0611  0.0160  0.1869
 4687W        W20871   1.159   2.112  13.974  0.0654 -0.0703 -0.0406
 4688W        W20872   1.132   1.601  12.911  0.3115  0.1837  0.0664
 4689W        W20873   0.072  13.154   2.221  0.1621 -0.4346 -0.1307
 4690W        W20874   8.942   9.193  13.790  0.0697 -0.0388 -0.0003
 4691W        W20875   6.211   3.535   1.983 -0.4123 -0.1649 -0.0769
 4692W        W20876  14.700   1.691   4.529 -0.1870 -0.3866  0.1532
 4693W        W20877  12.135   4.567   0.111  0.2132  0.0388 -0.1901
 4694W        W20878   6.505  10.397   1.397 -0.0396  0.1792 -0.3840
 4695W        W20879   7.927   6.904   0.702 -0.0024 -0.0117 -0.0373
 4696W        W20880   4.883   7.532   2.062 -0.0725 -0.1107  0.0868
 4697W        W20881   3.344   4.765   2.022 -0.1825  0.2482 -0.0791
 4698W        W20882  11.329   8.401  15.630  0.0306  0.0706 -0.0998
 4699W        W20883   0.729   3.155  13.661 -0.2807  0.1099  0.1581
 4700W        W20884  17.278  13.326   4.749 -0.1414  0.0453 -0.2325
 4701W        W20885  15.860   2.675  13.768 -0.0824  0.0312 -0.0216
 4702W        W20886   4.907   5.002  14.565  0.1335 -0.1615 -0.1106
 4703W        W20887  15.308   5.027  13.836 -0.0833 -0.0386 -0.0394
 4704W        W20888   6.128   0.297   5.129  0.1114  0.2202  0.0777
 4705W        W20889  12.205  10.730   5.248 -0.1549  0.0819  0.0233
 4706W        W20890  15.732   7.322   2.786  0.1961 -0.2463  0.1665
 4707W        W20891  12.728  16.209  14.272  0.2959  0.2100  0.1557
 4708W        W20892  11.303   8.808  12.308 -0.0860 -0.0297  0.0539
 4709W        W20893  10.837   0.866  14.804 -0.0574  0.2904 -0.2448
 4710W        W20894   7.939  16.637  15.156 -0.3388  0.0221 -0.0285
 4711W        W20895   3.976  12.136  16.715  0.2012 -0.0191 -0.1693
 4712W        W20896   7.252   0.461   2.359  0.1520  0.1009  0.1426
 4713W        W20897  11.977   3.204   0.577  0.1432 -0.0096  0.1909
 4714W        W20898   5.984   8.409  13.321 -0.1039  0.0047 -0.1668
 4715W        W20899   7.559   9.362   4.760  0.2604 -0.0942 -0.0023
 4716W        W20900   9.314   3.263  15.875 -0.0640  0.1275 -0.2543
 4717W        W20901  15.590   9.677  13.066  0.2806  0.0530  0.1597
 4718W        W20902   6.767  15.379  11.356 -0.0886  0.1179  0.1680
 4719W        W20903   0.753  15.822  16.639  0.0380  0.2922  0.2632
 4720W        W20904   6.902  10.386   1.723 -0.1614  0.1991 -0.1640
 4721W        W20905  12.407   9.426  14.017  0.0271  0.2933 -0.0183
 4722W        W20906  16.098   4.976  16.450  0.0443 -0.2498  0.3177
 4723W        W20907  13.190  12.128   1.251  0.3544 -0.2399  0.2915
 4724W        W20908  16.347   6.928  16.261 -0.2879 -0.0327 -0.2641
 4725W        W20909   8.816   5.609  13.087 -0.0303  0.1896  0.0021
 4726W        W20910   6.176   8.072  12.787 -0.1143 -0.0640  0.0139
 4727W        W20911  16.263   1.047  15.530  0.0852 -0.0512 -0.0148
 4728W        W20912   8.212   6.355  16.896 -0.1227  0.1190 -0.2633
 4729W        W20913   4.097  15.251  14.260 -0.0314 -0.0950  0.1301
 4730W        W20914   7.225   9.581   4.176 -0.0054  0.0160 -0.3313
 4731W        W20915   5.077   7.505   0.040  0.1616 -0.0005  0.0565
 4732W        W20916   9.631   2.536   0.402 -0.2719  0.0027 -0.0564
 4733W        W20917   8.602   4.253   6.410  0.3443  0.0986 -0.0149
 4734W        W20918   9.677  12.089  11.436  0.1132  0.2105  0.3263
 4735W        W20919   2.082   5.467   4.144 -0.0853  0.2064 -0.0422
 4736W        W20920   1.233   2.462  14.352  0.2061  0.0211  0.0824
 4737W        W20921   9.564   7.785  12.716 -0.1297  0.0682 -0.1071
 4738W        W20922  13.339   4.985   2.061  0.2233 -0.0630  0.0687
 4739W        W20923   0.551   4.072   2.333 -0.2671 -0.2234  0.0726
 4740W        W20924   5.760   0.490  14.300 -0.6029  0.0845 -0.0069
 4741W        W20925   2.222   7.160  14.505  0.0229  0.2745  0.0645
 4742W        W20926  15.270   8.883   3.655 -0.1132 -0.0987 -0.0337
 4743W        W20927   2.259  15.559  14.960  0.2907  0.0706 -0.3082
 4744W        W20928  16.708   3.381  14.646  0.0239  0.2504 -0.3030
 4745W        W20929   5.745   1.091  12.782  0.3913  0.3677 -0.1593
 4746W        W20930   9.434  14.282  13.851  0.0695  0.0428  0.1550
 4747W        W20931   4.353   9.165   1.354 -0.0642  0.0184  0.0506
 4748W        W20932  15.819  15.773   4.541  0.3703 -0.4319  0.2869
 4749W        W20933  14.926  14.202  12.570 -0.2803 -0.0519  0.1633
 4750W        W20934   8.180   5.192  15.695 -0.2380  0.0727 -0.1023
 4751W        W20935   0.784   4.575  15.024  0.0696  0.2351 -0.0623
 4752W        W20936   4.764  14.359  12.074  0.0395  0.0403 -0.3213
 4753W        W20937   6.589   2.214   0.514 -0.1239 -0.1992 -0.2412
 4754W        W20938   3.326   5.827   3.480  0.0228  0.1260  0.2623
 4755W        W20939  13.893   1.854  13.030  0.1545 -0.1458 -0.1738
 4756W        W20940  17.456  13.232   4.267 -0.0393 -0.0935  0.2201
 4757W        W20941  10.177  10.682   3.155  0.1134 -0.0963  0.0221
 4758W        W20942   1.748  17.259  16.483 -0.2534  0.1193 -0.1030
 4759W        W20943   9.450   2.360   3.557  0.0889  0.1165 -0.0744
 4760W        W20944   1.359   2.641  13.876  0.0807 -0.0598 -0.1499
 4761W        W20945  10.428  14.280   4.790  0.0347  0.2492  0.0299
 4762W        W20946  11.401  11.909  11.559 -0.2223 -0.1227  0.1751
 4763W        W20947   7.656  16.849   4.360  0.3491 -0.0458  0.2694
 4764W        W20948   8.463   0.621   1.808 -0.1332  0.2002  0.0710
 4765W        W20949  16.970  12.809  13.940 -0.0108  0.3321 -0.0162
 4766W        W20950  10.976   1.588   5.277 -0.1789  0.0741  0.0719
 4767W        W20951  16.798   6.348   4.598 -0.1544  0.0984  0.1147
 4768W        W20952  13.973   8.195  15.428 -0.4437 -0.0815 -0.1381
 4769W        W20953  16.019   2.391   0.824  0.3499  0.1327 -0.1818
 4770W        W20954   8.337  17.548  15.120 -0.0487  0.0922  0.0236
 4771W        W20955  13.379   6.404  16.656  0.2199  0.1973  0.0538
 4772W        W20956   0.276  11.441   1.916  0.0111  0.2078  0.0744
 4773W        W20957   5.362   5.055  16.462 -0.2691  0.0067  0.2177
 4774W        W20958  14.821   8.315  15.044  0.1079  0.0290  0.2296
 4775W        W20959   5.399  15.608  10.165  0.5508  0.1104 -0.0013
 4776W        W20960   5.067   1.958   3.807 -0.1143 -0.2413 -0.0395
 4777W        W20961   1.112   6.729   2.202  0.1260  0.0706  0.2931
 4778W        W20962   1.164  17.541   4.797  0.2005  0.1416  0.0388
 4779W        W20963   3.809  10.660   5.006  0.2591 -0.1197  0.0393
 4780W        W20964  16.301   3.959  11.930 -0.1825  0.1671 -0.1844
 4781W        W20965  12.204   2.205   5.266  0.2114  0.0156  0.2272
 4782W        W20966   7.577  10.271   4.859  0.0800  0.0009  0.0189
 4783W        W20967  12.798   1.470  11.746  0.2344 -0.0724 -0.0496
 4784W        W20968  14.444   0.332   2.303  0.0103 -0.1007 -0.1169
 4785W        W20969   6.583   7.804  15.267  0.1126  0.1480 -0.2720
 4786W        W20970   8.591  17.682  16.606  0.0078 -0.1741 -0.1091
 4787W        W20971  16.294   3.101   0.291  0.2245 -0.2865 -0.0390
 4788W        W20972  16.021   9.721   2.361  0.0453  0.1514 -0.0036
 4789W        W20973   2.417   2.976   3.110  0.1051 -0.0092 -0.2300
 4790W        W20974   1.583   6.659   4.740 -0.1096 -0.0376  0.0480
 4791W        W20975   7.472   6.568   0.709 -0.2402  0.0395  0.4059
 4792W        W20976   5.053  15.276  15.002 -0.1428 -0.0112 -0.1909
 4793W        W20977  10.945   9.734   2.169  0.0652 -0.2718 -0.0349
 4794W        W20978   7.193   8.384  12.548 -0.2344 -0.0345  0.1879
 4795W        W20979   6.628   2.272   2.234  0.1830  0.3043 -0.1563
 4796W        W20980   0.386  15.909   4.236 -0.0453  0.0709 -0.4326
 4797W        W20981   4.513  10.469   5.280 -0.2381 -0.0528  0.1725
 4798W        W20982  17.230  17.719  16.509 -0.4191  0.3510  0.0120
 4799W        W20983  17.302   0.206  13.370  0.4345 -0.0888 -0.0754
 4800W        W20984   8.513   3.027  14.025 -0.0344 -0.3035 -0.0941
 4801W        W20985   5.321   0.221  16.821  0.0743  0.0044  0.1604
 4802W        W20986   3.018   2.954   3.476  0.2927  0.0669 -0.0963
 4803W        W20987  13.308   0.316   3.646 -0.0571 -0.1730  0.1201
 4804W        W20988  14.877   4.473  13.341 -0.0854  0.1209 -0.0747
 4805W        W20989   0.330   7.549   4.451  0.2712  0.0926  0.0075
 4806W        W20990   8.864   2.735  12.025 -0.1880  0.1217 -0.0060
 4807W        W20991  11.061   0.785   4.529  0.3176  0.1388 -0.4115
 4808W        W20992  14.017  14.905   4.923  0.1782  0.0144 -0.3137
 4809W        W20993   7.936   1.315  11.905 -0.1920 -0.1288 -0.0338
 4810W        W20994  17.011   7.156  14.060  0.1398 -0.0568 -0.0693
 4811W        W20995   9.945   4.833  16.347  0.1604  0.1465  0.2976
 4812W        W20996  16.815   3.066   1.462 -0.4399 -0.1064  0.1758
 4813W        W20997   9.316   1.142  15.096  0.2272 -0.1386  0.0826
 4814W        W20998  11.877   4.687   3.706 -0.0455 -0.0961  0.0726
 4815W        W20999  14.151   8.766   5.299 -0.2203  0.1909  0.1947
 4816W        W21000  17.631   4.867  16.123 -0.2252  0.1985  0.0375
 4817W        W21001  16.750   4.193   5.124  0.0618  0.1661 -0.0916
 4818W        W21002  17.579   1.323   2.622 -0.1877 -0.2076  0.0559
 4819W        W21003  11.163   6.561  15.926  0.0847  0.0367  0.1632
 4820W        W21004  17.589   7.087  13.621 -0.0627 -0.1611 -0.0955
 4821W        W21005  15.964   8.614  15.160 -0.2394 -0.0608  0.1737
 4822W        W21006  10.905  12.352   3.708  0.2176  0.0167 -0.0985
 4823W        W21007   8.975  14.432  13.740 -0.1456  0.2197  0.1734
 4824W        W21008  11.786   8.913   6.084  0.2223  0.0057  0.0962
 4825W        W21009  12.819  13.090   4.770  0.1359  0.0598 -0.0266
 4826W        W21010  17.672  11.694  13.870  0.1361 -0.2279 -0.2147
 4827W        W21011  15.148  11.470   3.158  0.1193  0.0589 -0.3189
 4828W        W21012  12.211  12.837  15.936 -0.0449 -0.1843 -0.1422
 4829W        W21013   5.546   1.278  14.598 -0.0489  0.1380 -0.3441
 4830W        W21014   3.301  13.977   5.211  0.0106 -0.1954  0.0381
 4831W        W21015  12.862   1.528   3.078 -0.3164  0.2473 -0.3592
 4832W        W21016  12.143  10.091   3.828 -0.0389 -0.2378 -0.0864
 4833W        W21017   0.184   8.418  16.020  0.1122 -0.0874 -0.0189
 4834W        W21018  16.090   2.286  12.050 -0.1209 -0.0880  0.0061
 4835W        W21019   2.434   1.605   3.521 -0.1664 -0.0844 -0.0497
 4836W        W21020   9.540   1.388  14.615 -0.0709  0.1789  0.0632
 4837W        W21021   1.655   4.486  15.271 -0.1976  0.1266  0.2157
 4838W        W21022   6.384   2.044  13.155  0.1123 -0.0370  0.1278
 4839W        W21023   5.047   7.505  14.680 -0.3696 -0.1596 -0.1473
 4840W        W21024   6.498   7.698   5.230  0.0232 -0.1441  0.5037
 4841W        W21025   2.874  10.797   3.892  0.0151 -0.0705 -0.0236
 4842W        W21026   0.121   2.813   5.539 -0.0277 -0.1966 -0.0027
 4843W        W21027  14.775  17.839   4.098  0.2188  0.0830  0.1034
 4844W        W21028   2.619   0.661  13.765 -0.2725 -0.1510  0.4505
 4845W        W21029   6.413  15.023  16.246  0.2949  0.4044  0.0119
 4846W        W21030  16.987   8.512  13.011  0.1720 -0.1886 -0.0532
 4847W        W21031  11.513   0.197   5.063  0.2889 -0.1568  0.1089
 4848W        W21032   9.043  15.220   1.938  0.0671 -0.1292  0.2547
 4849W        W21033   9.411  10.331  15.867  0.0157  0.0496  0.2887
 4850W        W21034   7.898   8.787   2.420  0.1036  0.0715 -0.0581
 4851W        W21035  13.689   9.338   5.765  0.1587 -0.0343  0.2153
 4852W        W21036  16.579  17.138   6.021  0.2049 -0.0835  0.0683
 4853W        W21037  16.655  14.546   5.922 -0.1358  0.0819 -0.1841
 4854W        W21038  13.195   8.912  13.426 -0.3773 -0.0518 -0.0472
 4855W        W21039   6.002   7.345  14.827 -0.1748 -0.0376  0.0385
 4856W        W21040   0.879   0.258   5.388  0.1244 -0.3206  0.2622
 4857W        W21041  10.751  11.526   5.073 -0.0487  0.1112 -0.0227
 4858W        W21042   6.937   4.382   1.799  0.2230 -0.1277 -0.3256
 4859W        W21043   6.328   2.580  14.854  0.1759 -0.0732  0.2046
 4860W        W21044  15.396   6.754  16.073 -0.0641  0.0449  0.2542
 4861W        W21045   2.317   9.239  14.703 -0.1160  0.1044 -0.0710
 4862W        W21046   2.781   5.975  14.842 -0.2742 -0.1679  0.3457
 4863W        W21047  12.002  10.273   4.671 -0.0339 -0.0555 -0.1595
 4864W        W21048   8.707  15.076  12.150  0.0267  0.2638 -0.0344
 4865W        W21049   4.270   0.539  16.507  0.1593  0.0876  0.1516
 4866W        W21050   6.979  10.728   1.325  0.1018  0.1099 -0.0162
 4867W        W21051  16.109   6.029  12.894 -0.3896 -0.2088  0.0066
 4868W        W21052  13.000  15.843   5.357 -0.0842 -0.1649  0.3369
 4869W        W21053  10.045   3.906  16.399  0.1032  0.0314  0.4459
 4870W        W21054  15.716   7.887   5.360 -0.0178 -0.0951  0.2396
 4871W        W21055  14.408  12.481  14.206  0.0228  0.0228  0.0436
 4872W        W21056   3.696   6.934   4.635 -0.1654 -0.3594  0.2222
 4873W        W21057  15.494  16.205  16.610  0.3744 -0.1150  0.2932
 4874W        W21058  15.397  17.120   3.855 -0.2652  0.0481  0.2188
 4875W        W21059   3.168   1.045  16.881 -0.1594 -0.2146 -0.0891
 4876W        W21060  13.901  15.534  11.736  0.2114 -0.1056  0.1128
 4877W        W21061  16.093  14.764   4.813 -0.0290  0.0941  0.0168
 4878W        W21062   5.476   5.124   5.708 -0.4075 -0.2671  0.2137
 4879W        W21063   2.686   3.666   0.812 -0.2062  0.0271 -0.1843
 4880W        W21064   4.145  14.023   4.276 -0.2209  0.0484  0.1520
 4881W        W21065  16.296   0.371   3.257 -0.1335 -0.3394  0.0439
 4882W        W21066  12.459  10.343   0.315  0.1685 -0.1508 -0.0168
 4883W        W21067  16.652   5.559   1.238  0.5237 -0.3092  0.0298
 4884W        W21068  12.981   8.191   2.414  0.4038  0.0573  0.0746
 4885W        W21069  11.354  14.031   5.286  0.1492 -0.0148 -0.1226
 4886W        W21070  15.660  11.802  10.667  0.2621 -0.2300 -0.1220
 4887W        W21071   2.342   0.958  11.717  0.0158 -0.1207  0.0431
 4888W        W21072  16.434   4.291   1.043 -0.1462 -0.0532 -0.0093
 4889W        W21073   6.572   9.455   5.748  0.0034  0.2990 -0.0450
 4890W        W21074   7.735  11.238   3.846 -0.0319 -0.2875  0.1341
 4891W        W21075  13.906   6.490   1.132 -0.0144 -0.2427 -0.2213
 4892W        W21076   9.136   0.655  14.668  0.2620  0.3364  0.0941
 4893W        W21077  12.289   3.523   5.638  0.1462  0.2054 -0.0416
 4894W        W21078   2.249   9.737  14.306 -0.2488  0.2031  0.0009
 4895W        W21079   8.278   0.252   1.514  0.1537 -0.0454 -0.0250
 4896W        W21080   3.729  11.595  16.008  0.0563  0.2198 -0.1017
 4897W        W21081   0.378  13.009   3.616  0.3416 -0.3299 -0.0758
 4898W        W21082   8.996   6.403  12.507 -0.0119 -0.0776 -0.1970
 4899W        W21083  16.884   2.740  12.156 -0.4376 -0.2098  0.0789
 4900W        W21084   6.825   2.110   5.594  0.1458 -0.1420 -0.1454
 4901W        W21085   0.869   5.618   2.416 -0.1109 -0.1833 -0.0889
 4902W        W21086   9.256  14.141  15.694  0.0276  0.0394 -0.0910
 4903W        W21087  14.829   8.435   0.267  0.2788  0.0715 -0.0284
 4904W        W21088   6.061   9.105  14.197  0.0591 -0.0748  0.1448
 4905W        W21089  15.835  11.787   6.109 -0.0209 -0.2860 -0.0164
 4906W        W21090   0.479  12.746  13.214  0.1258  0.2129  0.1474
 4907W        W21091   0.678  14.004   3.194  0.0062  0.1430 -0.2306
 4908W        W21092  13.221   3.585   1.846  0.3374 -0.3572 -0.0595
 4909W        W21093  12.756  11.406   0.548 -0.0076  0.1211 -0.3810
 4910W        W21094   6.432  11.793  14.850 -0.0430 -0.0620 -0.1891
 4911W        W21095   3.117  10.956  12.212 -0.2899 -0.2493 -0.1796
 4912W        W21096   5.035   7.123   5.058 -0.0288  0.1397 -0.0859
 4913W        W21097   7.835   1.128  12.559  0.0290 -0.1587 -0.1734
 4914W        W21098   5.851  16.303   4.922  0.1335  0.1506  0.1596
 4915W        W21099  11.394   9.199  13.678 -0.1290 -0.3344  0.0643
 4916W        W21100  16.821   8.238   3.074  0.3744 -0.0179 -0.3104
 4917W        W21101  16.464  10.096   2.527  0.2627  0.2070  0.2289
 4918W        W21102  12.617  16.022   2.844  0.2280 -0.1308  0.1417
 4919W        W21103   8.765   7.178  14.204  0.0097 -0.2818 -0.1525
 4920W        W21104  13.718   5.745   0.928  0.5078  0.0287 -0.0155
 4921W        W21105   4.652  11.550  11.633 -0.1887 -0.2175 -0.0323
 4922W        W21106  11.961   6.508   1.855  0.0719 -0.0669 -0.0953
 4923W        W21107   2.034  11.974   4.993  0.1297 -0.2081  0.0194
 4924W        W21108  15.219   5.180   1.982  0.0314 -0.1748 -0.0555
 4925W        W21109   2.756   3.330  11.999 -0.1565  0.3274 -0.2312
 4926W        W21110   7.716  15.909   0.039  0.2059  0.0760  0.0672
 4927W        W21111  15.323  15.665  12.542  0.1489 -0.1440  0.0378
 4928W        W21112   2.517   1.078   1.933 -0.1663 -0.0921  0.2104
 4929W        W21113   2.393   2.386  14.829 -0.0096  0.3070  0.3156
 4930W        W21114  14.148   3.998  13.737 -0.2630  0.1869 -0.0171
 4931W        W21115   3.992   2.234  12.364 -0.2706 -0.0394  0.0280
 4932W        W21116  16.175  12.811  16.519 -0.2748 -0.1003 -0.1271
 4933W        W21117  16.641   7.014  14.438  0.1897 -0.3399 -0.0227
 4934W        W21118   4.494  12.519   4.525 -0.1166 -0.2545  0.1464
 4935W        W21119   4.197   7.991   1.484  0.0364  0.1289  0.0521
 4936W        W21120  11.018   0.764  13.294  0.0897 -0.0774  0.1058
 4937W        W21121   7.829   2.319  11.817 -0.1968 -0.2038 -0.1865
 4938W        W21122   1.740   2.173   0.822 -0.2617  0.2482  0.1030
 4939W        W21123  16.008   8.086  11.577 -0.0546 -0.0927  0.1142
 4940W        W21124   8.357  12.519  10.517 -0.2529 -0.0815  0.1044
 4941W        W21125   3.553   2.270  16.621 -0.0940 -0.1368  0.2976
 4942W        W21126  11.341  15.151  14.431 -0.0666  0.1693 -0.3576
 4943W        W21127  13.303  16.619  12.216  0.3833  0.0424 -0.1418
 4944W        W21128  10.173  16.352  13.247 -0.1451 -0.0410 -0.2287
 4945W        W21129  13.562  13.489  14.147  0.0902 -0.0831  0.1240
 4946W        W21130   7.353  15.002   3.528 -0.1178  0.2157  0.1190
 4947W        W21131   8.592   7.890  16.037 -0.0335  0.0332  0.0315
 4948W        W21132   5.014   2.294  16.852 -0.2428 -0.2077  0.1712
 4949W        W21133  10.788   3.694  11.297 -0.0579  0.1147  0.1859
 4950W        W21134   2.515  15.085  11.322 -0.1103  0.0720  0.0934
 4951W        W21135   1.781   4.275   4.371  0.3675  0.2456 -0.0755
 4952W        W21136   9.980  14.784  12.243  0.2110 -0.1189  0.2131
 4953W        W21137   2.914  10.361   3.148 -0.0295 -0.0818 -0.1007
 4954W        W21138  16.832  17.191  14.430  0.0707  0.1145 -0.0090
 4955W        W21139  10.807   3.011   4.635 -0.0134  0.0058 -0.1239
 4956W        W21140   3.522   3.284  12.565 -0.3213 -0.0103  0.1220
 4957W        W21141   7.094  15.879  11.883 -0.0172  0.0163 -0.0440
 4958W        W21142  11.492   1.419  14.331 -0.1361  0.0792 -0.0717
 4959W        W21143   6.687   0.502  11.466 -0.0656 -0.0911  0.2015
 4960W        W21144  13.991   4.471   6.367  0.0428  0.1357  0.0133
 4961W        W21145  10.996  10.748  15.111  0.3135  0.0619  0.1008
 4962W        W21146   2.887  12.399  11.474  0.0385 -0.2108 -0.0512
 4963W        W21147   6.699   2.995   0.165  0.0811 -0.0037 -0.0097
 4964W        W21148  16.335   7.688  16.458 -0.3388  0.1182  0.1399
 4965W        W21149   8.525   1.398  15.619 -0.0966 -0.1511  0.1542
 4966W        W21150  11.366   3.022  14.537  0.3019 -0.0344 -0.0747
 4967W        W21151   8.099   0.972   1.812  0.4022  0.3079  0.5067
 4968W        W21152   4.023   3.170   1.398 -0.0260  0.2050 -0.2219
 4969W        W21153   2.188   7.325  12.154 -0.0088 -0.1118  0.3265
 4970W        W21154   8.797  11.669  13.711 -0.3063  0.2669 -0.0118
 4971W        W21155  12.105  16.753  13.719 -0.0732 -0.1402 -0.0745
 4972W        W21156  13.005  15.168   1.957  0.0974  0.0893  0.0890
 4973W        W21157   9.116   8.863   3.674 -0.0573 -0.0336  0.1374
 4974W        W21158   6.068   6.543  13.028 -0.1874 -0.0038 -0.0305
 4975W        W21159  14.247   7.866   5.327  0.0760 -0.0816  0.2573
 4976W        W21160  14.348  16.243   2.441  0.4212 -0.2951  0.0280
 4977W        W21161  12.205  10.889  13.633  0.1432 -0.2765 -0.0528
 4978W        W21162  17.519   6.510  14.853 -0.6216  0.2692  0.0750
 4979W        W21163   1.523   6.935   1.914  0.3759  0.0493 -0.2572
 4980W        W21164   8.559  10.311   1.711 -0.1569  0.0014 -0.0799
 4981W        W21165   4.833  14.118   0.051 -0.1051 -0.0546 -0.3510
 4982W        W21166  14.909  14.598   0.751 -0.0020  0.3920 -0.0923
 4983W        W21167   1.189  12.592  12.292 -0.2068  0.1564 -0.4441
 4984W        W21168   6.499  16.733  13.186  0.1504  0.0529  0.2599
 4985W        W21169  12.401  16.973  15.490  0.0080 -0.0652 -0.1416
 4986W        W21170   1.213   9.966   4.214 -0.0337  0.0683 -0.1005
 4987W        W21171   9.774  13.041  16.877 -0.1057 -0.1894 -0.1653
 4988W        W21172   1.558   3.739  14.532  0.0143 -0.2427  0.3010
 4989W        W21173   2.329   2.657  12.482  0.1051  0.1553 -0.1798
 4990W        W21174   4.114   2.472  11.948  0.0217 -0.0991  0.0685
 4991W        W21175   9.601  14.332  16.920 -0.0767 -0.1684  0.0924
 4992W        W21176   4.963  16.092   0.073 -0.0384 -0.0648 -0.0341
 4993W        W21177  15.726   1.521  16.042 -0.2238 -0.1082  0.2060
 4994W        W21178  16.959   6.704   2.545 -0.1316  0.1250  0.0128
 4995W        W21179   8.070  10.537   0.091  0.0868 -0.0485 -0.3174
 4996W        W21180   5.268  15.664   0.664 -0.1579 -0.1683 -0.2159
 4997W        W21181   4.635  14.126   1.837  0.1740  0.0391 -0.2372
 4998W        W21182  10.023  17.849   4.760  0.1126  0.0265  0.1746
 4999W        W21183   7.682  13.061  16.060  0.0193  0.3226 -0.2684
 5000W        W21184   6.772  11.707   1.218  0.0427 -0.2080  0.1178
 5001W        W21185   7.772  15.512   4.132  0.2841 -0.0685  0.2032
 5002W        W21186   6.256   9.752  13.529  0.1395  0.0881  0.1339
 5003W        W21187   5.111   0.511   1.679  0.4378  0.2155  0.1192
 5004W        W21188   1.710   1.919  15.645 -0.1124  0.3124  0.0571
 5005W        W21189  13.618   2.638   4.859 -0.0379 -0.3000  0.0054
 5006W        W21190   3.916  14.325   1.366 -0.0583 -0.0113 -0.0762
 5007W        W21191  15.040   6.923   0.661  0.1715  0.0122  0.3106
 5008W        W21192  13.107  16.815   1.232  0.1077  0.1272 -0.0826
 5009W        W21193  12.236   4.680   2.078 -0.2215 -0.0440  0.3870
 5010W        W21194   2.625  10.992   1.865 -0.1517 -0.5534 -0.0201
 5011W        W21195  12.592   9.169  13.594 -0.0736  0.1228  0.4037
 5012W        W21196  14.864   6.692  16.047  0.1845  0.0876  0.1975
 5013W        W21197   9.685   9.241   4.818  0.2284 -0.0815 -0.0833
 5014W        W21198   3.483  11.548   6.119 -0.0891  0.0694 -0.3864
 5015W        W21199   3.342  14.782   3.123 -0.0834 -0.2729  0.3694
 5016W        W21200  14.353   7.067   2.503  0.1561  0.2773  0.0702
 5017W        W21201   4.616   9.521   2.292  0.0447 -0.1077  0.0972
 5018W        W21202  14.557  16.445  14.121  0.0273  0.0340 -0.1116
 5019W        W21203   8.035   1.084  15.615 -0.2285  0.1636  0.4119
 5020W        W21204   6.860  11.337   2.624 -0.4048  0.2590 -0.1836
 5021W        W21205   3.448   8.171   3.346  0.1182  0.0525  0.3272
 5022W        W21206  14.887   1.326   4.222 -0.2232  0.1415 -0.2164
 5023W        W21207  11.181   4.777  12.291 -0.2006  0.0440 -0.1385
 5024W        W21208   8.537   9.633   1.313 -0.1002 -0.2712  0.0780
 5025W        W21209  16.585  15.327  14.175  0.2123 -0.1076  0.0194
 5026W        W21210   9.674   3.727   1.932 -0.3408 -0.1762  0.2798
 5027W        W21211   0.907   0.662   4.962 -0.1481 -0.0262  0.0737
 5028W        W21212   6.212  15.940   4.759  0.0794  0.3244  0.3599
 5029W        W21213   2.899  11.309   2.591 -0.2679  0.3496 -0.1045
 5030W        W21214   8.933   1.107  13.756  0.0368  0.1136  0.0347
 5031W        W21215   2.809   0.954  14.250  0.2705 -0.1312  0.0416
 5032W        W21216   3.907   1.287  13.841  0.0212  0.0930 -0.0762
 5033W        W21217  12.763   1.723   6.232 -0.3991 -0.3682  0.0207
 5034W        W21218   9.029  13.024   0.284 -0.0211 -0.0851 -0.0231
 5035W        W21219  17.640   1.969  15.926 -0.0700  0.0802  0.2743
 5036W        W21220  15.571   9.109   4.077  0.0868 -0.0636  0.1217
 5037W        W21221   5.234   6.288   3.889  0.0055  0.1311  0.0770
 5038W        W21222  17.585   1.900   3.842  0.2654  0.1452 -0.0573
 5039W        W21223   1.303  17.312   1.878 -0.0651 -0.0378 -0.0336
 5040W        W21224   0.338   8.164  16.924  0.0097 -0.0852 -0.0716
 5041W        W21225   4.032  13.280   0.366 -0.1086  0.1214 -0.0046
 5042W        W21226  11.660  13.162  16.582  0.1237  0.2031  0.2523
 5043W        W21227  10.038  16.526   1.265 -0.0890  0.3257  0.0309
 5044W        W21228   8.455   4.556   5.058  0.0139  0.1365 -0.1294
 5045W        W21229   1.228   2.756   1.046 -0.1918 -0.0510 -0.1492
 5046W        W21230  15.581   5.550   1.149 -0.4754  0.3076  0.0365
 5047W        W21231  11.616   6.646   5.047 -0.0174  0.0771 -0.0546
 5048W        W21232  12.762  12.288  12.233 -0.0886 -0.3302 -0.0954
 5049W        W21233   6.943   6.763  13.056  0.0490  0.1378  0.0679
 5050W        W21234  12.394   9.941  14.100  0.1447 -0.0768 -0.2011
 5051W        W21235   5.878   8.528   2.824  0.2177 -0.1064 -0.1749
 5052W        W21236   3.044  10.014   3.754  0.1340 -0.4987 -0.1863
 5053W        W21237  14.621   9.321  12.843  0.2833  0.0383  0.1344
 5054W        W21238   0.863  17.086  11.208  0.0719 -0.1116 -0.2076
 5055W        W21239  14.001  13.595  16.702 -0.1880  0.1988 -0.1741
 5056W        W21240   3.303   8.356   4.307 -0.0999  0.2797  0.1794
 5057W        W21241  14.704   5.554   1.498 -0.1283 -0.1106 -0.0222
 5058W        W21242   5.161   8.009   5.034 -0.0015 -0.1345 -0.0040
 5059W        W21243   4.973   2.330  13.842 -0.2498 -0.1909  0.3497
 5060W        W21244   0.506   6.633  13.420  0.2105 -0.1466 -0.3481
 5061W        W21245   1.986   3.275   1.409 -0.1273  0.1664 -0.1852
 5062W        W21246  16.275   8.375   4.866  0.2820  0.1191  0.1744
 5063W        W21247   2.202   9.886   4.410 -0.0382  0.0039  0.1677
 5064W        W21248   6.703  16.039  12.855  0.0133 -0.0107  0.0346
 5065W        W21249  11.213   7.487  12.606 -0.0669  0.2559  0.2303
 5066W        W21250  14.545  11.373   5.543 -0.0066 -0.2065 -0.3551
 5067W        W21251  10.799  15.077   4.408 -0.5111  0.2860 -0.2373
 5068W        W21252   1.881   1.904   2.828 -0.3350  0.1352  0.1531
 5069W        W21253  17.415   0.612   4.824 -0.0428 -0.0386 -0.1619
 5070W        W21254  12.528  13.668   3.542  0.2652  0.2135  0.2201
 5071W        W21255   4.824   9.313   1.120  0.1509  0.2244 -0.0028
 5072W        W21256   4.930   4.476   5.242 -0.1256  0.1128 -0.0545
 5073W        W21257  15.196  11.487  14.139  0.0209  0.0199  0.4072
 5074W        W21258   4.937   0.857  12.196 -0.4651  0.0903 -0.3249
 5075W        W21259   6.318  13.987   3.444 -0.0613  0.1636  0.0240
 5076W        W21260  15.243   0.852  16.256 -0.0373  0.1488  0.0210
 5077W        W21261   0.496  15.326  14.900  0.2324  0.2709 -0.0083
 5078W        W21262  13.573  10.746   4.709  0.2157  0.1072 -0.0160
 5079W        W21263   7.420  10.395   0.217 -0.0566 -0.1377  0.0892
 5080W        W21264   3.009  14.226   2.031  0.1268  0.2523  0.2168
 5081W        W21265  14.285  14.128   1.516  0.1553  0.0501  0.0287
 5082W        W21266   8.555   6.456  13.832 -0.1995  0.2452  0.0872
 5083W        W21267  14.042   3.868  14.222 -0.2798  0.0797  0.0221
 5084W        W21268  15.116  14.751   1.282  0.2248 -0.0721 -0.2169
 5085W        W21269  15.092   0.784  12.840  0.0055 -0.0264 -0.0270
 5086W        W21270  11.935  15.360  14.088  0.0534  0.0562 -0.0705
 5087W        W21271   2.536  12.234  13.779  0.2177  0.0976 -0.2993
 5088W        W21272   2.008   2.122  11.326  0.0404  0.2281 -0.1810
 5089W        W21273  16.940   3.691   5.020 -0.0152 -0.0164 -0.0178
 5090W        W21274  10.099  12.763  15.763  0.1207  0.0010 -0.2425
 5091W        W21275   2.449   8.199   4.267 -0.1809 -0.2206 -0.1728
 5092W        W21276  11.319   7.370   5.476  0.0173 -0.0531 -0.0270
 5093W        W21277  15.211   6.242  13.152  0.1282 -0.0768  0.2057
 5094W        W21278  10.237  15.382  11.275 -0.2059  0.1887 -0.3175
 5095W        W21279   5.040   0.376  14.931  0.1574  0.0963 -0.0956
 5096W        W21280  15.621   2.424  12.270 -0.0055 -0.0051  0.0914
 5097W        W21281  16.642  16.819  12.893  0.0579  0.1619 -0.1226
 5098W        W21282   7.134   5.195   4.206 -0.0864  0.0109  0.2202
 5099W        W21283  17.559   0.637   3.066  0.1905  0.1983  0.3259
 5100W        W21284   4.759   1.595   4.538  0.1571  0.0385 -0.1049
 5101W        W21285  15.463   4.542   3.124  0.0544  0.0988 -0.0874
 5102W        W21286  12.037   3.657  14.919  0.0916 -0.2687 -0.0118
 5103W        W21287   3.081  15.203  12.798  0.0253  0.0702 -0.1283
 5104W        W21288  11.272   1.745   0.317  0.0834 -0.3572 -0.0469
 5105W        W21289  11.199   0.849  12.287 -0.1358 -0.4796  0.0163
 5106W        W21290   2.823  15.556   3.563 -0.1870  0.2597  0.1294
 5107W        W21291   1.822   8.387   5.545 -0.2117  0.2089 -0.3040
 5108W        W21292   0.934   9.607  16.612  0.1232 -0.1043  0.2112
 5109W        W21293  11.166   0.271  16.923 -0.0051 -0.0300 -0.0495
 5110W        W21294  12.472  13.494   4.961 -0.0049  0.2509  0.0471
 5111W        W21295   6.352   2.106   1.019 -0.1102 -0.0037  0.0958
 5112W        W21296   7.131  17.179   0.481 -0.3843 -0.1530  0.0690
 5113W        W21297   8.199   5.195   2.488 -0.0880  0.2545  0.1522
 5114W        W21298   3.393   3.253   3.724  0.1497  0.4423  0.1136
 5115W        W21299  11.525   1.958  16.357 -0.1430 -0.1598  0.0196
 5116W        W21300  12.661   7.864  12.873  0.1128  0.0126 -0.0990
 5117W        W21301   3.243  15.057   4.393  0.1585  0.0485  0.0495
 5118W        W21302  15.497  11.846  12.820  0.0590 -0.2109  0.1031
 5119W        W21303  17.284   5.388   3.737  0.1064 -0.1604  0.1022
 5120W        W21304   4.599   8.471   5.473  0.0035 -0.0699 -0.2540
 5121W        W21305  13.535  16.962   3.005 -0.1110 -0.0762 -0.2202
 5122W        W21306  15.190  13.928  13.824  0.0640 -0.2859  0.0481
 5123W        W21307  13.734  10.254  12.458  0.1969 -0.0108  0.3186
 5124W        W21308   9.605  16.819   1.950  0.1409  0.1266  0.1919
 5125W        W21309   3.139   5.072   5.683 -0.2322 -0.0731  0.0922
 5126W        W21310   9.801  12.803   2.285  0.1753  0.0579 -0.1155
 5127W        W21311   7.092  17.487  15.664  0.0205  0.1683 -0.1041
 5128W        W21312   2.575  13.551   5.660  0.1090  0.1372  0.1689
 5129W        W21313   8.990  15.018   1.514 -0.2823  0.0643 -0.0332
 5130W        W21314  14.252  13.910  12.567  0.0269  0.0509 -0.3130
 5131W        W21315  10.849   3.525   2.763  0.3239 -0.2423 -0.2125
 5132W        W21316  14.427   3.255  14.114 -0.0347 -0.2652  0.1813
 5133W        W21317  17.604   2.405   0.541 -0.2537 -0.0117  0.3218
 5134W        W21318  11.741  15.415   5.287 -0.0693  0.0911 -0.3098
 5135W        W21319  14.738   5.700  15.774  0.3329  0.2784 -0.0920
 5136W        W21320   9.234   9.927   0.245  0.1931 -0.0163  0.1975
 5137W        W21321   2.145  16.289  10.260  0.1766  0.0882  0.1988
 5138W        W21322  16.950   5.881   3.441  0.2940  0.0105 -0.1168
 5139W        W21323  14.256  11.882  14.706 -0.0491 -0.0078  0.2976
 5140W        W21324   8.443  11.790   0.110 -0.1222  0.0266 -0.1436
 5141W        W21325   5.189   2.537   3.116 -0.0702  0.2853  0.0036
 5142W        W21326  14.348   7.538   2.179 -0.0940 -0.0335 -0.1289
 5143W        W21327  15.580  15.848  16.101 -0.0422  0.0561 -0.2374
 5144W        W21328   5.875   2.682   5.081  0.1591  0.0206  0.0822
 5145W        W21329  10.904  10.212  14.000 -0.0137  0.0309  0.2209
 5146W        W21330   4.695  16.691  11.624 -0.1809  0.0569 -0.0442
 5147W        W21331   4.621  14.427   0.891 -0.1873 -0.1066 -0.1193
 5148W        W21332  16.025   7.410   5.203  0.1335  0.4161 -0.2833
 5149W        W21333   9.504   4.833   1.316 -0.0831  0.2727 -0.1815
 5150W        W21334   3.800  17.854   4.034  0.1139 -0.0120 -0.0739
 5151W        W21335  10.753  14.874   0.536 -0.1962  0.1380  0.1719
 5152W        W21336   6.560  16.242   2.517 -0.2280 -0.2177 -0.5664
 5153W        W21337   5.507  16.555   0.796 -0.0965  0.0990 -0.0260
 5154W        W21338   7.179   4.807  14.840 -0.1137  0.2608 -0.1401
 5155W        W21339   1.479   2.510   4.377 -0.0453  0.0892  0.2869
 5156W        W21340  13.042   3.573  12.206  0.0692 -0.0918  0.0248
 5157W        W21341   2.856   7.196  12.734  0.1989 -0.0546  0.0211
 5158W        W21342   1.235   4.065   0.196 -0.0393  0.3026 -0.1203
 5159W        W21343  17.192   5.960  16.908  0.1345 -0.0917 -0.1171
 5160W        W21344  16.907   9.597  16.581  0.2769  0.0500  0.0279
 5161W        W21345   0.071  10.424  13.325  0.1097  0.3264  0.0957
 5162W        W21346   5.113   5.607   0.471  0.0409  0.2922  0.0827
 5163W        W21347  10.619   6.748  11.677 -0.1007 -0.2830  0.1058
 5164W        W21348   9.816   6.056  13.568 -0.3095  0.1406 -0.0877
 5165W        W21349  14.012   8.381   0.729  0.1198 -0.2480 -0.1641
 5166W        W21350  16.257  13.790  16.659 -0.1456  0.0474 -0.0288
 5167W        W21351  10.169  13.271  14.425  0.0627 -0.1363  0.0484
 5168W        W21352  14.073   4.927   4.459 -0.1070  0.0292 -0.1245
 5169W        W21353   5.722  15.455  14.314  0.0963 -0.1415 -0.0782
 5170W        W21354   4.383  16.201  14.817 -0.1404  0.3874  0.5767
 5171W        W21355   2.518   5.874   0.608 -0.0843  0.2862  0.1316
 5172W        W21356  11.147  17.268  15.458 -0.1000 -0.2746  0.2009
 5173W        W21357   4.858   0.450   4.439 -0.0774  0.0397 -0.1602
 5174W        W21358  13.572   9.732   0.825 -0.0223  0.0828  0.0960
 5175W        W21359   8.300  13.247  16.214  0.0082  0.1150 -0.3201
 5176W        W21360   5.938   4.048   4.550  0.4784 -0.0431 -0.0790
 5177W        W21361   5.123   8.219   3.750 -0.2596  0.1829 -0.0143
 5178W        W21362   2.148  10.408  12.627 -0.0483  0.2226  0.2372
 5179W        W21363   2.874   4.342  12.524  0.0825 -0.0439  0.0045
 5180W        W21364   9.309   1.737   1.125 -0.2699 -0.2985 -0.0995
 5181W        W21365   6.054  13.663  13.727  0.0118 -0.1267 -0.2827
 5182W        W21366  10.363  15.457   3.406  0.0365 -0.0748 -0.1285
 5183W        W21367  16.009  12.650   4.320 -0.0380  0.1392 -0.0498
 5184W        W21368  17.701   6.009   4.880  0.2978  0.0087 -0.1891
 5185W        W21369  15.472   0.194   0.398  0.3107  0.0986 -0.1304
 5186W        W21370  11.140  16.456   2.086  0.1374  0.1237 -0.0924
 5187W        W21371   8.202  11.419  12.834  0.3515  0.1686 -0.1027
 5188W        W21372   9.799   7.373  15.930 -0.1551 -0.1023 -0.1202
 5189W        W21373   4.490  11.949  15.612 -0.0581  0.0473  0.2706
 5190W        W21374   9.233  14.891  13.820 -0.3739 -0.3707  0.3203
 5191W        W21375   3.803  10.594   1.918  0.0623 -0.2506  0.2999
 5192W        W21376  11.245   0.490   3.673  0.1314  0.1060  0.1179
 5193W        W21377   9.530   2.965   6.291 -0.1927  0.0427 -0.0464
 5194W        W21378   0.091   3.725   5.125  0.3783 -0.2347  0.3415
 5195W        W21379  13.152   0.185  12.744  0.3290  0.4158 -0.2072
 5196W        W21380   7.409  17.110  12.510  0.1493 -0.0208 -0.2285
 5197W        W21381   3.866   4.165   4.090  0.0439 -0.1422  0.0315
 5198W        W21382  17.074   2.620  13.160  0.3867 -0.0778  0.2949
 5199W        W21383   4.274   8.894   5.445 -0.0021 -0.0600  0.0525
 5200W        W21384  17.506  14.822  15.480 -0.2504  0.2254 -0.3484
 5201W        W21385  13.174  17.646   1.773  0.0345 -0.3757 -0.0683
 5202W        W21386  13.673  12.109   3.852  0.1560  0.0383 -0.2714
 5203W        W21387  15.007  10.008   4.440  0.2041 -0.2032  0.2704
 5204W        W21388  11.584  13.476   3.336 -0.2572 -0.2494  0.2361
 5205W        W21389  17.382   6.173   3.632 -0.1935 -0.0111 -0.0720
 5206W        W21390   5.841  16.165  11.183  0.2306 -0.1144 -0.2994
 5207W        W21391   1.463   8.618  14.922  0.2541  0.0540 -0.1702
 5208W        W21392  14.553   7.168  12.579  0.2256  0.0868  0.0765
 5209W        W21393  15.265   8.652   0.495  0.3561 -0.0204  0.0695
 5210W        W21394   5.809   3.862   6.428 -0.1003  0.3422  0.0149
 5211W        W21395   5.858   6.716  13.809  0.0274  0.0918 -0.1884
 5212W        W21396   9.718   5.884   4.025 -0.3154  0.0516  0.2007
 5213W        W21397   4.856  15.382   2.174 -0.2460 -0.0843 -0.1970
 5214W        W21398   5.748   0.625   3.368 -0.1273 -0.1042 -0.3278
 5215W        W21399  16.073   2.282  12.580 -0.1776 -0.0220  0.0184
 5216W        W21400  12.450   0.475  14.000  0.0196  0.3839  0.1185
 5217W        W21401   8.947  15.140   2.392 -0.1198  0.0310  0.0024
 5218W        W21402  17.664   1.560   0.079 -0.1515  0.1502 -0.2300
 5219W        W21403   7.187   0.344   4.570 -0.2256  0.4873  0.7680
 5220W        W21404  11.973  14.441  14.676 -0.2186  0.3300 -0.0056
 5221W        W21405   8.417  17.782  12.296  0.2831  0.0852 -0.0812
 5222W        W21406   7.424   2.088  15.800  0.3415 -0.1742 -0.1264
 5223W        W21407   9.309   3.350  14.678  0.0185 -0.1365 -0.0007
 5224W        W21408   8.795  15.324   0.724 -0.2004 -0.0344  0.1906
 5225W        W21409   0.192   3.027  11.964  0.3233  0.0996 -0.1618
 5226W        W21410   1.212   6.551  14.989 -0.1689 -0.0501  0.0687
 5227W        W21411   6.532   3.610  13.218 -0.1543  0.0041 -0.1932
 5228W        W21412  15.552  12.105  14.808 -0.0403 -0.1094  0.0264
 5229W        W21413  11.829   4.445   0.502  0.0532  0.2703  0.0764
 5230W        W21414  16.551  11.342  16.513  0.0148  0.0990  0.0033
 5231W        W21415  11.495   8.830  13.115 -0.0812 -0.0509 -0.0653
 5232W        W21416  15.096  16.522  15.828  0.3482  0.1254 -0.1023
 5233W        W21417  15.046  16.437  12.754 -0.0185  0.1715  0.1422
 5234W        W21418   2.537  16.142   4.407  0.0877  0.1681 -0.0238
 5235W        W21419   8.860   1.204   2.396 -0.5120 -0.2453 -0.0685
 5236W        W21420   8.512   1.580   3.024  0.1820  0.0908  0.1991
 5237W        W21421  10.982   2.186  13.378  0.1047 -0.2108  0.0674
 5238W        W21422   2.625  10.814   0.622  0.0685 -0.0942  0.2437
 5239W        W21423  16.277   6.079   0.170 -0.0814 -0.1465  0.2409
 5240W        W21424  15.922   4.988   5.186  0.0238  0.1034  0.2594
 5241W        W21425  12.427   8.012  16.457 -0.1958  0.2323  0.1131
 5242W        W21426  16.139   7.022  14.625  0.1907  0.2708  0.1680
 5243W        W21427   2.289  14.152   2.124  0.2816 -0.1764  0.0984
 5244W        W21428  15.304   1.212  12.725  0.0668 -0.0190 -0.0401
 5245W        W21429  15.650  12.561  16.300  0.3661 -0.1340  0.4085
 5246W        W21430  12.470  16.508  12.254  0.1886 -0.2747 -0.3166
 5247W        W21431   0.047  15.539   0.130 -0.3355  0.2294  0.1876
 5248W        W21432   3.861  14.279  16.650  0.0802 -0.2537  0.0268
 5249W        W21433  15.599  14.557  11.247 -0.0033 -0.2685  0.1653
 5250W        W21434   3.864   0.497   3.062  0.1200  0.0527  0.0542
 5251W        W21435  14.908  11.372   4.745  0.0732 -0.2846 -0.3268
 5252W        W21436   8.245  13.053   4.213 -0.1637  0.0412  0.1580
 5253W        W21437   5.337   2.586   1.138  0.1290 -0.3292 -0.2565
 5254W        W21438  15.032   8.681   2.913  0.2540 -0.3113 -0.1211
 5255W        W21439   0.946  11.525  12.895  0.1420  0.1263 -0.0345
 5256W        W21440   9.573  17.476   3.352  0.2563 -0.0254 -0.0677
 5257W        W21441   6.324  15.026  15.404 -0.0363  0.0349 -0.0825
 5258W        W21442   6.330  17.087   2.046 -0.0212  0.1706 -0.2132
 5259W        W21443   6.953   4.845  11.989  0.1434  0.1584  0.0090
 5260W        W21444   1.718   3.980   2.863  0.0277  0.1669  0.3633
 5261W        W21445   3.490  15.123   0.647 -0.0159 -0.3883  0.0415
 5262W        W21446   4.321  15.755  14.096  0.0971 -0.0577 -0.0044
 5263W        W21447   5.209  12.371  11.667 -0.0415  0.0411 -0.1574
 5264W        W21448  16.262   1.988   5.211  0.0737 -0.1761  0.1330
 5265W        W21449  11.167  11.843   5.012  0.2576  0.3012  0.0661
 5266W        W21450   7.660   2.750   2.902 -0.0384  0.1763  0.1467
 5267W        W21451  17.764  16.415   1.094 -0.2867 -0.2554  0.0068
 5268W        W21452  17.882  12.245  15.228 -0.1980  0.2300 -0.0587
 5269W        W21453  10.690  14.176   4.023 -0.2661  0.1633  0.1211
 5270W        W21454   6.907   5.023   1.246  0.2852  0.0772 -0.0117
 5271W        W21455   5.004   8.490   5.805 -0.2259  0.1963  0.2612
 5272W        W21456   6.747   5.058  12.882  0.1107  0.1852 -0.1691
 5273W        W21457   4.225  15.276  16.493  0.2650  0.1987  0.2138
 5274W        W21458  17.349   3.618  15.421  0.3773  0.0770  0.2443
 5275W        W21459   6.071   9.023  16.430 -0.1730 -0.2728  0.1341
 5276W        W21460   3.503   6.913   1.746  0.1356  0.0147  0.2896
 5277W        W21461  11.888  14.936   1.348 -0.0705  0.1161 -0.0024
 5278W        W21462   8.990   0.811   3.229 -0.0947  0.4736 -0.0116
 5279W        W21463  11.258  12.144   3.170  0.4997 -0.1137 -0.0157
 5280W        W21464   5.057   5.198  14.129  0.3506 -0.0418  0.1654
 5281W        W21465   1.578  15.631   6.239  0.4720 -0.0100  0.2946
 5282W        W21466   5.302   5.728   1.272 -0.0073 -0.0467 -0.0644
 5283W        W21467  12.794   9.588   4.803 -0.0873 -0.0089 -0.1072
 5284W        W21468  10.607  12.398  16.653 -0.0774  0.2610 -0.1914
 5285W        W21469   6.056  15.805   2.192  0.1796 -0.2013 -0.1862
 5286W        W21470   1.132  15.111  12.843 -0.0453 -0.0144  0.3124
 5287W        W21471   7.767   5.112   0.552 -0.3687 -0.3220 -0.1021
 5288W        W21472  17.404  14.980   2.282  0.0377  0.1922 -0.1955
 5289W        W21473   6.993  17.369   1.026 -0.1435  0.1539  0.1738
 5290W        W21474   0.801  17.820   4.984  0.1514  0.0607  0.3193
 5291W        W21475   7.071   4.329  12.212  0.2355 -0.3028 -0.1616
 5292W        W21476  16.336  11.275   0.427  0.0952  0.0214  0.1887
 5293W        W21477   9.320   8.786   4.898 -0.1095  0.1251  0.0533
 5294W        W21478   2.956  16.812   1.125  0.1359 -0.0031 -0.2369
 5295W        W21479   5.064  12.451   4.565  0.0609 -0.1513  0.0889
 5296W        W21480   5.814  11.712  12.946  0.0453  0.0825 -0.0550
 5297W        W21481   4.674   1.885   0.608 -0.2429  0.2670 -0.1640
 5298W        W21482  15.441   7.891  12.949  0.2219 -0.1163  0.1642
 5299W        W21483  10.603   6.738   1.746 -0.0931  0.0471 -0.0776
 5300W        W21484   8.496   7.756   0.956  0.1921 -0.2647 -0.3398
 5301W        W21485   0.584   3.971   3.784  0.2745  0.0223  0.2006
 5302W        W21486  15.061  14.404  11.395  0.5501 -0.0205  0.1823
 5303W        W21487  12.231  11.857   4.378  0.1566 -0.0118  0.1060
 5304W        W21488   5.158  13.851  16.114  0.1135  0.0710 -0.2083
 5305W        W21489   3.571  16.892  15.248 -0.0522 -0.1727 -0.1741
 5306W        W21490   9.501  11.559  11.653 -0.3366 -0.3039 -0.0783
 5307W        W21491   9.734  12.014   4.953  0.1502  0.1816  0.1278
 5308W        W21492  14.523   8.594   6.671  0.0476 -0.0443 -0.2392
 5309W        W21493  10.361   1.552  16.343 -0.2113 -0.1217 -0.1142
 5310W        W21494  13.626   4.481   5.505 -0.0211 -0.2360 -0.0200
 5311W        W21495   9.747   6.959  15.568  0.2189 -0.3403 -0.0992
 5312W        W21496   4.631   3.773   5.279  0.0765 -0.0545  0.0137
 5313W        W21497   3.894  12.094   5.574 -0.1742  0.2314 -0.1477
 5314W        W21498   7.372  10.946   5.360  0.0241  0.1795 -0.0151
 5315W        W21499   7.886   6.651  12.939 -0.1714 -0.1076 -0.0224
 5316W        W21500  17.044   1.286   1.778  0.0528  0.4512 -0.1313
 5317W        W21501  17.338  17.671  14.314  0.0152 -0.1846 -0.1980
 5318W        W21502  15.031   3.645   1.731 -0.0419  0.2389  0.2993
 5319W        W21503   6.342   8.985   1.999 -0.1184 -0.2327 -0.0837
 5320W        W21504   4.545   2.809   4.059  0.0988 -0.2308 -0.1707
 5321W        W21505   7.153   9.190   0.763  0.2128 -0.1132 -0.1235
 5322W        W21506   5.509  12.727   3.196  0.3646 -0.0285 -0.0650
 5323W        W21507  17.496   4.327  12.810 -0.3954  0.1236 -0.1428
 5324W        W21508   8.804  13.679  15.447  0.4985 -0.0812 -0.0691
 5325W        W21509   0.220   9.569   4.953 -0.0075 -0.0932 -0.0786
 5326W        W21510  15.089  11.397   4.265 -0.0510  0.2418 -0.0387
 5327W        W21511   3.335   4.488  15.881 -0.0017 -0.1372 -0.0906
 5328W        W21512  12.102   4.988  13.576 -0.1519 -0.2264  0.2689
 5329W        W21513   8.185  13.462   5.505  0.1800  0.0418 -0.0293
 5330W        W21514   7.414  10.128   2.568 -0.1540  0.1870 -0.0901
 5331W        W21515  13.318  15.547  14.590  0.2379  0.1136 -0.1544
 5332W        W21516  11.557  13.616   5.436 -0.3621 -0.2172  0.0276
 5333W        W21517   9.435  10.825  11.630  0.2744 -0.0914  0.1220
 5334W        W21518   3.564   8.750   1.794  0.1918  0.0698  0.0431
 5335W        W21519  16.267  13.567   4.916  0.1119  0.1916  0.5105
 5336W        W21520  15.772  10.196  11.289 -0.3437 -0.0616 -0.3039
 5337W        W21521   7.244   0.821   5.854  0.3171  0.0861  0.0089
 5338W        W21522  11.179   9.166   2.593 -0.0784  0.3846  0.2529
 5339W        W21523   0.525   3.570  13.824 -0.0539 -0.3256 -0.0823
 5340W        W21524   6.433   7.433   5.638 -0.2710  0.3166 -0.1492
 5341W        W21525   1.013   3.787   3.731 -0.1226  0.0788  0.1142
 5342W        W21526  10.225  12.553  11.460  0.2086 -0.1211 -0.1637
 5343W        W21527   2.008  16.306   5.563  0.1440  0.0151 -0.0344
 5344W        W21528   7.754  14.571  16.231  0.1083 -0.1870  0.0787
 5345W        W21529   0.297  11.459   3.872 -0.1480  0.0059 -0.0536
 5346W        W21530   7.050   5.739  14.928  0.2144  0.0888 -0.1084
 5347W        W21531  11.558   2.307   1.885 -0.0255 -0.2156  0.0617
 5348W        W21532   9.719  15.054   2.870 -0.0989 -0.0240 -0.2869
 5349W        W21533   0.273   2.112   1.190 -0.1911 -0.0176  0.0110
 5350W        W21534  12.874  10.153   4.928  0.1118  0.0376  0.1131
 5351W        W21535  15.292   9.680   1.381  0.2137 -0.0682  0.1352
 5352W        W21536   8.884   9.102  13.262  0.0077  0.1696 -0.2009
 5353W        W21537   3.440  12.021   5.894 -0.1320 -0.2400 -0.0442
 5354W        W21538  10.470   4.297   4.441 -0.0604  0.0797  0.1144
 5355W        W21539   2.408  16.655   4.733  0.0655  0.1116  0.1078
 5356W        W21540   5.162   9.391  12.376 -0.2117  0.0241  0.1741
 5357W        W21541  12.133  16.230   2.897  0.0259 -0.0295  0.0793
 5358W        W21542  10.947  13.695   1.146 -0.0305 -0.1599 -0.0618
 5359W        W21543   1.070  15.166  11.531 -0.2408 -0.0832  0.1073
 5360W        W21544  16.031   1.926   1.181  0.1659 -0.0321 -0.2225
 5361W        W21545  15.795   0.327  12.623 -0.0518  0.1060  0.2219
 5362W        W21546  12.515  11.297   0.945  0.0562  0.3146 -0.0470
 5363W        W21547   0.538   2.239  13.381 -0.2339  0.0988 -0.1419
 5364W        W21548  15.215   6.428  15.760  0.2786 -0.1224  0.1915
 5365W        W21549   9.039   6.515   0.039 -0.2501 -0.1792  0.0768
 5366W        W21550   9.633  15.439  12.106 -0.2404  0.0197  0.2930
 5367W        W21551   2.681   5.335  14.137  0.2487  0.0716 -0.0085
 5368W        W21552  12.580   4.129  13.258 -0.1733 -0.0341 -0.1133
 5369W        W21553   5.651  14.618   5.473  0.2438  0.0298 -0.3654
 5370W        W21554   2.229   2.793  15.098  0.1220  0.0355 -0.4270
 5371W        W21555   3.169   5.829  16.384  0.0485  0.0067 -0.0863
 5372W        W21556   5.106   5.318   0.941  0.3946  0.1644  0.5120
 5373W        W21557  15.953   3.455   1.229  0.1886  0.0538 -0.0052
 5374W        W21558   4.314   5.983   5.825  0.2489  0.1646  0.0590
 5375W        W21559  15.905  17.648   4.308  0.0885  0.2561 -0.2260
 5376W        W21560   2.917   5.014   2.760  0.2587 -0.2647  0.3128
 5377W        W21561   4.996   2.189   2.282 -0.0543 -0.0335  0.2838
 5378W        W21562   0.126   2.164   3.536 -0.1022 -0.2191 -0.0943
 5379W        W21563   9.577   1.577   5.459 -0.1342  0.1263 -0.1122
 5380W        W21564   3.230   1.796  14.731 -0.2300 -0.3200  0.0713
 5381W        W21565   4.060  17.301  12.536  0.1861 -0.0170  0.1741
 5382W        W21566  10.191  15.879  16.459 -0.1730  0.0693  0.0291
 5383W        W21567   6.171  17.443  10.420  0.1932  0.0133 -0.0258
 5384W        W21568  10.865  14.554   5.339 -0.0067  0.1646 -0.0367
 5385W        W21569  15.361  11.648   0.045  0.0913  0.2166  0.0143
 5386W        W21570  14.087   6.210  14.512  0.1611  0.3548  0.2036
 5387W        W21571   4.873   6.450   2.543 -0.1101 -0.0693  0.0948
 5388W        W21572   7.554   7.063  15.487 -0.1120  0.1210 -0.1550
 5389W        W21573   8.441   7.780   1.504  0.1032 -0.0770  0.2659
 5390W        W21574   1.600   0.111   2.641 -0.1003 -0.2098 -0.3557
 5391W        W21575   9.478  11.759  10.355  0.0604  0.1958 -0.1589
 5392W        W21576  10.611   4.379   2.593 -0.0553 -0.4724 -0.0727
 5393W        W21577  15.477   4.921  14.423 -0.0659  0.3499  0.0270
 5394W        W21578  15.888   4.187   5.843 -0.0482  0.1241 -0.2219
 5395W        W21579   9.248   3.935  16.533  0.0055 -0.0735  0.0390
 5396W        W21580  13.587   3.978   5.583  0.0318 -0.1086 -0.1036
 5397W        W21581  10.861   3.054   3.477 -0.1028 -0.0483 -0.1365
 5398W        W21582  13.263  10.209   5.377  0.0243 -0.3679  0.2747
 5399W        W21583   2.029   3.289  13.575 -0.0804 -0.1702  0.0598
 5400W        W21584  11.982   9.510  14.836  0.3426  0.0510  0.1215
 5401W        W21585  14.750   5.335   1.973  0.1043 -0.0310  0.0266
 5402W        W21586   3.204  12.006  16.772  0.1431  0.0346  0.1015
 5403W        W21587  12.318   3.727   2.169 -0.1669 -0.0589  0.1347
 5404W        W21588  15.665  11.660   1.588 -0.1047  0.1460  0.0288
 5405W        W21589  11.778   0.057   2.428 -0.0295 -0.1999  0.1862
 5406W        W21590   6.076   5.306  15.579  0.0665  0.0207 -0.0295
 5407W        W21591  17.143  14.630   1.764 -0.0169 -0.3231 -0.0312
 5408W        W21592  14.617   0.935   3.323  0.0415  0.2907  0.0927
 5409W        W21593   9.972  13.735  16.545  0.0432 -0.0679 -0.0940
 5410W        W21594  11.208   3.533  13.225  0.0515  0.4696  0.2796
 5411W        W21595  12.953   5.828   5.257 -0.0079  0.0376  0.0290
 5412W        W21596   1.217   3.546  16.325  0.2056  0.3497  0.2815
 5413W        W21597  16.609   8.871  12.788 -0.3572 -0.3565  0.0130
 5414W        W21598   3.533   9.461  13.157 -0.1594  0.1322  0.1747
 5415W        W21599  15.887   5.036   3.964 -0.0540  0.2243  0.2808
 5416W        W21600   0.596   1.521   3.023 -0.0776  0.1944 -0.2116
 5417W        W21601   3.594   2.026  14.321 -0.2374 -0.0353 -0.1766
 5418W        W21602   9.843   6.188   1.566  0.1981 -0.0848 -0.2128
 5419W        W21603  16.476  10.801  15.817 -0.0055 -0.3869  0.1659
 5420W        W21604   0.128   5.744  16.225 -0.2420 -0.0239 -0.1354
 5421W        W21605   9.385   7.877  14.430  0.0776  0.2214  0.4017
 5422W        W21606   7.955  17.699  15.408  0.0581  0.0774 -0.0076
 5423W        W21607  15.484   8.276   5.093  0.0427  0.0864 -0.0826
 5424W        W21608  15.309  12.836   3.759  0.1078 -0.1392  0.1951
 5425W        W21609   0.072  12.943   1.337  0.1628  0.2496 -0.2174
 5426W        W21610  12.081  15.423   1.096 -0.0284  0.0945  0.2620
 5427W        W21611   3.697   3.675   4.147  0.3471 -0.0976  0.1151
 5428W        W21612  15.850   7.867  15.196  0.2038  0.3345 -0.0342
 5429W        W21613   2.768   5.566  12.022 -0.0476 -0.0448  0.1425
 5430W        W21614  12.597   1.706  16.119 -0.0477 -0.1728  0.0163
 5431W        W21615   8.383  14.801  16.863 -0.0796 -0.0012  0.2099
 5432W        W21616   6.312  13.374   0.728 -0.0304  0.1155  0.2172
 5433W        W21617  14.151  17.506  16.600 -0.2080 -0.0925 -0.0982
 5434W        W21618   4.826   2.244  12.847 -0.2511 -0.1306 -0.0732
 5435W        W21619   9.058   0.927   4.026  0.0636 -0.0278 -0.1863
 5436W        W21620   9.211  14.544   3.473 -0.0880  0.0220  0.1425
 5437W        W21621  15.110  15.212  15.630 -0.1290 -0.0426  0.0202
 5438W        W21622   7.885  11.602  15.583  0.2629  0.1098  0.4528
 5439W        W21623   9.227  17.232  15.220 -0.1770 -0.0777  0.1052
 5440W        W21624   1.669   8.029   5.852  0.0999  0.0460 -0.1015
 5441W        W21625  11.142   3.133   3.023 -0.0010 -0.1425  0.0792
 5442W        W21626  11.499   3.420   1.918  0.0431 -0.1482  0.2485
 5443W        W21627   1.225  13.747  15.834 -0.3363  0.0219  0.1445
 5444W        W21628   3.949   6.623   1.948 -0.0786 -0.1584  0.0799
 5445W        W21629  17.872  11.800   0.539  0.1262 -0.0987 -0.2577
 5446W        W21630  11.289   8.025  13.451 -0.2373  0.0554  0.2928
 5447W        W21631   4.705   9.013   5.173 -0.1275 -0.5018  0.2856
 5448W        W21632  15.123  13.956  11.635  0.0994 -0.3110  0.0305
 5449W        W21633  17.372   4.085  15.524 -0.1037 -0.1849  0.2076
 5450W        W21634   3.352  13.193  12.855 -0.2288 -0.0018  0.2595
 5451W        W21635   2.834   5.175   3.701 -0.1554  0.0720  0.0624
 5452W        W21636   4.768   3.484  12.705 -0.0336 -0.2674 -0.2627
 5453W        W21637   5.103  13.370   3.642 -0.0824  0.0102  0.0397
 5454W        W21638  13.809   1.566  14.776  0.0066 -0.1495  0.3033
 5455W        W21639   6.148  10.494  12.887 -0.1096 -0.1240  0.0398
 5456W        W21640  17.128   8.285  13.392 -0.2987 -0.0531 -0.3088
 5457W        W21641   8.240  11.008   2.389 -0.4148 -0.2115  0.1581
 5458W        W21642   4.434   8.818  16.878  0.0064 -0.0702 -0.2734
 5459W        W21643   3.349   4.197   1.495  0.1840  0.1716  0.2113
 5460W        W21644  15.739  11.272   1.125  0.0004  0.5085  0.0294
 5461W        W21645   1.095   0.576  13.304  0.0560  0.0970 -0.2135
 5462W        W21646  14.591  15.709  16.106 -0.0013 -0.2541  0.1255
 5463W        W21647  15.773  15.227  14.121 -0.3881  0.1667  0.1799
 5464W        W21648   0.277   6.269   5.604  0.2164  0.2395 -0.1550
 5465W        W21649   6.827   9.835  16.582  0.1870 -0.1057 -0.2188
 5466W        W21650   2.416   8.828   2.903 -0.2539  0.2485  0.1991
 5467W        W21651   3.485  15.772   2.197  0.1395 -0.0935  0.1408
 5468W        W21652  15.248   1.709  16.877  0.2576 -0.1114  0.0833
 5469W        W21653  10.107   7.690   3.961 -0.0690 -0.2562  0.1248
 5470W        W21654  14.809   9.644   3.011 -0.0849 -0.1627 -0.2144
 5471W        W21655   4.259  12.694   4.982  0.0850  0.0861 -0.2230
 5472W        W21656   0.518   3.326   1.634  0.0245  0.2336  0.2805
 5473W        W21657   3.604   2.231   2.786  0.0065  0.2746  0.0314
 5474W        W21658   6.617   3.441  14.838  0.1149 -0.1119 -0.2737
 5475W        W21659   6.754   1.342   0.581 -0.0025 -0.1680 -0.1487
 5476W        W21660  17.580  15.107  11.601  0.3594 -0.1675 -0.0186
 5477W        W21661   9.716   8.166   2.180  0.2295  0.1340  0.0990
 5478W        W21662  14.842  13.204   0.272  0.0271 -0.0567 -0.3486
 5479W        W21663  13.104   8.879   1.001 -0.0635  0.2641  0.0567
 5480W        W21664   8.335   8.009   5.459 -0.2235  0.4344  0.0785
 5481W        W21665   6.802   3.719   2.161  0.1995 -0.3513  0.3729
 5482W        W21666   2.239   7.678   3.038  0.2922  0.4189 -0.0181
 5483W        W21667   7.777  15.958   3.591  0.0942  0.1541  0.0501
 5484W        W21668  10.455  10.411   1.932 -0.1572 -0.0360 -0.1570
 5485W        W21669  16.769   0.086  11.606  0.0442  0.1678  0.0651
 5486W        W21670   5.515   6.969  14.156  0.0874 -0.0107 -0.2147
 5487W        W21671   5.730  15.444   3.956  0.2272 -0.2636 -0.3142
 5488W        W21672  17.511   7.663   3.100 -0.0315  0.0524 -0.1243
 5489W        W21673  13.877   8.556   3.532  0.0305  0.0023 -0.0893
 5490W        W21674   0.975  12.228   1.800  0.1889  0.0948 -0.4654
 5491W        W21675   8.189   8.031  13.001 -0.2452 -0.0544 -0.0332
 5492W        W21676  11.702  11.138   4.503  0.1476  0.1033 -0.0355
 5493W        W21677  12.008   8.048  14.080  0.3638  0.2920  0.0268
 5494W        W21678  15.853   8.627   0.762  0.1744 -0.0137 -0.2303
 5495W        W21679   8.356   2.943  12.759 -0.0502 -0.1127 -0.2394
 5496W        W21680   5.738   4.155  12.357  0.0548  0.0741 -0.0092
 5497W        W21681   8.684  13.005  11.420  0.2120 -0.0885 -0.1892
 5498W        W21682   7.079   0.481   1.888 -0.1412  0.0184  0.0088
 5499W        W21683  12.807  12.529   4.782  0.2004  0.1488 -0.1174
 5500W        W21684   0.767  17.379   5.226 -0.2018 -0.0169  0.0531
 5501W        W21685   6.753   2.426  15.098 -0.1469 -0.1307  0.1523
 5502W        W21686   5.299   2.119   4.697  0.3047  0.1757  0.1425
 5503W        W21687   7.378  17.834   5.425 -0.1738  0.1542  0.0670
 5504W        W21688  12.137   6.152  15.085 -0.1897 -0.0566 -0.1107
 5505W        W21689   3.818   4.427  13.231 -0.0421 -0.1354 -0.0985
 5506W        W21690   8.992   6.957  12.267 -0.2761  0.0067  0.0052
 5507W        W21691  13.278  14.131  12.391  0.2704  0.4165 -0.0282
 5508W        W21692   4.357   6.623  15.154 -0.0292 -0.1039  0.1195
 5509W        W21693   9.231  11.404  13.737  0.1543  0.0696  0.1904
 5510W        W21694   1.108  17.668   1.546 -0.2242  0.0616  0.1798
 5511W        W21695   7.825  14.545   3.465 -0.0156 -0.0300 -0.0010
 5512W        W21696   1.164   5.764  12.151 -0.0449  0.2141 -0.1292
 5513W        W21697  11.520   8.331  13.095 -0.0127 -0.2282  0.0528
 5514W        W21698  10.630   2.721   1.844 -0.2031 -0.0097  0.3152
 5515W        W21699   5.312  16.071   0.987  0.0567 -0.1542 -0.1087
 5516W        W21700   6.679  10.891   3.063 -0.0626 -0.1794  0.3477
 5517W        W21701   9.012   9.510   0.114  0.0671  0.1488  0.0910
 5518W        W21702  13.600   4.851   4.644 -0.0950 -0.0775 -0.0156
 5519W        W21703  14.087  14.017  15.924  0.1700 -0.1607  0.0165
 5520W        W21704   2.245   6.516  12.517 -0.0962 -0.3249  0.0972
 5521W        W21705   7.401   9.029  12.511  0.0724  0.0178 -0.2620
 5522W        W21706  12.913   1.365   3.973 -0.0388 -0.0401 -0.1248
 5523W        W21707   1.122   1.805   0.610 -0.0490  0.0707 -0.2729
 5524W        W21708   7.769  14.689  14.365  0.0644  0.1493 -0.7746
 5525W        W21709  15.940  16.067  16.420  0.1852 -0.1376 -0.2138
 5526W        W21710  16.093   0.690   3.600 -0.0113  0.2319 -0.0566
 5527W        W21711   3.755  14.683  14.751  0.2494 -0.1519 -0.2362
 5528W        W21712  10.834  13.818  14.809 -0.0604 -0.0663 -0.1713
 5529W        W21713   7.141   9.510  14.610 -0.1121 -0.0342  0.2823
 5530W        W21714   9.114   7.269   2.890  0.0095 -0.1468 -0.0773
 5531W        W21715   5.615   0.447  12.541 -0.0397 -0.0657  0.0574
 5532W        W21716  14.835   4.625  15.013 -0.1123  0.1437  0.0175
 5533W        W21717  13.524  12.480   1.466  0.0089 -0.0979 -0.0457
 5534W        W21718   1.148   3.610  11.284 -0.0969 -0.2606  0.2929
 5535W        W21719   9.827   3.197   4.996  0.2217  0.1111 -0.2864
 5536W        W21720  11.186   0.741  11.665 -0.3629  0.0491 -0.1915
 5537W        W21721  12.375  13.089   2.808 -0.1795 -0.1206  0.1300
 5538W        W21722  11.556   2.358  15.905 -0.1294 -0.2360  0.1456
 5539W        W21723  13.953  12.985   3.815  0.0367  0.3756  0.3215
 5540W        W21724   1.583   1.961   2.381  0.1581 -0.3094  0.0943
 5541W        W21725  12.373  16.844  13.170  0.0522 -0.1295  0.0045
 5542W        W21726  17.201  13.952   4.646  0.2662  0.0548 -0.2290
 5543W        W21727   5.547  15.350  15.150 -0.0298  0.1534 -0.1530
 5544W        W21728  15.967  11.251   5.467 -0.0613 -0.0652  0.0465
 5545W        W21729   1.831  13.712   0.960  0.1431  0.0661 -0.0450
 5546W        W21730   5.775  12.003   4.004  0.1867  0.1622  0.4337
 5547W        W21731  16.117   5.666  15.839  0.2608 -0.1277 -0.0732
 5548W        W21732   6.943  14.680   1.009 -0.0883 -0.0164 -0.0033
 5549W        W21733   5.067  14.944  13.202  0.1465 -0.0457  0.4312
 5550W        W21734   4.673   4.252   3.029 -0.0696  0.3036 -0.1521
 5551W        W21735   2.412   1.896   0.195  0.2009  0.0256  0.0003
 5552W        W21736   2.559   8.637  15.515 -0.0357 -0.1383 -0.1289
 5553W        W21737   2.270  12.000   4.051 -0.3115  0.2454 -0.4918
 5554W        W21738  13.536  10.641  13.803 -0.2502 -0.0655 -0.0775
 5555W        W21739  14.719   8.908   6.053  0.0066  0.2227  0.1399
 5556W        W21740  14.785   1.920  13.231 -0.1003  0.0878  0.1130
 5557W        W21741  15.791  12.307  12.940 -0.1787 -0.0849 -0.1529
 5558W        W21742   4.264  14.235  12.010  0.0169 -0.4742 -0.0736
 5559W        W21743  16.731  17.721  16.375 -0.0375  0.3326  0.0836
 5560W        W21744   9.174   9.779   4.926  0.1359 -0.2198  0.2839
 5561W        W21745   6.630   7.730   0.081  0.0712 -0.2980 -0.0273
 5562W        W21746   7.206   2.201  15.324  0.1017 -0.0615 -0.1907
 5563W        W21747   9.742  16.902  16.023  0.0962  0.0647  0.1524
 5564W        W21748  16.113   9.516   0.877  0.1321  0.1035 -0.1350
 5565W        W21749   7.952   6.097   4.465 -0.2186  0.0047 -0.1400
 5566W        W21750   8.850  16.727  13.452 -0.0249  0.0342  0.1072
 5567W        W21751   3.425   3.177   0.760  0.1681 -0.0707 -0.1834
 5568W        W21752  15.095  16.285   3.420  0.1133 -0.2185 -0.0302
 5569W        W21753  15.165   9.578  14.861  0.1107  0.0902 -0.0523
 5570W        W21754  16.156   1.561  15.532  0.0204 -0.0133 -0.1665
 5571W        W21755  10.335   1.964   4.276  0.3745  0.0124  0.0749
 5572W        W21756  11.946  12.037   0.379 -0.3389 -0.3201 -0.1312
 5573W        W21757   4.175  15.494   1.011 -0.1688 -0.1575 -0.3017
 5574W        W21758  12.394   1.284  16.359 -0.0382  0.0945 -0.3777
 5575W        W21759  12.838   2.855  15.059  0.0902 -0.3158  0.3600
 5576W        W21760   1.920  17.458  12.291 -0.1492 -0.1402 -0.0713
 5577W        W21761   4.130  14.355   6.215  0.0294 -0.1027 -0.3257
 5578W        W21762  11.348   8.520   4.020 -0.0472 -0.4201  0.0782
 5579W        W21763   0.968   3.139  13.192 -0.1496  0.0763  0.1307
 5580W        W21764   5.935  17.795   0.657  0.2769  0.1395  0.0929
 5581W        W21765  12.627   0.071  15.548  0.2129 -0.0924  0.1281
 5582W        W21766   1.565  13.945  11.552 -0.1653 -0.0676 -0.1954
 5583W        W21767  16.462   0.308  15.092  0.0382  0.1627 -0.2121
 5584W        W21768   3.557  14.984   5.721  0.1538 -0.1480  0.0770
 5585W        W21769  16.443   0.125   5.632 -0.0571 -0.0138  0.1397
 5586W        W21770  10.182   5.957   0.361 -0.2667  0.1189 -0.0278
 5587W        W21771  12.741   8.180  13.525  0.0762  0.2450  0.0365
 5588W        W21772  12.936  12.873  15.126 -0.1780 -0.1542  0.0330
 5589W        W21773  11.477   2.298   4.848  0.1063 -0.0796 -0.2788
 5590W        W21774   3.132  14.499   4.348  0.2628 -0.2539 -0.3169
 5591W        W21775   6.192   9.930  12.460  0.0168  0.1705  0.0100
 5592W        W21776   0.770  14.811   2.792 -0.2944  0.1647 -0.0272
 5593W        W21777  15.682   5.969  15.786  0.0122 -0.0585  0.0793
 5594W        W21778   9.834  13.625   2.119  0.2333  0.0589  0.0162
 5595W        W21779   8.566   6.432  12.840 -0.0001 -0.3142  0.0588
 5596W        W21780   3.592   0.467   5.317  0.0085  0.1478 -0.2429
 5597W        W21781   3.433   1.244   0.371  0.0808  0.1165 -0.0685
 5598W        W21782   7.532   8.046  16.910 -0.0641  0.4430  0.3700
 5599W        W21783  14.297   7.907   3.076  0.2826 -0.1327 -0.1636
 5600W        W21784  10.001   3.401  13.031 -0.0296  0.0747 -0.0074
 5601W        W21785   5.586   9.368   3.750 -0.2388 -0.0958  0.0862
 5602W        W21786  16.456  12.520  12.319  0.0330 -0.0529  0.1802
 5603W        W21787  15.072   3.977   3.069 -0.4907 -0.0307 -0.0202
 5604W        W21788  11.696  13.179   5.148  0.0486  0.1131  0.1192
 5605W        W21789   8.612  15.192   3.798  0.3896 -0.0098  0.2906
 5606W        W21790  17.578  11.420   1.224 -0.0835 -0.1854  0.0302
 5607W        W21791  16.699   6.767  15.361  0.2972  0.1575 -0.0961
 5608W        W21792  16.504  11.220  11.962  0.2256  0.1932 -0.2089
 5609W        W21793  11.309   3.886  14.255 -0.1252  0.1175  0.0870
 5610W        W21794   8.675  17.304  14.832  0.3578  0.0873  0.1013
 5611W        W21795  13.987   6.582   4.798  0.2647 -0.0587 -0.0106
 5612W        W21796  16.422   2.675  15.828  0.0205 -0.0886  0.2608
 5613W        W21797   4.822   7.923   3.452 -0.0781 -0.1511  0.0788
 5614W        W21798   7.155   7.218   4.643  0.0486  0.0801  0.0375
 5615W        W21799   1.142   3.399   5.224 -0.0813  0.0774 -0.0436
 5616W        W21800  12.311   6.435  15.512 -0.4600  0.2301  0.0291
 5617W        W21801   8.676  11.964   3.239 -0.0090 -0.0200  0.0212
 5618W        W21802  11.370  14.773   5.642 -0.2835  0.1384 -0.0822
 5619W        W21803  15.567   9.897   4.354 -0.4323 -0.1038  0.0870
 5620W        W21804  13.852   8.436  12.683  0.0924  0.1510 -0.0904
 5621W        W21805  13.017  10.863   5.933 -0.0047 -0.0308  0.1691
 5622W        W21806   0.125  10.810   4.586 -0.1296  0.3447  0.0516
 5623W        W21807   3.149  14.774   5.591  0.3516 -0.1528  0.2520
 5624W        W21808  16.694  13.418   2.718  0.2096 -0.2965 -0.2839
 5625W        W21809   7.541  17.190   4.714 -0.0802 -0.2602 -0.0995
 5626W        W21810  16.067   1.984   3.639 -0.0873 -0.0193  0.1624
 5627W        W21811  10.805   1.276   3.783  0.0549 -0.0313  0.0351
 5628W        W21812   1.000  14.166  14.329  0.0244 -0.0483  0.1036
 5629W        W21813  17.238  15.698  11.833 -0.0098  0.1997  0.0441
 5630W        W21814  13.762  10.934  11.735  0.3303  0.1852 -0.1682
 5631W        W21815   6.956  10.559   2.156 -0.2180 -0.2461  0.0520
 5632W        W21816   4.715  17.008   4.456  0.2810  0.0602  0.1253
 5633W        W21817   9.293   1.759   4.174  0.1325  0.0955  0.1019
 5634W        W21818   2.401  10.240   0.708 -0.3000 -0.3975 -0.3390
 5635W        W21819   9.062   2.611   1.156 -0.1732 -0.0797  0.0597
 5636W        W21820  15.603   7.108   1.471  0.3306 -0.1771  0.1355
 5637W        W21821   1.552   5.262   2.511 -0.2121  0.1648 -0.2103
 5638W        W21822   4.496   3.696   3.168 -0.4064 -0.2794  0.1914
 5639W        W21823   8.986   3.298   3.289 -0.0765  0.1704 -0.3237
 5640W        W21824   9.758  17.335  15.126 -0.0093  0.0313  0.0781
 5641W        W21825   9.025  13.385  16.388 -0.0067  0.1980  0.2648
 5642W        W21826   7.184  15.072  13.607 -0.1380 -0.0430 -0.0131
 5643W        W21827  11.828  17.357   0.853  0.3482 -0.0951  0.1144
 5644W        W21828   0.035  16.689  13.821  0.0064 -0.2028  0.1182
 5645W        W21829   5.110   9.389  12.924 -0.0398 -0.3109  0.0683
 5646W        W21830  14.499   0.880  14.590 -0.0591 -0.0280  0.1944
 5647W        W21831  17.806   9.548  16.899 -0.3130 -0.1695 -0.0162
 5648W        W21832   0.702  13.506   2.351 -0.2180 -0.4928  0.2406
 5649W        W21833  16.562  15.856  13.608 -0.1913  0.0766 -0.2206
 5650W        W21834   9.637  11.152  12.952  0.1225  0.1724  0.1921
 5651W        W21835   3.974   0.007  11.898 -0.0103  0.0617  0.1390
 5652W        W21836   9.065  13.685  12.500  0.2327  0.3237  0.1462
 5653W        W21837   8.916  17.623  16.054  0.0860  0.1856 -0.1182
 5654W        W21838  10.636   8.671  15.061 -0.2562 -0.0273 -0.2552
 5655W        W21839   3.719  15.838  12.676 -0.0944 -0.1198  0.2108
 5656W        W21840   3.625   4.224  11.992  0.3710  0.0910 -0.0129
 5657W        W21841  11.777  15.844   2.718  0.2894 -0.2228 -0.0228
 5658W        W21842  12.335   1.786  13.211 -0.1555 -0.1014  0.1475
 5659W        W21843  14.201   2.244   1.450  0.0025  0.1628  0.0668
 5660W        W21844   4.839  13.445  16.203  0.1019  0.2192 -0.0852
 5661W        W21845   8.868  12.031   4.098 -0.0148 -0.2405 -0.1432
 5662W        W21846  16.292  14.759  15.796  0.4581  0.1320 -0.1386
 5663W        W21847   6.573  12.258  12.772 -0.0471  0.2815  0.0046
 5664W        W21848  16.470  13.029   0.175 -0.3367 -0.0891  0.0229
 5665W        W21849  16.923   4.926  12.042  0.2073 -0.1244 -0.1220
 5666W        W21850   3.414   4.635  14.242  0.0997  0.2843  0.0557
 5667W        W21851  15.307   5.921  11.755  0.2586 -0.0589  0.1181
 5668W        W21852   0.199   3.019  12.534  0.1290 -0.0317  0.0553
 5669W        W21853   8.680  15.941  15.188 -0.1457  0.2987 -0.1562
 5670W        W21854   8.916   2.821  13.051  0.1268 -0.1119  0.3513
 5671W        W21855   8.484  14.200  12.683 -0.0810 -0.0445 -0.1296
 5672W        W21856   6.009  10.345  16.415  0.1137  0.1586  0.3406
 5673W        W21857   7.102  15.432   0.524  0.0838  0.0918  0.1272
 5674W        W21858  12.854  15.040   5.250 -0.3424  0.1274 -0.0777
 5675W        W21859   0.980   0.552  16.226  0.0914  0.1977 -0.3508
 5676W        W21860   4.647  15.529  13.711 -0.1406  0.0526  0.1973
 5677W        W21861  13.208  15.930  15.977  0.0284  0.2819  0.0180
 5678W        W21862  16.142   6.089  11.371  0.0727  0.1699  0.0822
 5679W        W21863  15.382   4.928   4.045 -0.0941  0.3738  0.2980
 5680W        W21864  16.449  14.901   1.762  0.0204 -0.0732 -0.1977
 5681W        W21865   4.761   6.963   3.266  0.0205 -0.2163 -0.0294
 5682W        W21866   0.600   6.819  16.135  0.3219 -0.1822 -0.0673
 5683W        W21867  10.421   5.032   0.148 -0.1481  0.0124  0.1792
 5684W        W21868   9.198  15.172   2.865 -0.1175 -0.0500  0.4353
 5685W        W21869   4.849   2.073   4.483 -0.0331 -0.5197  0.1401
 5686W        W21870   9.865   7.275   0.137 -0.1856  0.0353  0.1222
 5687W        W21871   7.538   3.731   3.022 -0.2491 -0.2312 -0.2211
 5688W        W21872  14.071   4.565   0.965  0.2720 -0.0454 -0.1208
 5689W        W21873   1.498   8.197   4.050 -0.2025  0.0449  0.2982
 5690W        W21874  13.200  12.844   3.566  0.2596 -0.2019  0.3308
 5691W        W21875  13.426  10.291  15.804  0.3159  0.3699  0.2266
 5692W        W21876  17.608   2.851   5.207  0.5997  0.1041 -0.0606
 5693W        W21877  13.394   8.351  15.316  0.1358 -0.0702  0.5141
 5694W        W21878   7.867   3.421   1.895  0.1802 -0.3236 -0.1562
 5695W        W21879  10.666   7.400  16.348  0.1730 -0.0245 -0.2919
 5696W        W21880   8.961   2.830   5.564  0.0158 -0.0800  0.1183
 5697W        W21881  10.183  11.258   5.170 -0.2058  0.0162  0.0302
 5698W        W21882  17.003   0.795   1.634 -0.3111  0.2070 -0.0967
 5699W        W21883  15.817   5.336   4.876  0.1528  0.1301  0.6575
 5700W        W21884  10.644  12.109  14.136 -0.0901 -0.1616 -0.1156
 5701W        W21885  17.448   9.764  14.395  0.2284  0.1361  0.2340
 5702W        W21886  14.477  17.426   4.191  0.3992  0.0907 -0.0134
 5703W        W21887   2.105   0.798   0.862  0.2337 -0.1099  0.0131
 5704W        W21888   8.056   1.929   2.233 -0.0409  0.0360 -0.0643
 5705W        W21889  17.815   9.920   4.625  0.0488 -0.0659  0.0422
 5706W        W21890  15.417   5.456  11.612 -0.0421  0.0420 -0.2679
 5707W        W21891   9.924  14.365  14.581  0.0267  0.0563  0.1582
 5708W        W21892   7.916   4.135   5.498  0.2195  0.0722  0.2933
 5709W        W21893  17.736   7.190  11.751 -0.1857 -0.2422  0.3555
 5710W        W21894  10.892  12.418   1.477  0.0127 -0.3952 -0.2775
 5711W        W21895  10.664   7.551  16.888  0.2333  0.1426 -0.0037
 5712W        W21896  15.576  14.237   5.435  0.0915  0.0732 -0.0603
 5713W        W21897  13.763   5.898  12.423  0.0022  0.0131 -0.1315
 5714W        W21898   1.045   1.890   3.754  0.1350  0.0609  0.1804
 5715W        W21899  15.247   3.183  13.326 -0.0497 -0.2839  0.1679
 5716W        W21900   1.449  16.700  16.698  0.0919 -0.1535  0.0043
 5717W        W21901  10.586   5.353  15.160  0.1436  0.1673  0.2865
 5718W        W21902  10.874   4.529  16.315 -0.2163 -0.1899  0.0371
 5719W        W21903  12.305   6.303  12.195 -0.0527 -0.1070 -0.0269
 5720W        W21904   7.288   5.270  14.797 -0.0117  0.0693 -0.1510
 5721W        W21905   6.433   4.193   1.199 -0.3540 -0.1976  0.0969
 5722W        W21906   9.840  17.254  14.555  0.1953  0.0585 -0.0051
 5723W        W21907   9.598  15.924  11.872  0.0186 -0.1358 -0.0924
 5724W        W21908  11.164   6.186   3.906  0.2905  0.0318 -0.1055
 5725W        W21909  15.822   4.209  12.029 -0.0813 -0.0448  0.0670
 5726W        W21910   3.033   4.305   3.892 -0.1670 -0.0639 -0.0487
 5727W        W21911   5.725   2.041   4.350 -0.1813 -0.3329 -0.0176
 5728W        W21912   3.313   3.758  13.226  0.1080  0.1388  0.0546
 5729W        W21913  17.048  16.120  15.447  0.1271  0.2143 -0.0683
 5730W        W21914  10.692   6.406   3.265 -0.0058 -0.0771  0.1078
 5731W        W21915   2.130  13.655   0.529  0.1699 -0.3661 -0.1780
 5732W        W21916   9.310   8.131  15.442  0.1298 -0.0382  0.1594
 5733W        W21917   4.684  15.178   3.108 -0.1457 -0.3323 -0.0404
 5734W        W21918   4.740  12.504   5.173  0.1327  0.0424  0.3943
 5735W        W21919   4.501   2.154   1.167 -0.0086 -0.4210  0.0338
 5736W        W21920  13.191   5.180   2.541  0.1384 -0.0706 -0.0978
 5737W        W21921  10.360   4.070   4.869 -0.0911  0.1006 -0.2497
 5738W        W21922  11.064   4.149   1.233  0.3050  0.0809  0.0207
 5739W        W21923   9.590   2.832  14.009  0.1758 -0.0092  0.2022
 5740W        W21924   6.406  14.299  16.809  0.0208  0.0396 -0.3243
 5741W        W21925  14.117  14.229   2.198  0.0790 -0.1571 -0.1812
 5742W        W21926   4.290   9.459   4.660  0.0008 -0.0035 -0.3025
 5743W        W21927  13.763   9.144  13.321 -0.0884  0.1023  0.0387
 5744W        W21928   5.018   7.137  14.409  0.0416  0.1679  0.1137
 5745W        W21929   9.477   8.558   3.896 -0.1015 -0.2301 -0.0328
 5746W        W21930  10.088   1.948  13.814 -0.1511  0.2363 -0.1891
 5747W        W21931  14.420  17.588  12.783 -0.0800 -0.2578 -0.0894
 5748W        W21932  16.950   1.173   3.133  0.0309 -0.1408 -0.1598
 5749W        W21933   8.817  17.692  14.342  0.0122 -0.2651 -0.0029
 5750W        W21934   1.926  17.092  13.590  0.0548  0.1090  0.0357
 5751W        W21935   7.719   6.990   2.151  0.0898  0.0830  0.3684
 5752W        W21936  12.271   8.997   5.402 -0.4159 -0.3322 -0.1030
 5753W        W21937   7.601   7.894   1.783  0.2173  0.2635 -0.2292
 5754W        W21938  16.828   9.276  12.032 -0.0681  0.3053  0.1834
 5755W        W21939  14.520   0.130   1.852  0.0499 -0.0658 -0.2851
 5756W        W21940  17.031   0.855  12.084 -0.1083 -0.2510  0.0254
 5757W        W21941  12.251   0.244   2.861  0.4195  0.0272 -0.0875
 5758W        W21942  16.691  15.031  13.714 -0.4138  0.1444 -0.1043
 5759W        W21943  11.070  12.318   5.230 -0.2760 -0.1632  0.2131
 5760W        W21944   7.065  11.736   2.886 -0.2420 -0.1132  0.1340
 5761W        W21945   6.368   7.079   0.305 -0.0781 -0.1389 -0.0587
 5762W        W21946  17.250   1.630  13.069 -0.0212 -0.1650  0.0756
 5763W        W21947  13.961   4.209   3.742  0.0711  0.1648 -0.4443
 5764W        W21948  12.743   7.832   2.713 -0.0845 -0.1144  0.3504
 5765W        W21949  17.196   3.421  12.204  0.2116 -0.1463 -0.0099
 5766W        W21950   4.842   1.501   3.637 -0.0507 -0.0000 -0.0909
 5767W        W21951   7.979   3.717   1.494 -0.0441  0.0806 -0.1740
 5768W        W21952   8.486  11.532   1.661  0.2745  0.0147  0.0256
 5769W        W21953   4.027   7.098   1.724  0.0226  0.0887 -0.2525
 5770W        W21954   8.624   4.832   1.364  0.0897  0.0235  0.2103
 5771W        W21955   2.949  11.557  12.001  0.0882  0.0866 -0.0950
 5772W        W21956   7.704   4.843   5.054  0.2478  0.2373  0.2997
 5773W        W21957   2.098   0.598  16.219  0.0769 -0.3277  0.0398
 5774W        W21958   3.398  14.464  12.150 -0.3670 -0.1620 -0.0741
 5775W        W21959  15.566  11.220  16.046 -0.2732  0.0131  0.3211
 5776W        W21960   8.477  14.425  13.742 -0.1574  0.0636 -0.0367
 5777W        W21961   2.530  17.799  11.693 -0.4775  0.3787  0.4780
 5778W        W21962   3.692  12.599  14.525 -0.0632  0.0903 -0.3066
 5779W        W21963  11.808  11.082  15.396  0.2126  0.0503  0.2789
 5780W        W21964  10.379   8.812  16.578 -0.0164 -0.0561  0.0388
 5781W        W21965   9.692  15.332   3.562  0.0472 -0.1590 -0.3666
 5782W        W21966   3.316   8.610   1.374 -0.2320 -0.0875 -0.2595
 5783W        W21967   9.322  15.434   6.273 -0.1517 -0.0230  0.0468
 5784W        W21968  14.739   9.397   3.504 -0.0752 -0.2505 -0.1039
 5785W        W21969  13.813   2.450   5.759 -0.1019  0.0421 -0.2199
 5786W        W21970  15.114  15.877   2.616 -0.0827  0.1926 -0.1452
 5787W        W21971   2.241  16.988   5.225 -0.0638 -0.3300  0.0351
 5788W        W21972   4.928  16.008  14.652 -0.0898  0.2715  0.2991
 5789W        W21973   8.007  17.435  14.731 -0.0927  0.0065  0.0205
 5790W        W21974  17.132   6.370   4.216 -0.1375 -0.0375 -0.1073
 5791W        W21975  13.355  17.640  14.481  0.1058  0.1445 -0.1484
 5792W        W21976   2.097  13.898  15.261 -0.1845  0.1801 -0.0061
 5793W        W21977   3.092  14.846   0.698  0.2587 -0.5235 -0.0579
 5794W        W21978   0.033  14.145  12.593 -0.0943  0.0871 -0.1338
 5795W        W21979   2.185   9.396  15.239 -0.0000 -0.4704 -0.0264
 5796W        W21980   9.599   0.987   4.610 -0.1100 -0.1007 -0.1418
 5797W        W21981  10.097   1.768   1.511 -0.0153 -0.3173 -0.1554
 5798W        W21982  14.964   8.852  12.086  0.1057  0.4142 -0.1909
 5799W        W21983  12.252  14.898   6.411 -0.0824 -0.0125  0.1843
 5800W        W21984   3.678   3.318  14.090 -0.0906  0.1222  0.1704
 5801W        W21985  11.381  17.340   1.628  0.2638 -0.1405 -0.2330
 5802W        W21986   2.132   7.203   6.156 -0.0134 -0.2371  0.0839
 5803W        W21987  10.149   3.960   2.071 -0.2863  0.3755  0.1710
 5804W        W21988  11.968   8.658   2.411  0.3996  0.1545  0.3380
 5805W        W21989   6.326  13.791   1.136  0.2047 -0.1007  0.2927
 5806W        W21990   6.164   5.117  16.923  0.0811 -0.2154 -0.0006
 5807W        W21991   8.792  16.018  16.108 -0.0800  0.0098  0.2850
 5808W        W21992   2.094   9.112   4.328 -0.0698 -0.2199 -0.0537
 5809W        W21993   5.129   3.679   4.217  0.1770 -0.0355 -0.0919
 5810W        W21994   9.852  16.487   2.797 -0.1462 -0.0574  0.1119
 5811W        W21995   6.146   3.826  16.287  0.1084 -0.0433  0.3598
 5812W        W21996   8.793   1.967   4.192 -0.0488  0.3097 -0.0218
 5813W        W21997   5.617   2.608   2.641  0.3223  0.2517  0.2032
 5814W        W21998  11.209  11.725   1.154 -0.2335 -0.2973 -0.1763
 5815W        W21999   7.927  13.693   2.133 -0.2307 -0.2639 -0.0593
 5816W        W22000   0.373   6.569  16.571  0.1322 -0.0226  0.1617
 5817W        W22001  11.285   5.821   2.481  0.2043  0.0634 -0.0601
 5818W        W22002  14.341   0.513   4.380  0.0609 -0.0137  0.0827
 5819W        W22003  15.404   6.995   5.728  0.0902  0.3480 -0.2363
 5820W        W22004   2.584   4.074  16.842 -0.3077 -0.1744  0.1914
 5821W        W22005  12.095  13.747   0.337 -0.2878 -0.0472 -0.0356
 5822W        W22006   7.564  16.511  16.030  0.1806  0.0277  0.2931
 5823W        W22007   7.424   0.335   5.078  0.0731  0.0337  0.0687
 5824W        W22008   3.791   3.395  13.595 -0.0060  0.1716  0.2689
 5825W        W22009  11.753   2.111  12.311 -0.1363  0.0241  0.0096
 5826W        W22010   8.654   1.638   4.674  0.0411  0.2066  0.1923
 5827W        W22011  15.994   6.513  14.563 -0.1516  0.2005  0.1662
 5828W        W22012  16.293  14.946  11.639  0.2802  0.2189  0.4199
 5829W        W22013   7.476  12.383   3.388 -0.1900  0.3838  0.5330
 5830W        W22014  13.967  11.804   4.689  0.0228  0.1025  0.2813
 5831W        W22015   3.593   5.931   3.077 -0.0727  0.1561  0.1129
 5832W        W22016   7.634   7.599   0.273 -0.0126 -0.1712  0.0893
 5833W        W22017   6.960   0.358   5.287  0.1918 -0.0871 -0.0209
 5834W        W22018   6.932  14.037  11.063  0.0140 -0.3525 -0.0427
 5835W        W22019   2.509  15.795  12.608  0.0059  0.1598  0.0756
 5836W        W22020   6.006  15.723   1.424  0.2853  0.0502 -0.0751
 5837W        W22021   2.532   7.186  14.053  0.3284 -0.0443  0.0921
 5838W        W22022   7.782  16.022  14.428 -0.1681  0.0744  0.0361
 5839W        W22023  13.072  10.997   4.779 -0.0269 -0.0529 -0.1119
 5840W        W22024  16.391  17.088   1.740 -0.4198 -0.1411 -0.1523
 5841W        W22025   7.930   7.093  13.804 -0.0028 -0.2011 -0.5451
 5842W        W22026  11.012  11.586  10.416 -0.3566 -0.2253  0.3259
 5843W        W22027  17.650   5.830  16.637 -0.0413 -0.1119 -0.1747
 5844W        W22028  14.567   9.776   0.726 -0.3886 -0.2573  0.2414
 5845W        W22029  14.720  11.802   4.303 -0.2309 -0.0218 -0.1692
 5846W        W22030   8.782   2.103   1.895  0.1878  0.2702 -0.0552
 5847W        W22031  14.559   4.107  15.639 -0.1707 -0.1445 -0.3425
 5848W        W22032  12.384  12.811   0.504  0.0341  0.0005 -0.0829
 5849W        W22033  14.372   3.504   1.122 -0.2877  0.1461 -0.0195
 5850W        W22034   3.711  17.534   2.871 -0.1426  0.1057  0.2196
 5851W        W22035   8.765   3.639  16.304  0.0849 -0.3264 -0.1114
 5852W        W22036   7.653  10.717   4.568 -0.2162  0.2542  0.1901
 5853W        W22037   1.698   5.329   3.849 -0.0804  0.1772 -0.0320
 5854W        W22038  15.252   5.676   3.643  0.0178 -0.0213  0.0857
 5855W        W22039   3.497  12.138  11.403  0.1535  0.2925  0.3205
 5856W        W22040  15.891   4.719  15.932 -0.1670  0.0844  0.1305
 5857W        W22041   2.832  13.101  12.687  0.0430 -0.0584 -0.2900
 5858W        W22042   0.264   1.892   5.060 -0.1637  0.2335 -0.1833
 5859W        W22043   5.450   3.231  13.738 -0.0723 -0.1854  0.2913
 5860W        W22044   5.199   4.164  14.196  0.1302  0.1550  0.2257
 5861W        W22045  10.849   7.737   4.172 -0.1629 -0.0135 -0.1005
 5862W        W22046  11.871   9.789   2.248  0.3542 -0.2266 -0.0455
 5863W        W22047   6.333   6.262  13.454 -0.1146 -0.1679 -0.1700
 5864W        W22048   1.099   6.587  16.771 -0.3367  0.0692 -0.2026
 5865W        W22049   4.164  13.809  12.400 -0.0762  0.4071 -0.1500
 5866W        W22050  15.479  16.286   1.668  0.1346 -0.0834 -0.3880
 5867W        W22051   0.868  10.960  12.700 -0.1903  0.1135  0.3902
 5868W        W22052  12.257   7.194   0.943  0.0043  0.1385  0.1600
 5869W        W22053   1.788   7.474   2.174 -0.1184  0.1688  0.1509
 5870W        W22054  12.619   2.745   6.020  0.1250  0.2029 -0.0401
 5871W        W22055  10.376  17.493   4.763 -0.0781 -0.1819 -0.0113
 5872W        W22056   4.975  10.528   0.423  0.0412 -0.3339 -0.0104
 5873W        W22057  13.663   4.384  14.587 -0.0565 -0.0871  0.1469
 5874W        W22058   7.301  11.425   3.968 -0.0555 -0.1687  0.0881
 5875W        W22059  16.807  14.135  12.498  0.1988  0.1679 -0.4975
 5876W        W22060   1.433   5.836   1.722 -0.1654  0.0610  0.1205
 5877W        W22061  12.032   1.742   5.430  0.0937 -0.1384  0.1216
 5878W        W22062  13.124  14.381   5.159 -0.1352  0.1992  0.0799
 5879W        W22063  10.142   9.516   4.862 -0.0925 -0.0236 -0.0107
 5880W        W22064   2.342   8.747  13.400 -0.1268 -0.1630 -0.1206
 5881W        W22065  15.999  15.413   4.210  0.3495 -0.2090  0.0083
 5882W        W22066  12.046  12.685  12.043  0.0855  0.2112  0.0241
 5883W        W22067   1.542   0.099   0.701 -0.0254 -0.1839  0.0957
 5884W        W22068  10.012   6.690  14.029 -0.1202  0.0137  0.0201
 5885W        W22069  15.503   0.185  14.026  0.1303 -0.0478  0.1829
 5886W        W22070  16.028   3.255  16.293  0.3531 -0.0698  0.1648
 5887W        W22071  14.601   4.914  13.438  0.0753  0.0773  0.0882
 5888W        W22072   8.016   2.181  15.056 -0.1584 -0.0365 -0.0459
 5889W        W22073  13.429  12.959  15.034 -0.0669 -0.0388 -0.2268
 5890W        W22074   3.147  13.444   2.276 -0.0395 -0.0905 -0.0057
 5891W        W22075  12.156   3.092  16.857  0.0351  0.1526 -0.1946
 5892W        W22076   7.926   3.797   3.418  0.3353  0.0398  0.5057
 5893W        W22077  13.331  16.856  15.822  0.2155 -0.2400  0.0620
 5894W        W22078   3.612  15.611  15.172 -0.2329  0.2151 -0.0839
 5895W        W22079   2.609   2.026   1.508  0.5687 -0.0118 -0.1916
 5896W        W22080   9.662  10.044  14.340  0.2177 -0.0865  0.1897
 5897W        W22081  10.123  10.299   3.475 -0.1215 -0.3313  0.0803
 5898W        W22082   5.395  14.147  14.862 -0.0596  0.0251  0.0512
 5899W        W22083   2.165   9.126  13.684 -0.0085  0.0236 -0.1121
 5900W        W22084  12.001   1.096   3.544 -0.1135  0.1030 -0.4151
 5901W        W22085   9.709  10.125   0.596  0.3234 -0.0713  0.0742
 5902W        W22086   3.417  10.837  16.417  0.0574  0.2497  0.1056
 5903W        W22087   8.596   5.871   2.134  0.0970  0.0366 -0.3397
 5904W        W22088   3.062   1.252  13.991 -0.1070  0.2760 -0.3792
 5905W        W22089  16.659   2.400   1.389  0.0991 -0.2937 -0.1735
 5906W        W22090   0.056  15.485   5.525  0.0563  0.1567 -0.0477
 5907W        W22091   9.881   4.196   0.703  0.0912  0.0166  0.2681
 5908W        W22092   1.971  15.517  15.778 -0.2843 -0.0405 -0.1664
 5909W        W22093  13.056   1.904   1.771  0.2905 -0.0512 -0.2136
 5910W        W22094  13.613   8.670   1.183  0.2493  0.1491  0.0991
 5911W        W22095   2.229   6.916  13.439 -0.1024  0.1931 -0.1400
 5912W        W22096   8.986  12.268  11.998  0.1001 -0.0181 -0.0042
 5913W        W22097  13.650  10.332  14.211 -0.0192  0.1057 -0.0298
 5914W        W22098  11.557   2.355   3.886 -0.4878 -0.3168  0.0254
 5915W        W22099  14.964  13.196   0.770  0.2620  0.1694 -0.0810
 5916W        W22100   9.773   9.637  16.917  0.0542 -0.1364  0.1203
 5917W        W22101   0.092  15.437  16.188 -0.0780 -0.2422  0.0004
 5918W        W22102  15.334  17.689  16.454 -0.2798 -0.1336 -0.1480
 5919W        W22103   3.140  10.218  12.728 -0.1741  0.1844  0.0792
 5920W        W22104   7.200   4.527   3.194  0.2623  0.0713  0.7175
 5921W        W22105   0.430   5.870   0.778  0.0932 -0.0876  0.0113
 5922W        W22106  14.336   2.356  15.171 -0.2692 -0.1523  0.4014
 5923W        W22107   2.366   0.776   2.758 -0.0366 -0.0001  0.0386
 5924W        W22108  12.492  11.875  16.621  0.0955  0.0494 -0.2217
 5925W        W22109  15.376   4.699   3.581 -0.0226 -0.0386 -0.0548
 5926W        W22110  13.037   4.182   0.989 -0.1506  0.2519 -0.4037
 5927W        W22111   0.538   3.992  14.748 -0.1248  0.0827 -0.1370
 5928W        W22112  13.463  13.655   0.153 -0.2770  0.3787 -0.1607
 5929W        W22113   9.394   3.199  12.322  0.1227 -0.3161  0.1535
 5930W        W22114   8.803  15.405   5.793 -0.2402 -0.0734 -0.1029
 5931W        W22115  10.649   7.421  14.304  0.1294  0.2391 -0.0887
 5932W        W22116  12.219  14.036  14.878  0.1418 -0.1191 -0.1010
 5933W        W22117  10.683   3.413  15.268  0.0762  0.1784  0.1316
 5934W        W22118  12.091   8.518  14.981  0.1405  0.1984 -0.0364
 5935W        W22119   5.335  16.853  16.902  0.3116  0.2340  0.0454
 5936W        W22120  12.411  11.079  14.501  0.2221 -0.2600  0.3728
 5937W        W22121   6.669   4.069   2.704 -0.0739 -0.0015  0.2490
 5938W        W22122   5.098  15.809  12.644  0.1308 -0.0509 -0.2648
 5939W        W22123   6.394   1.725   0.645 -0.0311 -0.0908 -0.0663
 5940W        W22124   9.890   5.880   1.216 -0.1317  0.0769  0.2622
 5941W        W22125  13.090  15.237  12.299 -0.0316  0.1828  0.2351
 5942W        W22126   8.270   5.377  16.678  0.0913 -0.0302 -0.0075
 5943W        W22127   6.208   7.433   4.893  0.1924  0.2326  0.0220
 5944W        W22128  15.626   9.028   3.161 -0.0130 -0.1358  0.0191
 5945W        W22129   6.395  13.350   5.218  0.0850  0.3036 -0.2064
 5946W        W22130  17.421  16.279  16.403  0.1372  0.0978  0.0569
 5947W        W22131   3.221  12.139   1.411 -0.1762  0.0653 -0.2233
 5948W        W22132  17.087   4.678  12.939 -0.0948 -0.0553  0.2071
 5949W        W22133   1.661   9.267  12.004 -0.2619  0.2196  0.0307
 5950W        W22134  13.989  15.349  13.267 -0.0519 -0.1305 -0.0357
 5951W        W22135  17.692  13.297  16.723 -0.0048  0.0209  0.1018
 5952W        W22136  14.260   1.917   3.939 -0.3196 -0.3116 -0.1306
 5953W        W22137  15.970   4.005   1.745  0.1855 -0.0776  0.3855
 5954W        W22138  16.662   2.973  16.911 -0.2071  0.1157 -0.1474
 5955W        W22139   0.521  13.709   4.131 -0.0173  0.0771  0.1338
 5956W        W22140  17.358   9.692   6.332 -0.2097 -0.1506 -0.1597
 5957W        W22141  10.197   3.335   1.347 -0.0947  0.0701  0.2300
 5958W        W22142  12.983   5.936  13.325  0.0525 -0.0469 -0.1149
 5959W        W22143   0.187   8.658   0.071 -0.1333 -0.1547 -0.1903
 5960W        W22144   2.017   3.064   5.744 -0.0706  0.0259 -0.2811
 5961W        W22145  12.192  16.039  11.986  0.1599 -0.0301 -0.1646
 5962W        W22146   8.154  16.876  16.441  0.2512  0.0356 -0.1267
 5963W        W22147   1.314   0.413   4.568  0.0169  0.2457  0.0248
 5964W        W22148  16.374  10.134   4.797 -0.3096 -0.0010 -0.0751
 5965W        W22149  15.915  11.447   0.202  0.1717  0.1461  0.1151
 5966W        W22150   7.722   7.560  12.058  0.2036  0.1959 -0.0537
 5967W        W22151   9.594   5.716  13.169  0.0407 -0.0693  0.1436
 5968W        W22152   2.143   5.996  14.289 -0.1395 -0.1843 -0.1605
 5969W        W22153  10.151   7.427   5.677  0.2088 -0.2407  0.1732
 5970W        W22154  14.754  16.513   0.286  0.3524 -0.1233 -0.0088
 5971W        W22155   3.891   4.359  13.890  0.1555  0.1263  0.2177
 5972W        W22156   3.235  13.965  14.568  0.0811 -0.0412  0.0780
 5973W        W22157   8.874   4.969   4.122 -0.1058  0.0495 -0.3508
 5974W        W22158  14.341   6.577  15.722 -0.3531 -0.0818 -0.4795
 5975W        W22159   4.948  12.139   5.436 -0.0642  0.1407 -0.1763
 5976W        W22160   0.147   8.620  16.521 -0.4112  0.2500 -0.2988
 5977W        W22161  15.351  15.692  15.663  0.1298 -0.2451  0.0959
 5978W        W22162   9.687   2.376   2.833  0.1101  0.3263  0.0094
 5979W        W22163  11.764  11.603  14.214  0.0958 -0.1143 -0.2163
 5980W        W22164  17.687  12.557   1.048 -0.0961 -0.5294 -0.2304
 5981W        W22165   9.227  17.246   6.213 -0.0445  0.0738  0.0254
 5982W        W22166   2.138   5.073   0.062  0.2700  0.0240  0.1126
 5983W        W22167  11.462   0.593   3.199 -0.2423  0.0907  0.2230
 5984W        W22168   3.514   0.154  14.415 -0.1359  0.1443  0.1044
 5985W        W22169  12.247   7.414   0.463 -0.1321 -0.1655  0.0937
 5986W        W22170  11.526  12.871  12.165 -0.2356  0.2687  0.0575
 5987W        W22171  10.129   7.980  13.526 -0.1570  0.0574 -0.1217
 5988W        W22172   8.227  14.903   3.537 -0.0091  0.1708  0.1656
 5989W        W22173  17.354   2.654  15.003 -0.1843 -0.1736  0.1741
 5990W        W22174   9.631  14.573  11.924  0.1306 -0.0207  0.1380
 5991W        W22175  12.110   1.765   2.636  0.0415  0.1685 -0.0332
 5992W        W22176  12.395   0.373  11.998  0.2391 -0.3030  0.0117
 5993W        W22177   7.925   3.573  13.593  0.2344  0.2209 -0.0504
 5994W        W22178   1.280   4.234  15.016  0.1691 -0.2703 -0.0182
 5995W        W22179   0.184   3.089  13.671  0.0188  0.1522 -0.2027
 5996W        W22180  15.362   7.229  13.056  0.0401 -0.2303 -0.0049
 5997W        W22181  12.675   5.631  15.754  0.2225 -0.2914  0.3333
 5998W        W22182  15.817   0.023  13.669 -0.2107  0.1066  0.4150
 5999W        W22183   3.487   0.683  16.790 -0.1327  0.2239  0.0550
 6000W        W22184   4.904   1.379   1.630  0.0304 -0.0819  0.0755
 6001W        W22185   1.857   3.709  11.688 -0.2053 -0.1249 -0.1566
 6002W        W22186   1.346  16.028  15.038 -0.0222 -0.1801 -0.2661
 6003W        W22187   1.794   1.522  11.826 -0.1174  0.1037  0.1975
 6004W        W22188   6.330  17.001  15.811  0.0689  0.2058 -0.0937
 6005W        W22189   9.513  15.326   4.082  0.1096 -0.0255 -0.0999
 6006W        W22190  15.446  11.398   4.575  0.1180 -0.4582  0.1569
 6007W        W22191   0.294  16.271  13.808  0.3315  0.1055 -0.1310
 6008W        W22192  13.009  16.268   0.150 -0.0099 -0.1494 -0.1651
 6009W        W22193   1.824  11.270   5.764  0.2604 -0.1865  0.3005
 6010W        W22194   1.011  14.577   0.466  0.1326 -0.2200  0.0479
 6011W        W22195   8.567   8.528   4.408  0.0464  0.1716 -0.3354
 6012W        W22196   4.927  14.165  15.769 -0.3411 -0.0341 -0.0497
 6013W        W22197  15.608   6.199  16.255  0.2259  0.1816  0.0021
 6014W        W22198   7.241  17.008  15.754  0.2104  0.0284 -0.1243
 6015W        W22199   1.303   4.896   3.026  0.3185 -0.1424 -0.0048
 6016W        W22200   6.452   6.898  12.986 -0.1136  0.0513  0.1387
 6017W        W22201  17.540  10.351  14.395  0.2114  0.0115  0.1390
 6018W        W22202  10.375   9.678   1.289 -0.1690 -0.1882 -0.3417
 6019W        W22203   0.000  16.950   4.050 -0.1640  0.2896 -0.0534
 6020W        W22204   5.776  12.099  16.004  0.0773 -0.0308 -0.1825
 6021W        W22205  15.954   6.343   4.605 -0.1032  0.0590 -0.1107
 6022W        W22206   8.702  14.430  16.581  0.2643  0.2549 -0.1277
 6023W        W22207   3.970  16.972  11.152 -0.1668 -0.0393  0.0703
 6024W        W22208   7.474   0.302  12.611 -0.0141  0.2456 -0.0202
 6025W        W22209  10.365   7.389   3.084 -0.1679 -0.1037 -0.4543
 6026W        W22210  14.222  17.594   2.972  0.0053 -0.2543  0.3400
 6027W        W22211   6.538  15.597  12.620  0.1688  0.0454  0.1029
 6028W        W22212   2.761  10.092   5.735  0.0027  0.2448 -0.3616
 6029W        W22213  16.584   7.013   2.684  0.3836  0.1936 -0.1430
 6030W        W22214   2.685  15.740  14.740  0.1431 -0.1074 -0.0626
 6031W        W22215   4.306   6.162  12.996 -0.0651 -0.1323  0.1119
 6032W        W22216  16.239   0.525  10.940 -0.0089  0.0785  0.0108
 6033W        W22217  13.120   6.772   2.759  0.1132 -0.3086  0.1728
 6034W        W22218   9.304   2.899  14.446  0.4366  0.2006 -0.1428
 6035W        W22219   1.435   9.790   3.415  0.0753  0.1506  0.0864
 6036W        W22220   7.930  10.537   5.689 -0.0083  0.0003  0.0136
 6037W        W22221   4.403   5.047  12.985  0.1242 -0.1898 -0.0153
 6038W        W22222   6.801   7.889   5.598  0.0107  0.0924  0.4044
 6039W        W22223   3.567   4.589   0.979 -0.3350  0.3074 -0.2712
 6040W        W22224   5.080   1.285  12.863 -0.0172 -0.0599 -0.0775
 6041W        W22225   6.572  14.544   1.310  0.0813  0.0706  0.3932
 6042W        W22226  16.945  15.655   0.411 -0.3598 -0.0559 -0.0681
 6043W        W22227  10.955   0.934   3.419  0.0661  0.2363  0.0127
 6044W        W22228  15.882  10.918  13.709 -0.1630  0.0402 -0.0095
 6045W        W22229   3.830  15.017  13.916  0.1067  0.0519  0.3242
 6046W        W22230   4.284   1.398   0.778 -0.0359  0.1353 -0.0994
 6047W        W22231   3.183  13.972   3.618 -0.0034 -0.3034  0.0713
 6048W        W22232   7.320   6.604   5.754 -0.0062 -0.1718 -0.1091
 6049W        W22233  14.295  11.262  12.874  0.4232 -0.2068  0.1824
 6050W        W22234   2.870   9.901   4.325 -0.0489  0.1587 -0.1512
 6051W        W22235  13.443   8.423  14.336 -0.2419  0.1545 -0.0461
 6052W        W22236  15.935   4.292  13.628 -0.0418  0.0076 -0.1440
 6053W        W22237  16.157   4.369   4.232  0.1555 -0.0524  0.3209
 6054W        W22238   9.783   8.488  13.458  0.0312 -0.2781 -0.1378
 6055W        W22239  14.748  16.902  14.107 -0.1028 -0.3463  0.2116
 6056W        W22240   6.441   6.511  12.074  0.1094  0.0715  0.1881
 6057W        W22241  17.237   3.939   5.547 -0.2313 -0.1410  0.3193
 6058W        W22242   5.679  14.979   3.220 -0.2274 -0.0672  0.1419
 6059W        W22243  17.394   1.545  16.053  0.0051 -0.1779 -0.0489
 6060W        W22244   1.892   0.422   5.733 -0.1219  0.1102 -0.0927
 6061W        W22245  14.912  10.127   3.141 -0.0398  0.0202 -0.0904
 6062W        W22246  12.380  16.900  12.641 -0.4134 -0.1360  0.2657
 6063W        W22247  14.544   0.581  11.649  0.0004  0.0845  0.0343
 6064W        W22248  11.119   6.541   1.559  0.2197  0.0525  0.2725
 6065W        W22249   5.233  17.064  12.969  0.1381  0.2976  0.1531
 6066W        W22250  10.093   2.446  11.833  0.2380 -0.1689  0.1159
 6067W        W22251   1.810  14.498  15.857  0.1345  0.1091  0.3801
 6068W        W22252   3.647  17.775  16.500 -0.2437 -0.0342  0.0912
 6069W        W22253  17.222   8.844   1.727  0.1539 -0.2532 -0.0447
 6070W        W22254   4.354   3.281   2.778 -0.0492  0.1109 -0.0038
 6071W        W22255  11.918  12.667  16.389  0.1097  0.2829 -0.4231
 6072W        W22256  11.602  12.578  16.842  0.2493 -0.0457 -0.0047
 6073W        W22257   4.252   5.069  12.511  0.2400  0.1784 -0.1614
 6074W        W22258   5.107  15.357   1.108  0.4859 -0.0776 -0.1864
 6075W        W22259   3.604   8.244  13.856  0.0849 -0.1602  0.3323
 6076W        W22260   8.800  11.749  16.590 -0.2165 -0.1360 -0.1163
 6077W        W22261   2.755   5.001  13.357 -0.0238  0.0522 -0.0308
 6078W        W22262   3.514   0.659  15.345  0.1701  0.2656 -0.0465
 6079W        W22263   0.150   7.774  11.878  0.4061 -0.0863 -0.2615
 6080W        W22264  12.802  13.401   4.395  0.2776  0.1777  0.1120
 6081W        W22265   6.079   3.456  16.635 -0.2027  0.2813  0.0227
 6082W        W22266  15.640  17.460   1.159 -0.1085  0.1107  0.0875
 6083W        W22267   3.786   8.880   2.358  0.1288 -0.2776 -0.3686
 6084W        W22268   0.506  16.144   1.610 -0.0691  0.3578 -0.0584
 6085W        W22269   0.275   9.141  11.857 -0.2372 -0.0572 -0.0095
 6086W        W22270  13.654  11.641   4.383 -0.3689  0.0012  0.1220
 6087W        W22271   5.483   8.631  13.548  0.0669 -0.1322  0.0037
 6088W        W22272   6.921  17.819  14.099  0.0193  0.0529  0.4985
 6089W        W22273   8.342   4.214  13.055  0.1635 -0.1010  0.4960
 6090W        W22274   1.029   5.085   4.634  0.1446 -0.2852 -0.0302
 6091W        W22275   2.795  17.303   4.065 -0.2349  0.2363 -0.0773
 6092W        W22276  12.885  14.434  15.354  0.2181 -0.2809 -0.3162
 6093W        W22277   4.906   1.115   4.552 -0.0017  0.1641 -0.0203
 6094W        W22278   5.937  14.587   4.220 -0.2186  0.0048 -0.0094
 6095W        W22279   3.530   4.113  12.983 -0.0468 -0.2913 -0.0290
 6096W        W22280  16.882   9.017   3.295 -0.0054 -0.2023 -0.0962
 6097W        W22281  10.810  16.769  15.751  0.1894  0.0990  0.1012
 6098W        W22282   9.324  16.140   0.799  0.1496  0.1812  0.1094
 6099W        W22283   7.810  13.571   4.666  0.0323 -0.1011 -0.0987
 6100W        W22284   7.954   9.869   1.715  0.1255 -0.1494  0.0148
 6101W        W22285   1.137  10.206   2.017 -0.1728 -0.2355 -0.3632
 6102W        W22286   1.258  13.106   1.399  0.0459  0.1497 -0.2784
 6103W        W22287  16.193   2.996  13.832  0.2670  0.1074  0.1025
 6104W        W22288  14.738   5.267   5.746 -0.1338  0.0399  0.4571
 6105W        W22289   1.580   9.604  16.537  0.2441  0.1873  0.1493
 6106W        W22290  15.887  16.473  14.858 -0.0599  0.1520 -0.1766
 6107W        W22291   3.480  10.174  11.916  0.0438  0.4021 -0.2498
 6108W        W22292  11.483   4.374   3.572 -0.1116  0.1842  0.1221
 6109W        W22293  15.575   7.028  16.446 -0.2955 -0.1940 -0.1348
 6110W        W22294  17.171   6.568  12.398 -0.1614 -0.3957 -0.1842
 6111W        W22295   3.235   3.406   1.915  0.0621 -0.3344 -0.0994
 6112W        W22296   1.872   5.635   0.422  0.1657 -0.4032 -0.2299
 6113W        W22297   7.386  14.354  14.417 -0.0603 -0.4296  0.0783
 6114W        W22298  15.108  10.729  13.001 -0.0430  0.5179 -0.4029
 6115W        W22299   1.055   5.333  13.280  0.1501 -0.2326  0.1010
 6116W        W22300   2.784   8.679  16.922  0.0405  0.0140 -0.3661
 6117W        W22301   6.300   2.029  12.585 -0.3248 -0.0421 -0.0513
 6118W        W22302  10.513   7.195   2.635  0.1598  0.0610  0.1010
 6119W        W22303  14.069  17.309   1.750 -0.2264 -0.2154  0.2295
 6120W        W22304  11.774   4.648  16.140  0.0857 -0.3492 -0.3267
 6121W        W22305  17.652  12.610  16.149 -0.1338 -0.2960  0.1924
 6122W        W22306  17.559   5.788  16.099 -0.0750  0.0689  0.0868
 6123W        W22307   3.425   5.901  13.991 -0.0966  0.2590  0.0716
 6124W        W22308  14.238   8.861  14.162 -0.3144  0.0214  0.2174
 6125W        W22309   5.343   9.200  15.945  0.0494 -0.0965 -0.1308
 6126W        W22310   3.046   5.942   3.079  0.1157  0.0947 -0.0565
 6127W        W22311  17.605  17.301   4.904  0.0119  0.1351  0.0632
 6128W        W22312   9.414   7.412  14.123 -0.0194  0.0592 -0.0219
 6129W        W22313  10.573  14.057   2.457 -0.1373  0.3026 -0.0183
 6130W        W22314  16.194   7.801  11.931  0.0042  0.3863  0.1019
 6131W        W22315   2.820   7.538  13.840 -0.0097  0.1660 -0.1890
 6132W        W22316  13.429   5.432   3.925  0.0213  0.0260  0.2615
 6133W        W22317   7.131   5.577   1.465  0.0058 -0.0458 -0.0605
 6134W        W22318  17.598  17.041  14.829  0.1068 -0.3167 -0.0530
 6135W        W22319   3.851  10.558  15.566  0.1706  0.0218 -0.2109
 6136W        W22320   7.577   9.655   1.995 -0.1167 -0.0483  0.1093
 6137W        W22321  17.318   8.006  12.963 -0.0156 -0.0554 -0.2616
 6138W        W22322  15.564  17.853  16.054 -0.0489  0.1297 -0.1823
 6139W        W22323   2.405   0.985   4.080  0.1839  0.0223  0.1467
 6140W        W22324   1.965  15.604   5.570  0.1613  0.0032 -0.2082
 6141W        W22325   4.975  10.032   3.063 -0.0863  0.0362 -0.1661
 6142W        W22326  12.692   0.665   2.606 -0.0121  0.1967  0.2325
 6143W        W22327   1.889  12.083   2.011 -0.0448 -0.0843  0.2021
 6144W        W22328  16.516   7.192  12.858  0.1311  0.1480  0.2086
 6145W        W22329   9.178   4.728   0.364 -0.0223 -0.0143 -0.0812
 6146W        W22330   2.412  16.252  16.484  0.0150  0.1020 -0.1519
 6147W        W22331  10.372   3.383   3.594 -0.5217 -0.1027 -0.3589
 6148W        W22332  13.774   7.823  15.051 -0.0286  0.0169 -0.0560
 6149W        W22333   8.679  13.946  12.323  0.0336  0.1331  0.5338
 6150W        W22334   6.584  15.684   6.058  0.1037 -0.2981 -0.1137
 6151W        W22335   7.102   7.940   4.219 -0.0395 -0.2422 -0.0812
 6152W        W22336  13.545   9.161   5.212 -0.1479 -0.0649 -0.0954
 6153W        W22337  14.309   7.296   3.833 -0.0734 -0.0526 -0.1516
 6154W        W22338  16.698   7.597  11.344 -0.1600 -0.2035  0.3592
 6155W        W22339   8.126   8.088  16.071  0.0663 -0.2691 -0.1632
 6156W        W22340  13.732  11.963   1.206  0.1885 -0.2952 -0.0681
 6157W        W22341   8.489   0.318   1.084  0.0702 -0.0478  0.3351
 6158W        W22342  16.179  13.589   2.464 -0.0302  0.0560 -0.0908
 6159W        W22343  11.325  12.680  14.638  0.0039 -0.1153  0.4856
 6160W        W22344   1.188   1.691   2.155 -0.2240 -0.1139  0.0146
 6161W        W22345   2.724   1.480   2.270 -0.0111 -0.1477  0.0659
 6162W        W22346   2.197   2.435  16.090 -0.0435  0.0858  0.1474
 6163W        W22347  15.454  13.595   1.316 -0.2255 -0.0265 -0.0503
 6164W        W22348  16.502  12.155   1.777 -0.1351 -0.0610 -0.0163
 6165W        W22349   1.751   4.569  14.765  0.0656  0.0154  0.2079
 6166W        W22350  17.661   7.723  14.324 -0.0894 -0.0376 -0.0254
 6167W        W22351  11.604  15.265   1.130 -0.1866 -0.1194  0.0813
 6168W        W22352   4.053  10.193   5.766 -0.1567 -0.0669  0.1039
 6169W        W22353   4.026   2.954  11.895 -0.0408  0.2623  0.1123
 6170W        W22354  12.793   5.770   6.572 -0.1141  0.0364 -0.1119
 6171W        W22355  15.045   5.909  12.854 -0.0565 -0.0597  0.1116
 6172W        W22356  17.320   9.647  15.606  0.2131  0.1918 -0.0465
 6173W        W22357   7.615   5.144  16.212 -0.1557 -0.0608 -0.2274
 6174W        W22358   7.185  15.399  15.781 -0.3166 -0.2294  0.0414
 6175W        W22359   8.809  12.818  14.187 -0.0417  0.0954  0.1412
 6176W        W22360   5.757   0.391   4.564 -0.2394 -0.0879  0.0651
 6177W        W22361   6.570  17.814  13.756  0.0005  0.1782  0.0140
 6178W        W22362   6.083   4.046   4.049  0.1812 -0.0008 -0.2137
 6179W        W22363   3.076  15.677   6.111 -0.1019 -0.0232  0.0310
 6180W        W22364  10.290   9.898   4.592  0.1567 -0.2797  0.2486
 6181W        W22365  16.283  12.444   4.765  0.0550  0.2328 -0.0045
 6182W        W22366  14.299  15.808  14.313  0.1464  0.1536  0.2299
 6183W        W22367  15.864   7.131  12.260 -0.0283 -0.0256  0.4231
 6184W        W22368   5.837   3.875  15.224 -0.0057  0.3452 -0.1075
 6185W        W22369   9.710  10.989  13.761  0.1348 -0.0565 -0.1886
 6186W        W22370  11.051  13.184  15.373  0.3024 -0.2018  0.1229
 6187W        W22371   0.273   8.822  15.737 -0.1071  0.2055 -0.2402
 6188W        W22372   0.593   9.053   4.923  0.1591 -0.1742  0.0225
 6189W        W22373   7.191   8.280   2.849 -0.2316 -0.0321 -0.0754
 6190W        W22374   1.251   4.810   6.811 -0.0926 -0.2918 -0.2491
 6191W        W22375   8.068  15.285   1.442  0.1326  0.1295  0.4945
 6192W        W22376   6.139  13.036   2.823  0.0799  0.4071 -0.1385
 6193W        W22377  17.793  16.018   3.129  0.1037  0.4030  0.2108
 6194W        W22378   5.240   8.707   6.465 -0.1319  0.1324 -0.1743
 6195W        W22379  16.841  11.440   5.059  0.0400 -0.0838 -0.2078
 6196W        W22380  16.088  10.262  13.093  0.3326 -0.3073 -0.0118
 6197W        W22381  10.952  10.153   1.912  0.1033  0.1175  0.2230
 6198W        W22382   0.920   8.629   4.465  0.0953  0.2482 -0.1583
 6199W        W22383  10.966   9.642  12.888 -0.2816 -0.2337 -0.1839
 6200W        W22384   1.786   3.509   5.483  0.0707 -0.0480 -0.1596
 6201W        W22385   9.932  17.830  15.586  0.1578 -0.0530 -0.1028
 6202W        W22386  11.805   3.777   2.814  0.0701 -0.1714  0.0323
 6203W        W22387  12.473  17.852   3.763  0.0408  0.2525 -0.1479
 6204W        W22388   9.983   1.339  14.874 -0.1413 -0.1270 -0.0404
 6205W        W22389  15.822   4.932  12.414  0.1887  0.0952  0.0034
 6206W        W22390  15.930   0.276  11.932  0.0395  0.3551  0.0282
 6207W        W22391   1.323  10.962  16.428  0.2643  0.0488 -0.0481
 6208W        W22392  16.595   6.281  15.242 -0.0964 -0.0702 -0.2658
 6209W        W22393  12.550   4.299  16.537  0.1404 -0.0115 -0.0417
 6210W        W22394  16.171   6.025   3.461 -0.0350 -0.1016  0.1783
 6211W        W22395   1.746   1.194   3.439 -0.0486 -0.3662 -0.0091
 6212W        W22396   7.500   5.747   5.340 -0.1845  0.2078  0.2862
 6213W        W22397  15.421  16.721  12.519  0.1125 -0.3287 -0.2043
 6214W        W22398  11.050   3.733  15.389 -0.2911  0.2476 -0.4170
 6215W        W22399   2.565   5.190  12.215  0.1575 -0.1257  0.1487
 6216W        W22400   4.391  14.022  15.032 -0.4498 -0.3220  0.2112
 6217W        W22401   3.464   4.291  15.064  0.0943 -0.0920  0.3052
 6218W        W22402   4.018   8.958  13.866  0.0535 -0.0657 -0.2561
 6219W        W22403   5.063   5.297   1.424 -0.2227  0.1664  0.0197
 6220W        W22404   0.199   4.604   1.662  0.3213 -0.2847  0.2476
 6221W        W22405  14.156   2.532   0.932 -0.2280  0.0838  0.1534
 6222W        W22406  12.492   6.053   0.771  0.0812  0.1615  0.1696
 6223W        W22407  12.182   1.731   0.848  0.1261 -0.1073  0.0257
 6224W        W22408   6.780   9.427  16.866 -0.2679  0.1062  0.1367
 6225W        W22409  14.601   4.640  16.333  0.3289 -0.0229 -0.0642
 6226W        W22410   5.288  15.739   3.813  0.2153  0.0990 -0.0861
 6227W        W22411  17.367  13.852  14.585  0.0454 -0.0777 -0.0266
 6228W        W22412   6.578  11.036   4.372 -0.1937 -0.1635 -0.1270
 6229W        W22413   9.405   2.795   4.331  0.1663 -0.2970  0.0551
 6230W        W22414  11.497   7.060   1.571  0.0092 -0.1468 -0.2509
 6231W        W22415  11.448  11.086  16.516  0.0223  0.2839  0.2356
 6232W        W22416   5.194   8.990   1.305  0.0320 -0.1380 -0.0105
 6233W        W22417   1.959  17.538  16.004 -0.0735 -0.0182 -0.0039
 6234W        W22418  14.706  10.031  12.122 -0.1178 -0.2582  0.3686
 6235W        W22419   7.732   5.527  15.937 -0.0033  0.1276 -0.1027
 6236W        W22420   1.276  10.235   2.479 -0.0560  0.2660 -0.0498
 6237W        W22421  14.379   8.577  12.504 -0.2175 -0.0065  0.0617
 6238W        W22422   9.877   5.821  11.619  0.0571  0.0460 -0.0985
 6239W        W22423  17.759   7.625   4.106 -0.0738  0.3354  0.1944
 6240W        W22424   6.245   5.354  12.321 -0.0368 -0.1765  0.0147
 6241W        W22425   6.985   3.685  13.487 -0.0926 -0.0157 -0.0710
 6242W        W22426   2.427  16.171   4.949  0.1550 -0.1201 -0.3445
 6243W        W22427   1.063  17.296  15.098 -0.3455  0.1282  0.1818
 6244W        W22428   5.380  12.208  16.265  0.3478 -0.0346 -0.0835
 6245W        W22429   4.917  17.390  15.410  0.1997 -0.0383 -0.1948
 6246W        W22430   3.335   5.859   2.678  0.0731 -0.2975 -0.1026
 6247W        W22431  14.507  17.559  13.289 -0.1795 -0.1634  0.0786
 6248W        W22432   0.121   9.375  12.750  0.0512  0.0347  0.4420
 6249W        W22433   9.632   2.144  13.906  0.0860  0.1997  0.2083
 6250W        W22434   4.772  12.728   2.790 -0.0473 -0.0317  0.2427
 6251W        W22435   4.632  10.449  14.684 -0.1678 -0.2594  0.1712
 6252W        W22436  15.390   1.683  13.941  0.3541 -0.2342  0.0340
 6253W        W22437  14.931  10.566  15.826 -0.1890 -0.0132  0.0026
 6254W        W22438   2.815   4.571  13.069 -0.0604  0.3242 -0.1116
 6255W        W22439  12.110  15.007  16.511 -0.1953  0.2710  0.1005
 6256W        W22440  14.324   8.517   0.161  0.0441 -0.0201  0.2969
 6257W        W22441   8.161  14.913  15.045  0.1476  0.1192 -0.1382
 6258W        W22442   9.487  11.559   2.333 -0.0557 -0.0621  0.0982
 6259W        W22443  13.780  11.397   5.414 -0.0700 -0.1901 -0.0306
 6260W        W22444  15.489   2.238   0.642 -0.4190 -0.3134  0.0344
 6261W        W22445   6.021  17.660  15.612  0.0152  0.1193 -0.3223
 6262W        W22446  16.103   9.005   3.270  0.0834  0.3274  0.0338
 6263W        W22447  14.591  12.268  15.693  0.3837 -0.1406  0.3449
 6264W        W22448   2.327   6.245   0.178 -0.3333  0.2686  0.0690
 6265W        W22449   1.294   1.489   4.766  0.1036 -0.0223  0.2953
 6266W        W22450   1.798   1.892  12.255 -0.0433  0.0978 -0.2261
 6267W        W22451   6.592   9.700  12.628 -0.2916  0.0376 -0.2201
 6268W        W22452   3.275   6.224  14.992  0.1764  0.1599  0.1850
 6269W        W22453   7.068  15.866   0.918  0.0446 -0.3819  0.1057
 6270W        W22454  17.145  11.866  15.835 -0.1788 -0.0407  0.2740
 6271W        W22455  10.436  16.281   1.533 -0.1596  0.0534 -0.1385
 6272W        W22456  11.644  14.538   1.589 -0.0178 -0.0752 -0.0732
 6273W        W22457  11.825  12.142   4.257  0.2677 -0.2893  0.0718
 6274W        W22458   5.719   2.751  13.566  0.2791 -0.0468 -0.2424
 6275W        W22459   8.069   8.466   4.536  0.0595 -0.2673 -0.2010
 6276W        W22460   2.632   6.371   6.416 -0.2992 -0.1448  0.4388
 6277W        W22461   4.139  13.795  15.874 -0.0367  0.0090  0.0743
 6278W        W22462  15.158   7.560   4.488  0.0474  0.2043 -0.0956
 6279W        W22463  12.664   8.838   3.636 -0.0872  0.0133 -0.0574
 6280W        W22464  11.770   6.063   1.870  0.0937  0.1957  0.1543
 6281W        W22465   3.587  17.347  14.865  0.1965 -0.1425 -0.0507
 6282W        W22466   6.064   1.308  15.807  0.0841  0.1554 -0.0121
 6283W        W22467  12.762   6.551   4.279 -0.0024 -0.0267 -0.0181
 6284W        W22468  13.972  10.110   2.733 -0.0902 -0.1775 -0.2000
 6285W        W22469   5.709   5.986   2.245 -0.1951 -0.0359 -0.0980
 6286W        W22470   1.657  16.208  14.543 -0.0232 -0.1284  0.1710
 6287W        W22471   2.557  14.789  15.433 -0.0420 -0.0791 -0.1503
 6288W        W22472   8.724   1.464   5.672  0.0015  0.0644 -0.1648
 6289W        W22473   9.710  16.215   1.457 -0.0286  0.3193 -0.0283
 6290W        W22474   4.123  10.510   1.120  0.2324  0.2012 -0.1057
 6291W        W22475   0.241  13.312   6.145 -0.0957 -0.2584 -0.1807
 6292W        W22476   8.424   5.792  15.706  0.0989 -0.0738  0.2950
 6293W        W22477   8.605  12.149   4.560  0.0998 -0.0904 -0.0501
 6294W        W22478   4.658   3.716  15.227 -0.0903  0.1502 -0.0833
 6295W        W22479  17.125  11.643  13.936  0.0927  0.1641  0.2914
 6296W        W22480  11.912   6.811  11.384 -0.0838 -0.1560 -0.3012
 6297W        W22481   3.204   3.965   3.262 -0.2101 -0.1226  0.0373
 6298W        W22482  15.176   7.087   1.151  0.0280 -0.0096 -0.2330
 6299W        W22483   9.993   9.516   3.394 -0.0927  0.0514 -0.0758
 6300W        W22484  10.423   6.498   4.127 -0.1602  0.0224  0.0844
 6301W        W22485   4.625   3.163  13.083  0.0541 -0.2118  0.3017
 6302W        W22486  10.439   4.257  16.327 -0.0761  0.1326  0.1696
 6303W        W22487  13.128   7.407   4.015 -0.1229 -0.1821  0.2477
 6304W        W22488  10.201   3.732   4.346  0.0957 -0.1715 -0.0663
 6305W        W22489  13.222   6.336  11.872 -0.0961 -0.1115  0.3752
 6306W        W22490  12.260   3.517  15.378  0.1773 -0.1340  0.4260
 6307W        W22491   1.885  11.042  14.895 -0.2128  0.1532  0.0441
 6308W        W22492  10.459  11.065   3.932  0.0252  0.1132  0.2741
 6309W        W22493  15.112  10.031  15.242 -0.2881 -0.3066 -0.0201
 6310W        W22494  15.708  10.052  15.850  0.1481  0.0632 -0.1049
 6311W        W22495   0.032   9.988   5.211  0.1265 -0.3286  0.4127
 6312W        W22496   3.240   5.378  13.956  0.3546 -0.0068  0.0613
 6313W        W22497  17.164  12.473  13.406 -0.0149 -0.1599 -0.2750
 6314W        W22498   0.558   6.604  15.531 -0.3820 -0.0466 -0.2432
 6315W        W22499  12.202   7.020   2.599  0.0045 -0.3229 -0.1339
 6316W        W22500   9.551  10.610  13.096  0.4281 -0.6587  0.2101
 6317W        W22501   4.737   3.685  16.851  0.0505  0.1414  0.0286
 6318W        W22502   5.356   3.850   3.700 -0.1767  0.3546  0.0598
 6319W        W22503   2.221   5.373   1.337  0.1788 -0.1948  0.3119
 6320W        W22504   3.218   9.223  12.700  0.1632  0.0772  0.0491
 6321W        W22505   7.814  14.697  12.723  0.2826  0.0696  0.1716
 6322W        W22506  15.772   4.821   0.669  0.0376  0.0854 -0.2320
 6323W        W22507  15.339  15.381  14.285 -0.1364  0.0539  0.0903
 6324W        W22508  13.770   1.755   6.227  0.1334  0.0100 -0.2751
 6325W        W22509   1.864  15.225   2.062  0.0436 -0.0633 -0.3602
 6326W        W22510  10.753  15.715  16.263  0.0519  0.0389  0.0466
 6327W        W22511   3.457   9.936   5.546  0.0140 -0.1606 -0.0878
 6328W        W22512  10.300  12.839  12.991 -0.0973 -0.0674  0.2825
 6329W        W22513  13.084   8.951   1.914 -0.0479 -0.1377  0.1258
 6330W        W22514   6.944  13.433   4.430 -0.0009  0.1229 -0.1571
 6331W        W22515   3.130   6.385   5.093 -0.1672  0.1915  0.1000
 6332W        W22516   6.666   3.999   1.588 -0.3864 -0.2474  0.0100
 6333W        W22517   8.288   0.377   5.337 -0.0500 -0.4968 -0.1014
 6334W        W22518  10.468  14.465   4.347 -0.0370 -0.0974  0.0998
 6335W        W22519   7.302   5.575  16.620 -0.2456  0.1980 -0.0786
 6336W        W22520  16.586   7.759   0.853  0.0414  0.1608 -0.0560
 6337W        W22521   8.215   0.915  12.209 -0.1213 -0.1577 -0.2265
 6338W        W22522  11.398  17.662   3.510 -0.4849 -0.0897  0.2533
 6339W        W22523   7.247   5.306   1.062 -0.1082 -0.0690 -0.1354
 6340W        W22524   9.293   0.808  15.982 -0.1276 -0.1027  0.1708
 6341W        W22525   1.616   5.893  14.127  0.1337 -0.0499  0.0689
 6342W        W22526   0.810   8.087   0.239  0.0968  0.1714  0.2603
 6343W        W22527   4.136  14.950   2.751  0.0189 -0.3198 -0.1517
 6344W        W22528  13.310  11.123   1.778 -0.3359 -0.1775  0.1084
 6345W        W22529  17.039   0.497  11.734 -0.0438 -0.0476  0.1757
 6346W        W22530   6.839  17.626   0.463  0.0957  0.2022  0.0679
 6347W        W22531  13.419   3.940  16.038  0.2326 -0.0450  0.2363
 6348W        W22532   5.811  15.373  15.557 -0.1324 -0.3436 -0.0511
 6349W        W22533   2.533   1.665  15.619  0.1900 -0.0231 -0.0423
 6350W        W22534   5.918  16.446  12.263  0.1551  0.1398 -0.0841
 6351W        W22535   1.944  17.124  14.563  0.0959 -0.0838 -0.1435
 6352W        W22536  10.253   4.608  11.163  0.0500 -0.2607 -0.1523
 6353W        W22537   1.589  12.687   4.501 -0.0923 -0.0889 -0.0895
 6354W        W22538  14.792  14.189   5.874 -0.1482  0.0450  0.0227
 6355W        W22539  11.824   8.744  14.539  0.3002 -0.4000 -0.1963
 6356W        W22540  13.576  13.718   5.154  0.0936 -0.0051 -0.1641
 6357W        W22541   7.448   4.903  12.807  0.0401  0.0325 -0.1355
 6358W        W22542  16.616   7.010   4.060  0.3935 -0.0647 -0.3525
 6359W        W22543  14.992  10.414  16.578  0.1510 -0.1429 -0.1252
 6360W        W22544   5.710   1.222  10.904 -0.5200  0.2193 -0.1915
 6361W        W22545  13.277  15.555   3.469  0.0201  0.1124 -0.1255
 6362W        W22546  10.753   6.032   3.589 -0.4682 -0.1621  0.0304
 6363W        W22547   3.437   1.692   1.787  0.4581  0.0507  0.1826
 6364W        W22548   9.360   8.213  15.967  0.1281  0.3780  0.0679
 6365W        W22549   2.718  14.154   4.299 -0.1366  0.1519 -0.2754
 6366W        W22550   2.145  10.605   0.419 -0.0182 -0.1377  0.0781
 6367W        W22551   3.411  16.007  13.089 -0.3342  0.1110 -0.1543
 6368W        W22552   6.109  16.633   1.810 -0.5314  0.2156  0.2236
 6369W        W22553   9.669  11.585   5.506 -0.2159 -0.1214  0.0515
 6370W        W22554  11.368  11.488   0.587  0.0469 -0.2371 -0.0964
 6371W        W22555  16.103   7.224   2.506 -0.0452 -0.0758 -0.1649
 6372W        W22556   6.057   6.254  16.050  0.0832 -0.1571  0.1139
 6373W        W22557   5.733   7.475   2.658 -0.2767 -0.0544  0.1918
 6374W        W22558   7.703   2.974   0.872 -0.2050 -0.1869 -0.0079
 6375W        W22559   1.492  15.002  11.808 -0.1364 -0.0849 -0.0666
 6376W        W22560  15.612  14.015  11.793  0.1567  0.2261  0.3157
 6377W        W22561   6.301   9.297  11.770 -0.0535 -0.0388 -0.0763
 6378W        W22562  10.074  17.299   5.620 -0.2306 -0.3593  0.0846
 6379W        W22563  11.861  15.337  16.713  0.0300 -0.0877  0.0945
 6380W        W22564  10.263  12.408  14.283  0.1464 -0.1614 -0.0472
 6381W        W22565   0.731   3.294   3.539  0.1675 -0.2216 -0.0274
 6382W        W22566   6.519  12.370   4.485  0.1667  0.0184  0.1787
 6383W        W22567   4.936   4.836   3.499  0.0883  0.1362  0.0552
 6384W        W22568   6.200  16.793  12.733 -0.0433  0.0199 -0.2683
 6385W        W22569   8.455   6.851  13.530  0.1644 -0.1483 -0.1469
 6386W        W22570   0.408   4.205   1.805 -0.2186  0.0039  0.2090
 6387W        W22571   5.127   9.562  15.728  0.2981  0.1279 -0.2712
 6388W        W22572  11.958   7.011  12.007  0.0815 -0.1441 -0.1057
 6389W        W22573   0.410  12.657  14.516 -0.1045 -0.3052 -0.0136
 6390W        W22574   0.298  12.310   4.652  0.1067  0.0521  0.1180
 6391W        W22575   9.740   0.469   5.647  0.1571  0.0218  0.0228
 6392W        W22576   0.979   8.222   3.677  0.2113  0.1234 -0.1107
 6393W        W22577  13.023   4.439   3.855  0.0044 -0.1511 -0.4130
 6394W        W22578  17.066  10.411  13.385  0.3007  0.1251  0.3606
 6395W        W22579   2.985   9.389   3.424  0.1358 -0.1872 -0.3531
 6396W        W22580   1.598  11.857   1.564 -0.0245 -0.3916 -0.3305
 6397W        W22581  14.119  11.498   5.859 -0.1004  0.2347 -0.1408
 6398W        W22582   3.788  12.925  11.207  0.0601 -0.2526 -0.0953
 6399W        W22583  10.786  13.254  12.759 -0.2609 -0.1743  0.2405
 6400W        W22584   1.357  14.595  12.780  0.1406  0.1089 -0.1298
 6401W        W22585   1.086   3.972  13.224 -0.1095 -0.2090  0.0194
 6402W        W22586   2.700  12.061   4.259 -0.0820 -0.0857  0.2468
 6403W        W22587   2.731  14.823  14.933 -0.0414  0.0028 -0.0743
 6404W        W22588   3.525  14.658  11.692 -0.1759  0.0395 -0.1285
 6405W        W22589  15.372   9.432   5.990 -0.3233  0.0579  0.1960
 6406W        W22590   0.515   0.121  14.037  0.2128 -0.0124 -0.1213
 6407W        W22591   0.619  16.345   0.156  0.1333  0.3719 -0.2037
 6408W        W22592   1.963   5.218   3.403 -0.0388  0.0146 -0.1511
 6409W        W22593   2.413  11.455  13.911  0.0173 -0.4360 -0.2792
 6410W        W22594  11.937   9.535  14.341  0.0346  0.2678  0.0828
 6411W        W22595  16.199   1.514   4.997  0.3031 -0.0783  0.4029
 6412W        W22596   8.288   3.394   2.692  0.1910 -0.1561 -0.3411
 6413W        W22597  13.904   3.313  14.186  0.0248  0.0252 -0.1206
 6414W        W22598   4.103  16.737  16.846 -0.1592  0.2099  0.0488
 6415W        W22599   4.933  15.541   1.671  0.1652 -0.2239 -0.2397
 6416W        W22600   4.515  17.139   1.517 -0.4054 -0.2817 -0.0974
 6417W        W22601   6.311  16.102  11.410 -0.0340  0.0600 -0.0633
 6418W        W22602  14.710   3.475   4.782 -0.0802 -0.1671 -0.0642
 6419W        W22603   3.441   6.457  14.107  0.5215 -0.2007 -0.0214
 6420W        W22604   0.580  10.160  13.111  0.1465  0.2045  0.0154
 6421W        W22605   4.827  16.054  16.069  0.0421  0.0652  0.2164
 6422W        W22606   3.856  11.512  13.392 -0.1441 -0.1387  0.0545
 6423W        W22607  12.278  15.432   2.149 -0.0477 -0.2441  0.1679
 6424W        W22608   5.397   4.503  12.573  0.0864  0.1279 -0.1249
 6425W        W22609   8.970   3.769   2.476 -0.1807 -0.0538  0.0464
 6426W        W22610   9.586   1.615  15.046  0.1611 -0.1341 -0.3545
 6427W        W22611   1.364  16.079   2.584 -0.0498  0.2108  0.3007
 6428W        W22612   8.994  13.524   4.151  0.1369  0.1366  0.1075
 6429W        W22613  11.673  15.791  16.646  0.0182 -0.1616 -0.1017
 6430W        W22614   2.776   4.861   3.251 -0.0399  0.0179 -0.1926
 6431W        W22615   2.106   7.997  14.487 -0.0165 -0.0146  0.0843
 6432W        W22616   2.352  16.507  11.563  0.0158  0.0514 -0.0065
 6433W        W22617   8.780   9.176  16.147 -0.0128 -0.0749 -0.1474
 6434W        W22618  14.968  12.222  12.069 -0.0123  0.0943 -0.0844
 6435W        W22619  12.051  16.252  11.524  0.0522 -0.2162  0.1293
 6436W        W22620   5.271   7.414   2.396  0.0914  0.0487  0.0776
 6437W        W22621  17.137   7.826   2.195 -0.0748 -0.1341 -0.0779
 6438W        W22622  17.042   6.790   1.137 -0.0387  0.2390 -0.1140
 6439W        W22623  10.943   5.965   1.588 -0.1197 -0.0149 -0.2049
 6440W        W22624   0.422   3.371   5.312  0.1279  0.1015 -0.0280
 6441W        W22625   5.152   1.714   5.118  0.3136 -0.0802 -0.0817
 6442W        W22626  15.993   7.640  16.885 -0.2238 -0.1370  0.0565
 6443W        W22627   5.204   3.302  11.845 -0.1048 -0.0927 -0.3492
 6444W        W22628  11.539  17.024  15.257 -0.0764 -0.0675 -0.1890
 6445W        W22629   5.072   5.153   2.375 -0.0440  0.0353 -0.0555
 6446W        W22630  15.264  15.808   1.623  0.0131 -0.3281  0.0523
 6447W        W22631  16.304   3.298  15.334 -0.0157  0.1543  0.0107
 6448W        W22632   8.063   4.981   1.440  0.2372  0.2367 -0.2563
 6449W        W22633  12.932   5.739   3.499 -0.1382 -0.4520  0.0258
 6450W        W22634   7.552   6.638   1.688 -0.1145  0.2970  0.0754
 6451W        W22635  17.530   4.457  16.631 -0.1696 -0.4097 -0.0069
 6452W        W22636   3.370   1.194  12.672  0.0119  0.2125 -0.0448
 6453W        W22637   0.566   3.006  15.814  0.2042  0.2151 -0.0370
 6454W        W22638  13.150   5.274   3.532 -0.1629  0.0757 -0.1272
 6455W        W22639   5.809   6.839   4.322  0.0643 -0.3624 -0.0437
 6456W        W22640  14.280   9.572  15.191  0.0011  0.1604 -0.0327
 6457W        W22641  17.491   0.208  16.199 -0.2273 -0.0023  0.0809
 6458W        W22642   3.022   1.290  13.481  0.1672  0.0169  0.0618
 6459W        W22643   2.856   4.736  11.576  0.0424 -0.2236  0.0110
 6460W        W22644   5.295   5.448   6.089 -0.1059  0.3239  0.0704
 6461W        W22645  17.036   1.391   2.655  0.2076  0.0789 -0.2993
 6462W        W22646   9.309  11.401   0.399  0.1873  0.0854  0.1037
 6463W        W22647   5.245  14.750   0.686  0.1817  0.1900  0.1476
 6464W        W22648   1.491  10.417  13.345  0.1182  0.0733 -0.3971
 6465W        W22649   6.517   8.413   1.221  0.0958  0.0456  0.0280
 6466W        W22650   4.072  14.372  11.068 -0.0302 -0.0164 -0.1086
 6467W        W22651   1.493   3.505   2.151  0.0217 -0.2258 -0.0605
 6468W        W22652   2.313   0.458   5.067  0.2393 -0.2522 -0.1308
 6469W        W22653   7.680  16.901  15.522 -0.0352  0.2127  0.0397
 6470W        W22654  14.484  13.430  14.086  0.0233 -0.0730 -0.0805
 6471W        W22655  10.166   0.406   3.429 -0.0102 -0.1341  0.0067
 6472W        W22656   5.968  16.494   0.926  0.1049 -0.2379  0.1245
 6473W        W22657   5.238   0.642   3.257  0.2164 -0.4882  0.2393
 6474W        W22658  13.971   5.566   2.982 -0.2970 -0.0909 -0.1284
 6475W        W22659   7.893  12.229   3.100  0.0656 -0.2713 -0.1325
 6476W        W22660  17.864  14.586  12.852 -0.0588  0.0553 -0.1488
 6477W        W22661   8.014   8.750   5.396 -0.1186  0.1330  0.0989
 6478W        W22662   2.967   1.915  12.419  0.0190 -0.1569 -0.1468
 6479W        W22663   9.506  10.511  13.575 -0.3116 -0.0684  0.1249
 6480W        W22664   0.895  15.991   4.083  0.0421 -0.0167  0.3247
 6481W        W22665  13.000   5.169  12.372 -0.2404 -0.2675  0.1035
 6482W        W22666   7.832  10.041   5.317  0.0138 -0.0840  0.1577
 6483W        W22667  17.036   7.814  15.827  0.0494  0.0900  0.1133
 6484W        W22668  13.565  15.013  16.924  0.0939 -0.0255 -0.0100
 6485W        W22669   3.988   9.126   0.914 -0.2024  0.1000 -0.1899
 6486W        W22670   4.648  16.026  12.453 -0.2161 -0.1370 -0.3243
 6487W        W22671  11.184   0.740   1.562 -0.2795  0.3732 -0.0987
 6488W        W22672   4.441   6.198  14.271  0.2559 -0.2644 -0.0509
 6489W        W22673   4.315   5.471  12.739 -0.2435 -0.1280 -0.0611
 6490W        W22674   5.830   2.848   1.854 -0.1824  0.0147  0.0851
 6491W        W22675   7.641  17.867   5.839 -0.2538  0.0439 -0.1321
 6492W        W22676  14.518   9.466  16.039  0.0089 -0.2525  0.0180
 6493W        W22677   7.540   5.740  14.729 -0.4337 -0.1208  0.0753
 6494W        W22678   9.866   7.057  14.328 -0.1024 -0.1596 -0.2263
 6495W        W22679  10.873   7.964   1.567  0.0045  0.0556 -0.0072
 6496W        W22680  16.762   6.153  12.483 -0.0430 -0.1711  0.2479
 6497W        W22681  17.776   0.131  11.919 -0.0310  0.0162 -0.3362
 6498W        W22682  17.202  16.522  12.665  0.3494  0.0792 -0.1299
 6499W        W22683  16.329   9.810   3.394 -0.0466 -0.0787 -0.0970
 6500W        W22684   1.211   8.232  12.180 -0.1390 -0.1737 -0.0825
 6501W        W22685  15.858  12.370   2.381  0.1800 -0.2485 -0.5186
 6502W        W22686   1.141  16.475  14.120  0.0803  0.1080  0.3630
 6503W        W22687  16.708   6.044  14.322 -0.0445  0.2634  0.0562
 6504W        W22688   2.869   6.924   3.948 -0.0278  0.3319  0.1764
 6505W        W22689  10.484   2.010   0.586 -0.3002 -0.0374 -0.0083
 6506W        W22690   3.044  16.457   4.203  0.0574 -0.1370 -0.0971
 6507W        W22691   7.226  11.737  10.522 -0.0996  0.0924 -0.0962
 6508W        W22692   3.384   6.801  11.855 -0.1489 -0.0546  0.2640
 6509W        W22693   7.893   3.128  12.548 -0.0110  0.0931 -0.2224
 6510W        W22694  11.357  14.059  16.541  0.0279  0.2015 -0.1847
 6511W        W22695   6.300   4.715   1.098 -0.0533 -0.0012  0.2588
 6512W        W22696  16.796   7.674   5.783  0.1456  0.0478  0.0961
 6513W        W22697  17.671  12.253  14.410 -0.1376  0.1855 -0.2403
 6514W        W22698   7.420   8.607   3.641  0.1461 -0.1934  0.4612
 6515W        W22699   6.078  10.224   0.385 -0.0994 -0.1590  0.1701
 6516W        W22700   9.609   3.851  12.476  0.3919 -0.2655 -0.1259
 6517W        W22701   8.073  15.934   1.485  0.1085 -0.0942  0.0985
 6518W        W22702   5.791   1.950  15.496 -0.0720  0.2785 -0.0532
 6519W        W22703   2.040  10.416   2.464  0.0749 -0.0119  0.0275
 6520W        W22704   8.059   6.489   5.599 -0.1260 -0.0908 -0.1549
 6521W        W22705  10.411   5.740  16.068  0.0648  0.0768  0.0951
 6522W        W22706  13.597   0.839   2.385 -0.1004 -0.2104 -0.0950
 6523W        W22707   0.667   8.979   5.898  0.3508 -0.1664 -0.1674
 6524W        W22708   4.192   3.034   1.874  0.0254 -0.0657 -0.2829
 6525W        W22709   6.309  13.605   2.990 -0.0466 -0.2372 -0.0053
 6526W        W22710  10.785   4.874   1.271  0.0838 -0.1901 -0.0485
 6527W        W22711  11.443   1.059   3.343 -0.2628 -0.1776  0.1140
 6528W        W22712  11.201   5.312   4.330 -0.3941 -0.2300 -0.1099
 6529W        W22713   4.429  16.435   0.865  0.0335 -0.1260 -0.0627
 6530W        W22714   5.809  17.304   3.880  0.2072  0.2428 -0.3687
 6531W        W22715   3.756  14.906   5.244 -0.0858  0.2039 -0.0371
 6532W        W22716   7.565  13.706   0.260  0.2099  0.0993  0.2405
 6533W        W22717   5.177   0.945   1.302 -0.0673 -0.0632 -0.1535
 6534W        W22718  12.460   9.588  14.471 -0.1710  0.1588 -0.3432
 6535W        W22719   9.622  16.732  13.917  0.1137 -0.1578  0.0830
 6536W        W22720   1.131  12.556   1.349 -0.4249 -0.1730  0.2298
 6537W        W22721   3.917  14.595   0.122  0.0022 -0.2585  0.2306
 6538W        W22722  15.366   9.662  13.936  0.0421 -0.0302  0.0363
 6539W        W22723   6.417   0.974  11.448  0.0166 -0.0282 -0.1362
 6540W        W22724   9.508   1.295  15.883 -0.3265  0.0841  0.0695
 6541W        W22725   8.234  15.850   0.118  0.0528 -0.2677  0.1500
 6542W        W22726  12.164   7.743   4.071  0.0255 -0.2588 -0.0366
 6543W        W22727   9.146   1.523  11.440  0.0481  0.0177  0.4270
 6544W        W22728   0.344  11.758   1.015 -0.4554  0.0614 -0.1724
 6545W        W22729   9.814   2.653  14.488  0.0813 -0.1970  0.1158
 6546W        W22730  12.514  15.140  16.810 -0.0987 -0.2211 -0.0255
 6547W        W22731   7.652  11.883   5.525 -0.0455 -0.3315 -0.1617
 6548W        W22732   3.634  15.047   2.765  0.4806 -0.0397  0.1221
 6549W        W22733   7.423  17.666   2.972  0.0139 -0.0725 -0.0610
 6550W        W22734   2.549   7.635  12.932  0.1228 -0.1787  0.0894
 6551W        W22735  13.256   2.954   4.453 -0.1689  0.0588  0.1014
 6552W        W22736   9.305  11.145   4.414 -0.1242  0.0903 -0.0320
 6553W        W22737  17.601   8.913   2.086  0.0580 -0.3464  0.1955
 6554W        W22738  11.809  12.239  15.515 -0.3402 -0.3529 -0.1247
 6555W        W22739  13.062   4.114  14.132  0.0504 -0.1257  0.1210
 6556W        W22740   5.839   1.168   5.409 -0.1484  0.0607  0.1029
 6557W        W22741   6.760   8.120  12.547 -0.1235 -0.2047 -0.0108
 6558W        W22742  11.198   1.523   1.702 -0.3368  0.3411  0.1597
 6559W        W22743   0.485  15.296  15.806  0.2734  0.2471 -0.0305
 6560W        W22744   0.188   8.241  14.983  0.0388  0.0969  0.2036
 6561W        W22745  14.576  14.557   6.616  0.1361 -0.1147  0.1285
 6562W        W22746   8.443  10.726  15.488 -0.3511 -0.1849  0.2411
 6563W        W22747  14.664  14.425  13.312 -0.1904  0.0896  0.0362
 6564W        W22748  14.261  14.399   3.320 -0.0854  0.2099 -0.1658
 6565W        W22749  10.435   9.814   2.173  0.0015 -0.0316  0.1297
 6566W        W22750   0.447   8.402   4.603  0.3466 -0.1331  0.0194
 6567W        W22751  10.979   2.046  15.598  0.2467  0.1506  0.2595
 6568W        W22752   8.025  13.732   1.117  0.2363  0.2402  0.5262
 6569W        W22753   8.448   7.613  14.293  0.0449  0.1229 -0.1987
 6570W        W22754  10.891  14.862   1.419  0.0117  0.1482  0.0189
 6571W        W22755   1.566  13.085  16.506  0.2357  0.0976  0.1482
 6572W        W22756  16.514  15.426   4.174 -0.1085 -0.0885 -0.1999
 6573W        W22757  12.938   5.617   4.399  0.0685  0.1016  0.0803
 6574W        W22758  10.106  16.112   2.382 -0.0229  0.0058  0.1093
 6575W        W22759   0.005   5.191  14.318 -0.1235 -0.1584  0.0921
 6576W        W22760   5.116   5.352  12.858 -0.2230 -0.0472  0.1461
 6577W        W22761  16.211   1.796  15.025  0.1672  0.0315 -0.2267
 6578W        W22762   3.284   9.776   2.153 -0.0602  0.2399  0.0997
 6579W        W22763   4.057   0.521  12.159  0.2753 -0.2285 -0.3084
 6580W        W22764  16.159   1.150   2.013 -0.0814  0.0738 -0.0278
 6581W        W22765   6.656  12.057  16.214 -0.0110  0.1468  0.1519
 6582W        W22766   6.232  17.487  13.962 -0.2258  0.1014 -0.1662
 6583W        W22767   9.806   5.477  12.110 -0.0197  0.3366 -0.1381
 6584W        W22768  12.005  14.901   2.817 -0.0909  0.0579 -0.1285
 6585W        W22769   5.992  15.430   4.816  0.0045 -0.1040 -0.1849
 6586W        W22770   9.858  14.128   2.056 -0.1897  0.3168 -0.4007
 6587W        W22771  15.074   4.007  12.629  0.2297  0.0561 -0.0911
 6588W        W22772   9.722   2.289  14.826 -0.0321 -0.2229 -0.0823
 6589W        W22773   3.483  16.651   1.066  0.2583  0.1692 -0.1423
 6590W        W22774   2.043  14.648  15.443  0.0560  0.0541 -0.0344
 6591W        W22775   4.228   3.509   5.057  0.2997  0.0290  0.2579
 6592W        W22776  11.142   2.058   1.777  0.1720  0.1168 -0.0560
 6593W        W22777   3.978   0.098  14.052 -0.1030  0.0135  0.0673
 6594W        W22778  10.572   5.990  13.585 -0.1073 -0.2106  0.3783
 6595W        W22779   4.165  12.806  15.940  0.0874 -0.0156  0.2064
 6596W        W22780  17.019  15.176   5.102  0.0606 -0.3078 -0.0869
 6597W        W22781  16.926  13.779   2.441  0.1754  0.1763 -0.0338
 6598W        W22782   8.124   8.182   3.291 -0.0438  0.0580 -0.0650
 6599W        W22783  15.199  11.799  14.534  0.0865  0.0754 -0.1172
 6600W        W22784  11.707   6.630  14.493  0.0795  0.1919 -0.1703
 6601W        W22785   7.351   4.568  13.690 -0.0252 -0.1120  0.0916
 6602W        W22786  17.024   1.714   3.421  0.0945  0.0224 -0.1120
 6603W        W22787   6.857   7.548  16.463 -0.1682 -0.2435  0.0176
 6604W        W22788  10.920  12.094   2.685 -0.0621  0.0751  0.0960
 6605W        W22789   8.640   7.395   2.180 -0.1342  0.0551 -0.1063
 6606W        W22790   8.933   5.149   2.860 -0.0114  0.1836  0.2807
 6607W        W22791   9.416  13.126  14.488 -0.1998 -0.0802 -0.0766
 6608W        W22792   2.190   8.644   0.857  0.0701 -0.0290  0.0827
 6609W        W22793   1.635   3.600   3.153  0.0504  0.0521  0.0110
 6610W        W22794  11.021  14.500  15.747 -0.1227  0.3306  0.1124
 6611W        W22795   3.595  15.974   3.879  0.2234 -0.0684  0.1630
 6612W        W22796   3.473   2.207  15.975  0.1016 -0.3918 -0.1727
 6613W        W22797   5.660  15.132   5.469 -0.2548  0.0181 -0.0525
 6614W        W22798  10.679  10.718   4.300 -0.1654  0.1596 -0.1839
 6615W        W22799   9.827   3.443  12.272 -0.0920  0.1034 -0.3013
 6616W        W22800  14.322  10.134   5.649  0.0232 -0.0084 -0.0108
 6617W        W22801   1.490   4.447   2.937 -0.2869  0.1163 -0.0181
 6618W        W22802   9.896   4.006   5.700  0.0013  0.0279 -0.1068
 6619W        W22803   9.631   5.673   5.305  0.1256 -0.0941  0.0214
 6620W        W22804   2.302   0.890  14.288 -0.0756  0.0103  0.1326
 6621W        W22805   4.698   3.277   4.994 -0.0657  0.1383 -0.0047
 6622W        W22806  17.361   0.484  15.163 -0.1944  0.2667  0.0843
 6623W        W22807  13.982  11.321  14.819  0.3388  0.0462 -0.1590
 6624W        W22808  14.590   6.924  13.067 -0.1764 -0.0117 -0.2357
 6625W        W22809  14.766   3.115   4.310 -0.2653 -0.3070 -0.2013
 6626W        W22810  14.278  14.074   3.892  0.1195  0.2458 -0.0665
 6627W        W22811   1.794   2.439  15.643 -0.1154  0.0907  0.2200
 6628W        W22812  16.400   8.586  15.421 -0.0937 -0.2478  0.2313
 6629W        W22813   2.788  16.531  12.520  0.0195  0.0292  0.2313
 6630W        W22814  12.372   1.234   5.536  0.1372 -0.0131  0.1624
 6631W        W22815   9.868   7.743  14.219  0.3836 -0.2293 -0.2352
 6632W        W22816   0.152  14.389   1.715 -0.0142  0.2303  0.3397
 6633W        W22817   0.907  15.033  13.354 -0.0800 -0.0428 -0.0115
 6634W        W22818  11.039  15.470  11.807  0.0442 -0.3629  0.0806
 6635W        W22819  10.901   7.254   4.359  0.0592 -0.0849 -0.0374
 6636W        W22820  13.773   7.513   3.799 -0.0723 -0.0859  0.3490
 6637W        W22821   3.314   9.152   5.581 -0.0230 -0.1193  0.1590
 6638W        W22822   7.660  16.245   2.213 -0.1023  0.1020 -0.0385
 6639W        W22823  10.259  13.074   0.052 -0.0576 -0.1840 -0.0595
 6640W        W22824  11.671   3.120   0.088  0.1508 -0.0846 -0.2090
 6641W        W22825  12.036   1.025   1.949  0.0441  0.0294 -0.0619
 6642W        W22826  12.511  13.748   5.463  0.1121 -0.2187 -0.1840
 6643W        W22827   5.015   1.798   1.898 -0.1853 -0.2553 -0.1038
 6644W        W22828   2.454   6.900  15.331  0.2700 -0.0453  0.0244
 6645W        W22829  14.284  16.365   1.567 -0.0557  0.1186  0.0162
 6646W        W22830  12.075   5.213   5.239  0.2548  0.0048  0.1793
 6647W        W22831   4.924   7.924   5.467  0.2247  0.0284  0.0637
 6648W        W22832  11.614   0.767   1.795  0.0306  0.1057 -0.1817
 6649W        W22833   6.839   9.530   2.616  0.1940  0.4182 -0.0775
 6650W        W22834  15.349  15.429  15.217  0.1025 -0.0870  0.1250
 6651W        W22835  16.656  12.319  12.736  0.3964 -0.1598 -0.3144
 6652W        W22836  16.620   8.622  12.190  0.2358 -0.1041  0.0682
 6653W        W22837  16.460   3.307   4.963  0.3042 -0.1032 -0.1916
 6654W        W22838   9.159  10.132  14.330  0.1590  0.2698 -0.0470
 6655W        W22839  15.767   8.806   3.648  0.2461 -0.2411  0.1609
 6656W        W22840  12.453   9.500  16.059 -0.2228 -0.1005 -0.0987
 6657W        W22841  16.750   1.087  16.848  0.2285 -0.2340  0.0326
 6658W        W22842   1.699   5.476   1.384  0.0310 -0.1762  0.1532
 6659W        W22843  11.469   3.712  15.050  0.1427 -0.3898  0.1540
 6660W        W22844   1.459   3.831   4.409 -0.0606  0.2056 -0.0353
 6661W        W22845   7.294   7.669  14.061  0.0133  0.3420 -0.2061
 6662W        W22846  12.230  10.426  13.803  0.1080  0.0592 -0.0909
 6663W        W22847  10.104  15.231   2.077  0.1828 -0.1437  0.1358
 6664W        W22848   9.743   5.199   5.502  0.2359  0.0556 -0.2062
 6665W        W22849   8.602  15.771  13.369 -0.2421 -0.0405  0.0790
 6666W        W22850  10.673   9.270  16.532  0.1395  0.3370 -0.1184
 6667W        W22851  16.016   2.754  12.341 -0.0313 -0.1046 -0.0285
 6668W        W22852  11.689   0.194   3.469 -0.0679  0.0045 -0.0152
 6669W        W22853  12.703  15.435   3.323  0.0911 -0.0156 -0.2509
 6670W        W22854   7.664  17.612   2.215  0.1284 -0.0095 -0.0704
 6671W        W22855  10.130   6.940   0.562 -0.0043 -0.3553  0.1661
 6672W        W22856  14.058  16.723   1.305 -0.1828 -0.0123  0.0834
 6673W        W22857   5.477   6.962   5.180 -0.0174 -0.0015 -0.2908
 6674W        W22858   2.235  10.031  15.932  0.3110 -0.1686 -0.1455
 6675W        W22859  17.545   0.311  14.405  0.1491  0.1782 -0.3264
 6676W        W22860   0.505   1.002   3.831 -0.1456 -0.1552  0.0587
 6677W        W22861  10.239  16.875  15.250 -0.3439 -0.0646  0.0887
 6678W        W22862   9.285  13.224  15.477 -0.4097  0.2163 -0.0979
 6679W        W22863  16.578  10.471  12.297 -0.0571 -0.0106  0.0720
 6680W        W22864   9.193  15.783   5.649 -0.0872  0.1578  0.0006
 6681W        W22865   8.294   1.728   5.055 -0.3103  0.1395  0.1086
 6682W        W22866  14.308  16.620   2.795  0.0909  0.1934  0.1567
 6683W        W22867  10.828  14.404  11.443  0.0008  0.0643  0.0379
 6684W        W22868   5.924   9.614   1.075 -0.1614 -0.1972 -0.2482
 6685W        W22869  16.672   9.076   1.868  0.0860 -0.0469 -0.0147
 6686W        W22870   7.686   6.017  15.702  0.0055  0.2391 -0.2777
 6687W        W22871   2.020  12.413   4.621  0.1380 -0.0100 -0.0983
 6688W        W22872   2.561  14.239  13.505 -0.0339  0.0442 -0.0400
 6689W        W22873  16.951   7.341   2.350  0.5176  0.1737  0.1805
 6690W        W22874   2.752   6.439   5.834  0.0928  0.0026  0.2081
 6691W        W22875   5.727   9.718  12.920  0.1914  0.0462 -0.1171
 6692W        W22876  13.170  12.795  11.357  0.1918 -0.1381 -0.1879
 6693W        W22877   6.291  11.773  13.691  0.1440  0.0142 -0.0681
 6694W        W22878   8.079   7.110   6.085  0.0430 -0.2003 -0.2888
 6695W        W22879  10.426   9.153  15.132 -0.1503  0.1707  0.1200
 6696W        W22880   5.490  14.834  14.316  0.2303  0.0178  0.0647
 6697W        W22881  16.399   4.210  15.612 -0.2047  0.3398  0.0207
 6698W        W22882   9.396   0.933   0.095  0.1346  0.1685  0.2881
 6699W        W22883   1.988   8.984   3.819  0.0103  0.0451 -0.2596
 6700W        W22884  16.497   5.678  12.450  0.0468  0.0729  0.2784
 6701W        W22885   1.321  12.912   0.063  0.0696  0.0547 -0.1582
 6702W        W22886  11.687  12.530  13.122 -0.3412  0.1521 -0.1243
 6703W        W22887  16.604  12.496  16.671  0.1141 -0.0559  0.0143
 6704W        W22888  10.282   9.776   3.098 -0.2248  0.1805 -0.2423
 6705W        W22889  10.682  10.685  14.670  0.1770 -0.3274  0.1190
 6706W        W22890   8.922  17.083  12.000  0.1214 -0.0592  0.0019
 6707W        W22891   6.889   4.636   3.577  0.3934 -0.0192 -0.2149
 6708W        W22892  13.297  13.568   4.162  0.0387  0.0021  0.0463
 6709W        W22893  13.171  10.741   3.108 -0.0210  0.3393  0.3481
 6710W        W22894   0.619   2.753  11.968 -0.0955  0.2680  0.1409
 6711W        W22895  13.862  12.176  16.750  0.1090  0.0111 -0.2600
 6712W        W22896  15.332   4.530   4.652  0.0422  0.4301  0.2253
 6713W        W22897   7.330   8.706  15.060  0.1655  0.0529 -0.0131
 6714W        W22898   4.184   3.507  15.111 -0.1206 -0.0414  0.1901
 6715W        W22899  14.986   6.104   1.016 -0.4300  0.1544 -0.0001
 6716W        W22900  12.045   6.372   0.792 -0.2743  0.2595 -0.0851
 6717W        W22901   6.682   9.749   3.837  0.3403 -0.0797  0.0737
 6718W        W22902   8.130   8.719   3.395  0.1397 -0.2340  0.1053
 6719W        W22903  10.033  14.030   0.056  0.0664  0.2066  0.2348
 6720W        W22904   0.515   6.983  11.897 -0.3286  0.1581 -0.0415
 6721W        W22905   8.344  10.378  13.557  0.2293  0.1249  0.0325
 6722W        W22906   6.513   5.990  12.007  0.2615 -0.0762 -0.0267
 6723W        W22907  15.632   4.799  16.674  0.2265 -0.0162 -0.1717
 6724W        W22908   8.488   5.314   2.096  0.1181  0.1815  0.0495
 6725W        W22909   3.489   1.396   5.421 -0.2014  0.2484  0.1454
 6726W        W22910  16.905   3.106   3.819  0.0422 -0.3547  0.2655
 6727W        W22911   1.720   8.784   5.108  0.2987 -0.0540  0.0108
 6728W        W22912   0.754  13.219   0.660  0.0155 -0.1289  0.2718
 6729W        W22913   8.265  14.565   2.504  0.0326 -0.3483  0.1748
 6730W        W22914  12.812   0.990   3.056  0.0176  0.0226  0.1012
 6731W        W22915   3.219  11.679   5.073  0.0322 -0.2486 -0.3027
 6732W        W22916  10.351   9.292   3.846 -0.0762 -0.0548  0.1836
 6733W        W22917   0.513   6.115  15.664 -0.2838  0.0375  0.1947
 6734W        W22918  13.799   4.968   1.894  0.0292 -0.0934 -0.1089
 6735W        W22919  11.011  16.532  16.705 -0.1719  0.0227 -0.1220
 6736W        W22920  11.677  12.077  14.021 -0.1915  0.2964 -0.0931
 6737W        W22921   2.030  10.646  16.758 -0.1027  0.1280 -0.1237
 6738W        W22922   6.500  17.477  15.714  0.1400 -0.1593  0.1015
 6739W        W22923  13.087   7.527  13.051  0.3347  0.3006 -0.2534
 6740W        W22924   4.830  15.025   0.860  0.1792  0.1630 -0.2587
 6741W        W22925  16.166   9.832  14.767 -0.2064 -0.3242 -0.4698
 6742W        W22926   3.066   7.820   3.071 -0.1092 -0.1606  0.2193
 6743W        W22927   3.963   9.625  13.240 -0.3093  0.0609  0.3944
 6744W        W22928   3.576   3.268   1.261  0.0142  0.2168  0.1088
 6745W        W22929   8.765   5.651   4.183 -0.0457  0.0176  0.0596
 6746W        W22930  17.350   4.069   6.425 -0.0868  0.2713  0.2898
 6747W        W22931  12.530   5.753   3.247  0.1534  0.0925 -0.1502
 6748W        W22932   3.915  16.674  13.205  0.0361  0.2028  0.3364
 6749W        W22933  17.421  16.349   5.985 -0.1454 -0.1553 -0.1608
 6750W        W22934   2.760  11.819   1.393 -0.2741 -0.0474  0.1220
 6751W        W22935  16.941  15.000  15.425 -0.0413  0.2403  0.0143
 6752W        W22936   0.456  15.724  14.342 -0.1103  0.1992  0.1938
 6753W        W22937   8.539   5.523   4.871 -0.0603 -0.0078  0.0821
 6754W        W22938  11.369   0.382  15.939  0.1658 -0.1604  0.2720
 6755W        W22939   8.526  14.422   4.033  0.1956 -0.2679 -0.1941
 6756W        W22940  17.861   1.971  15.112  0.2707  0.2745 -0.2277
 6757W        W22941   2.370   6.340   2.381 -0.0509 -0.0556 -0.1359
 6758W        W22942  11.741  13.305   1.581  0.0468 -0.1287 -0.0102
 6759W        W22943   8.469  11.496  12.374 -0.1585  0.1565  0.2928
 6760W        W22944   2.952  12.269   2.185 -0.2527  0.0080  0.0157
 6761W        W22945  13.800   7.512   1.030 -0.2120 -0.0435  0.0699
 6762W        W22946  11.978   8.335  11.823 -0.1440  0.0158 -0.1445
 6763W        W22947   7.759  11.566   4.227  0.0099 -0.2645  0.1161
 6764W        W22948   8.046  17.132   2.810  0.3255  0.0467 -0.4697
 6765W        W22949  15.575  15.689  12.988 -0.0878 -0.4786 -0.0483
 6766W        W22950  13.042  17.608   2.315  0.2056  0.0628  0.1147
 6767W        W22951   9.333   4.175   3.413  0.0321 -0.0776 -0.0713
 6768W        W22952   6.997   7.481   2.190  0.0671 -0.0716  0.0709
 6769W        W22953  12.010   6.146  12.574 -0.1069  0.1574 -0.0940
 6770W        W22954   9.188  14.523   5.609 -0.2611 -0.1253 -0.0092
 6771W        W22955   5.665  17.562   4.796  0.2320 -0.0094 -0.0785
 6772W        W22956   9.085  17.443   3.309  0.0682 -0.0253 -0.2897
 6773W        W22957   9.612   6.422  15.423  0.0938 -0.0268  0.0649
 6774W        W22958  16.322   7.710   0.449  0.1473 -0.1244 -0.1163
 6775W        W22959   5.110  17.510   3.264 -0.1762 -0.0026  0.0427
 6776W        W22960  11.742   7.024   2.005  0.1338 -0.0794  0.0024
 6777W        W22961   4.434   1.338   4.262  0.4823  0.2226 -0.1164
 6778W        W22962   7.145   3.553   5.239  0.4148 -0.0863  0.0793
 6779W        W22963   7.577   4.250   3.211  0.0485  0.2256 -0.1070
 6780W        W22964   4.309  14.827  12.612  0.0351 -0.1720  0.0005
 6781W        W22965   0.274   0.205  16.837 -0.1864  0.0387  0.1482
 6782W        W22966  13.048   2.421  14.627  0.2880  0.1949  0.3155
 6783W        W22967   1.760   8.032   2.914 -0.0935 -0.3211  0.0893
 6784W        W22968   0.428  16.781  13.451  0.3849  0.1321  0.1980
 6785W        W22969  11.019   2.115   0.630  0.1473 -0.1206  0.1784
 6786W        W22970   9.635   9.653   5.541  0.1267 -0.2285 -0.2117
 6787W        W22971   6.623   3.067   3.618  0.1030 -0.1460  0.1114
 6788W        W22972  11.814  11.418  16.226 -0.1019 -0.0132 -0.2315
 6789W        W22973  15.616  10.597  14.832 -0.0112 -0.0785  0.1593
 6790W        W22974   0.163   9.627   5.702 -0.0202  0.1580  0.0071
 6791W        W22975  10.130  13.344  13.884 -0.2968 -0.2325  0.1168
 6792W        W22976  13.547  16.989   1.596  0.0889 -0.0275  0.1186
 6793W        W22977   8.621  10.166   3.246  0.1092  0.1085 -0.1369
 6794W        W22978   5.536   6.890  16.499  0.1029  0.2881  0.2047
 6795W        W22979   7.063   6.682   1.413 -0.1348 -0.0026  0.0825
 6796W        W22980   9.932  14.197  14.057 -0.2056 -0.2561 -0.0654
 6797W        W22981  10.442   9.057  13.411  0.1872  0.2931  0.1754
 6798W        W22982   1.732   7.521   3.846  0.0094  0.2140 -0.3048
 6799W        W22983   8.004  11.036   3.489  0.2653 -0.4258  0.2307
 6800W        W22984  17.218   4.065  13.625 -0.1708  0.0166  0.0414
 6801W        W22985  14.109   5.643  12.956  0.3631  0.2399  0.1423
 6802W        W22986  14.560  10.069  15.667  0.0810  0.1160  0.1463
 6803W        W22987  11.040  14.294   4.827  0.0804  0.1491  0.0340
 6804W        W22988   2.274  13.731   3.175  0.1877  0.2585 -0.3122
 6805W        W22989   9.112  13.527  12.987 -0.2711  0.0373 -0.1760
 6806W        W22990  17.324  13.436   0.142  0.0242  0.1528 -0.2206
 6807W        W22991  17.090   2.208   5.560  0.0128  0.1040  0.0345
 6808W        W22992   1.740  17.533  11.799  0.0600 -0.1799  0.4358
 6809W        W22993   4.429   4.564  12.434  0.2598  0.1592  0.0745
 6810W        W22994  11.257  10.354  16.665  0.0004 -0.2776  0.1349
 6811W        W22995   5.143   2.709   2.418 -0.1062 -0.0647 -0.2955
 6812W        W22996   9.999  13.213   2.584 -0.3957  0.0305 -0.3452
 6813W        W22997  12.379   0.211   0.804 -0.1642  0.0329 -0.0318
 6814W        W22998   8.928   9.039   0.630  0.1012 -0.3246  0.0509
 6815W        W22999  12.732  12.727  13.205 -0.0045 -0.1922 -0.1280
 6816W        W23000  17.419   1.598   3.009 -0.2261 -0.1010  0.0457
 6817W        W23001   0.463  12.236  13.454  0.1769  0.1294 -0.0351
 6818W        W23002   1.113  15.540   3.313 -0.0763 -0.0507  0.2466
 6819W        W23003   7.426   9.561  12.647 -0.2787  0.1671  0.4532
 6820W        W23004   5.622   6.394   4.556 -0.0199  0.1201  0.1251
 6821W        W23005  16.194  15.869   2.362  0.1805  0.0916  0.1822
 6822W        W23006   4.642  17.784   0.515  0.3379 -0.1485 -0.0840
 6823W        W23007   8.619   1.337  14.210  0.2457  0.2284 -0.1853
 6824W        W23008   5.590   6.689   3.729 -0.0107 -0.0095 -0.0540
 6825W        W23009   0.582   7.388  12.870  0.3172  0.1600  0.1694
 6826W        W23010   2.803   0.843   3.777 -0.3444  0.3128 -0.1377
 6827W        W23011  10.522   0.684  13.110  0.0795 -0.1757 -0.2868
 6828W        W23012   2.823   0.001   1.381 -0.1606 -0.1628  0.0454
 6829W        W23013   3.123  14.282   3.000  0.2760 -0.1949 -0.0676
 6830W        W23014   6.491  14.717   0.194 -0.0860  0.3481 -0.2096
 6831W        W23015  17.189  16.964  15.791 -0.3114 -0.1452 -0.0112
 6832W        W23016   5.809  14.123   0.349  0.1903 -0.1537  0.1112
 6833W        W23017  14.584  15.746   6.182  0.3499  0.0440 -0.0763
 6834W        W23018   3.633  11.713   5.413  0.5131  0.1247 -0.1981
 6835W        W23019  14.378   3.797   0.597 -0.1036  0.1363 -0.1966
 6836W        W23020   6.963   7.619  13.666  0.0652  0.0842 -0.0068
 6837W        W23021   8.785   3.833  13.068 -0.0981  0.1418 -0.0990
 6838W        W23022   7.249  16.971   1.298  0.2088 -0.0393  0.1186
 6839W        W23023   0.274   1.148   2.843  0.0891 -0.0128  0.2589
 6840W        W23024   3.151   7.034   4.380 -0.1885 -0.0926 -0.0915
 6841W        W23025  10.030   5.273  12.526 -0.1782  0.0389  0.0651
 6842W        W23026  14.790  11.037  11.761 -0.3336 -0.2642  0.1162
 6843W        W23027   7.185   3.610  14.127  0.0142  0.0708  0.1975
 6844W        W23028  15.489   6.970   3.954 -0.0172  0.3199 -0.3523
 6845W        W23029   6.409   5.551   0.109 -0.1559 -0.0289  0.2949
 6846W        W23030  10.218  16.328   3.942  0.2022  0.1592 -0.3283
 6847W        W23031  16.429   1.479   3.339 -0.0736  0.3899 -0.2051
 6848W        W23032   7.585   4.527  14.637 -0.3090  0.0225 -0.0631
 6849W        W23033   5.606   9.032   4.701 -0.4281 -0.0773 -0.0158
 6850W        W23034  12.878   0.930  14.050 -0.3010 -0.1302  0.0465
 6851W        W23035   0.792   1.870  13.693 -0.2890 -0.0928 -0.3801
 6852W        W23036   4.840   9.294  11.953 -0.2482  0.2179  0.2245
 6853W        W23037  15.152   9.818  13.464  0.0706 -0.0123  0.4641
 6854W        W23038   2.239   0.738   4.616 -0.0146  0.0621 -0.0275
 6855W        W23039  13.394   7.623  16.520  0.0615  0.3712  0.4182
 6856W        W23040   8.194  15.695  15.255 -0.0870 -0.2699 -0.2609
 6857W        W23041   1.177  13.082   5.451  0.1216 -0.2257 -0.4579
 6858W        W23042   2.062  10.469   4.483 -0.0756 -0.1904  0.0047
 6859W        W23043  13.908   0.582  16.155 -0.0837 -0.3147 -0.0750
 6860W        W23044  10.113  13.427   0.771 -0.1196 -0.1204 -0.0015
 6861W        W23045  10.645  11.390  16.787 -0.2585 -0.3892  0.0994
 6862W        W23046   4.962  10.352   1.038 -0.2633  0.3626  0.0661
 6863W        W23047   2.287  15.270   4.354  0.3824 -0.0855 -0.1973
 6864W        W23048   0.329  11.071  14.477 -0.0387 -0.0744 -0.2920
 6865W        W23049   2.792  11.456  14.244 -0.0563 -0.0822  0.0454
 6866W        W23050   8.574  15.841  16.556  0.1476  0.4133  0.2777
 6867W        W23051   9.419  10.995  14.353 -0.1209  0.0164 -0.1274
 6868W        W23052   5.038  15.236  16.817 -0.2582  0.0140  0.2901
 6869W        W23053   6.391   2.731  14.378 -0.0406 -0.1111 -0.2477
 6870W        W23054   8.116  14.575  15.464 -0.1122 -0.1224 -0.0621
 6871W        W23055  12.489  11.698   5.589  0.1512  0.1730 -0.1080
 6872W        W23056   4.643  12.835  16.805  0.0358  0.0078 -0.0425
 6873W        W23057   9.796   3.394  13.941  0.3828  0.4003  0.0425
 6874W        W23058   7.302   7.135   2.393 -0.0560  0.0465  0.1290
 6875W        W23059  14.494   1.657  13.562 -0.3016 -0.2857  0.0467
 6876W        W23060  14.991  16.966  12.503  0.0414 -0.1801 -0.0534
 6877W        W23061  16.687  11.924  15.693 -0.0978  0.2220 -0.2047
 6878W        W23062  16.926  16.287   0.232 -0.0540 -0.0006 -0.1507
 6879W        W23063   5.437  10.648  16.418  0.2429  0.3104 -0.0821
 6880W        W23064   0.025   5.122   4.588  0.0072 -0.3036  0.0285
 6881W        W23065  16.120  17.720   2.432  0.0406 -0.1701  0.1593
 6882W        W23066  13.850   6.239  11.204 -0.2874  0.2030 -0.1351
 6883W        W23067   7.339  16.600  12.563  0.0394 -0.3208  0.1253
 6884W        W23068   0.342   3.202  15.343 -0.1777  0.2200 -0.1455
 6885W        W23069   3.804   8.819   4.933 -0.0340  0.3271  0.3367
 6886W        W23070  14.526   8.156  14.643 -0.2009  0.3548  0.0449
 6887W        W23071   3.142  11.840   3.965  0.3471 -0.0708  0.2569
 6888W        W23072   3.080   9.896   1.703  0.1625 -0.0878 -0.1383
 6889W        W23073   3.480   2.085   5.504 -0.0467  0.2624 -0.1599
 6890W        W23074  15.559   3.027   1.268 -0.1158 -0.0276  0.3993
 6891W        W23075   0.874   7.700   6.641  0.1125 -0.0912 -0.0824
 6892W        W23076   7.718   9.936  15.878 -0.1975 -0.1350  0.3102
 6893W        W23077  12.805   5.289  14.137  0.0615  0.0848 -0.0412
 6894W        W23078   8.438   4.739   2.760  0.0928 -0.1920 -0.1067
 6895W        W23079   1.172   5.178  11.754  0.1016 -0.0864  0.0741
 6896W        W23080   2.183  13.386  15.465 -0.1126 -0.2916  0.0426
 6897W        W23081   0.260   4.772   3.683 -0.0088  0.0016  0.2495
 6898W        W23082  11.965  16.326  14.817 -0.0308  0.0556  0.0737
 6899W        W23083  14.975  14.915   1.806 -0.1913  0.3703  0.2729
 6900W        W23084   1.025  15.428   4.270  0.0296 -0.1309  0.0018
 6901W        W23085  15.343   8.945  16.591 -0.0518 -0.0210 -0.1735
 6902W        W23086  12.912   6.424  14.135 -0.0784 -0.4110 -0.5453
 6903W        W23087  17.531   4.735  13.184 -0.0181 -0.3466  0.1409
 6904W        W23088  14.624  13.694  15.106  0.1977  0.1907 -0.1815
 6905W        W23089  16.542   0.748   4.599 -0.2652  0.0253 -0.2779
 6906W        W23090  11.266   2.980   0.988 -0.0720 -0.0222  0.1049
 6907W        W23091   1.986  17.492   1.274 -0.0512  0.2250  0.0787
 6908W        W23092  11.531   5.572  11.527 -0.0924 -0.1536  0.1021
 6909W        W23093  12.249   1.459   0.455 -0.1049  0.2175  0.0500
 6910W        W23094  10.894   1.162   2.060  0.2724 -0.0252  0.3573
 6911W        W23095   5.015  10.803   4.417 -0.0389 -0.1540 -0.0414
 6912W        W23096  15.469  16.566   2.094 -0.2361  0.2527  0.1817
 6913W        W23097  15.576   3.540   2.787  0.3554 -0.1512 -0.1339
 6914W        W23098  12.621   2.208  16.131 -0.2190 -0.1256  0.0104
 6915W        W23099  15.290  11.815   3.486 -0.0144  0.0050  0.2362
 6916W        W23100  12.233   7.493  13.824 -0.4211  0.1199  0.0226
 6917W        W23101  13.189  14.772   2.390 -0.2121 -0.1388  0.1449
 6918W        W23102   9.612  16.023  15.193  0.0708 -0.1125 -0.0800
 6919W        W23103   2.753  12.838   4.459 -0.3929  0.0581  0.2073
 6920W        W23104  14.981   8.256   0.756 -0.2324  0.0605 -0.1878
 6921W        W23105   3.831   9.634  13.744  0.2590  0.0948 -0.1316
 6922W        W23106  14.762  12.732  15.542  0.1072  0.3395 -0.1071
 6923W        W23107  14.727   4.459   2.189  0.2762 -0.1292  0.1578
 6924W        W23108   9.428   5.232   6.473 -0.0612 -0.0709 -0.1591
 6925W        W23109   0.141  10.059   0.572 -0.2390  0.2948 -0.1929
 6926W        W23110   3.664  11.526   4.359  0.1576 -0.1480  0.2416
 6927W        W23111  15.143   3.209   2.664 -0.0212  0.1221  0.1938
 6928W        W23112  10.673  14.483  13.454 -0.1799  0.1623  0.1156
 6929W        W23113   6.912   5.949  15.399 -0.0656  0.0192  0.3512
 6930W        W23114   5.442   1.359  13.290 -0.0302  0.4841 -0.3096
 6931W        W23115  12.964  17.187  16.837 -0.2283 -0.2595 -0.1101
 6932W        W23116   8.378  16.986  11.791 -0.3311 -0.3507  0.2361
 6933W        W23117  12.489   6.880   0.256  0.0207 -0.0617 -0.2314
 6934W        W23118   6.635  10.709   0.004 -0.1785 -0.1355 -0.2280
 6935W        W23119   6.619  12.924   1.184  0.1791 -0.1657 -0.3048
 6936W        W23120  12.801  17.810   4.942 -0.0966  0.2120  0.0711
 6937W        W23121   8.735   0.401  14.527 -0.0738 -0.3403  0.1869
 6938W        W23122  13.578  16.730   2.109 -0.1792 -0.0947 -0.0182
 6939W        W23123  10.706   4.638   2.979  0.0276 -0.1561 -0.0041
 6940W        W23124  12.003   4.023   1.485 -0.0934  0.2337 -0.0576
 6941W        W23125  16.919  13.073   5.650 -0.2560  0.1891 -0.2906
 6942W        W23126  17.544   7.624   1.791  0.1675 -0.0130  0.0829
 6943W        W23127  12.634  16.686   5.325  0.0580  0.1515 -0.0315
 6944W        W23128   0.706  10.181   2.400 -0.4917 -0.0361  0.1394
 6945W        W23129   0.921   4.281  12.806  0.6455  0.0487 -0.1338
 6946W        W23130  17.719   9.913  12.106 -0.0749  0.0940 -0.2284
 6947W        W23131   7.801   7.719  16.114 -0.2879  0.2230  0.2500
 6948W        W23132  14.787   7.388  15.262  0.3471 -0.1868  0.1242
 6949W        W23133   1.228   9.051  13.664 -0.1894  0.1480  0.1879
 6950W        W23134   2.810   9.112   5.739 -0.1315 -0.2533  0.3175
 6951W        W23135  16.366  13.221   0.644 -0.0641  0.1402 -0.2706
 6952W        W23136  16.499  12.656   3.020 -0.1789  0.0964  0.1552
 6953W        W23137  10.446  10.513   0.513 -0.0606 -0.2910 -0.0344
 6954W        W23138   8.034   4.830   0.970 -0.0534 -0.0758 -0.2401
 6955W        W23139   3.876   9.259  15.287  0.0918 -0.0857 -0.3108
 6956W        W23140   1.229   2.959   4.680 -0.0271 -0.1379  0.0150
 6957W        W23141   4.179   6.754  14.679  0.1863  0.3439  0.1547
 6958W        W23142  13.445   6.394  15.126 -0.1261 -0.0129  0.2399
 6959W        W23143  16.376  17.237  11.551  0.0940  0.0663 -0.0290
 6960W        W23144   9.592  12.398  15.225 -0.3201 -0.0434  0.0137
 6961W        W23145   8.596   5.318   0.105 -0.0763  0.1573  0.1577
 6962W        W23146   7.462   8.280  15.283 -0.2938 -0.2239  0.0344
 6963W        W23147   2.474   0.305  13.371 -0.1586  0.0061  0.1782
 6964W        W23148   1.056   0.610  11.904 -0.2525  0.0701  0.3449
 6965W        W23149  12.730   9.364   5.223  0.0050 -0.1185  0.1941
 6966W        W23150  10.630   9.917  13.701  0.0606 -0.2223 -0.0450
 6967W        W23151  10.468   8.013   1.206 -0.1558 -0.0360 -0.1289
 6968W        W23152  11.289  12.920   1.892 -0.1381  0.0499  0.0064
 6969W        W23153  11.699  10.141   5.803  0.0704  0.0778  0.0389
 6970W        W23154   7.824   6.804  14.207 -0.0978 -0.2204 -0.0019
 6971W        W23155  10.605   8.655  12.941  0.0760 -0.1108  0.0367
 6972W        W23156   3.332   4.591  16.392  0.1065 -0.0441  0.0074
 6973W        W23157  10.008   6.385   5.682 -0.1155  0.2073  0.0120
 6974W        W23158   0.698  10.538  16.894  0.3174 -0.1447 -0.1459
 6975W        W23159  13.005  16.556  11.514 -0.0750  0.2947  0.0248
 6976W        W23160   6.628   1.098  15.706  0.0044  0.1185  0.0990
 6977W        W23161   1.027  17.440  13.574 -0.1758 -0.0718 -0.2903
 6978W        W23162   9.034   0.074   0.820  0.1435  0.2776 -0.4187
 6979W        W23163  17.000  17.693   1.316  0.0281 -0.2658 -0.1777
 6980W        W23164  11.708   5.269  14.979  0.2969  0.0252  0.1481
 6981W        W23165   7.471   5.869  16.131  0.0940 -0.0525 -0.1294
 6982W        W23166  10.017  10.250   2.176 -0.0196 -0.0785  0.1484
 6983W        W23167  14.398  13.642   1.584  0.1037  0.1773  0.0107
 6984W        W23168  14.397   8.981   2.201  0.1618 -0.2780  0.1374
 6985W        W23169   8.136  10.739   0.900 -0.5529  0.1992  0.1107
 6986W        W23170  11.008  16.115  16.435 -0.0695  0.1634 -0.1761
 6987W        W23171  13.920   2.033   3.152  0.1357  0.1059  0.1398
 6988W        W23172   5.962  14.988  14.100  0.0853 -0.1204 -0.3292
 6989W        W23173  15.360   3.091  16.903  0.1167 -0.1894  0.3630
 6990W        W23174  10.877   8.499   2.409  0.1885 -0.0386 -0.2499
 6991W        W23175  12.186   2.190   6.097 -0.1557  0.1328 -0.1498
 6992W        W23176   6.906   3.222   2.333 -0.0613 -0.0486 -0.1432
 6993W        W23177  11.575   4.539   0.031 -0.3248 -0.2800  0.0499
 6994W        W23178  16.865   7.874   2.699  0.0795 -0.3657  0.0940
 6995W        W23179   0.374   2.876   3.371  0.2740  0.3526 -0.0121
 6996W        W23180  12.302  10.999  16.091  0.1085 -0.1186 -0.1107
 6997W        W23181  10.637   7.217   1.826 -0.0751 -0.1463 -0.0988
 6998W        W23182   3.868   9.682   0.182  0.1630 -0.1794 -0.2433
 6999W        W23183  12.358  10.786   3.759 -0.2099  0.0224  0.1413
 7000W        W23184  11.343  16.091   2.928  0.0661  0.3436  0.2021
 7001W        W23185  10.972   2.954  14.155  0.1369 -0.1469 -0.2555
 7002W        W23186  17.562   1.286   2.128  0.2611 -0.0124  0.1309
 7003W        W23187   0.434   2.128  15.989 -0.5358  0.1556 -0.0460
 7004W        W23188   3.394  11.830  11.865 -0.1769  0.1800  0.1378
 7005W        W23189   9.927   1.194   3.512  0.0807  0.3259 -0.0001
 7006W        W23190   8.222   5.757   4.164  0.1107 -0.0146  0.1757
 7007W        W23191   3.344   0.447  13.906 -0.0078 -0.5258 -0.0793
 7008W        W23192   6.943   5.324  13.302  0.3363 -0.1747 -0.0460
 7009W        W23193  10.578  12.346  11.756 -0.1630 -0.5001 -0.2157
 7010W        W23194   6.330   5.058  16.398 -0.1036 -0.1153 -0.0197
 7011W        W23195   6.103  16.383  13.223  0.1144 -0.2764 -0.1264
 7012W        W23196   1.930  12.858  10.462  0.1162 -0.3653  0.1139
 7013W        W23197  10.884   1.820  13.766 -0.3507  0.1400 -0.0427
 7014W        W23198  15.296   9.949   5.979  0.0601 -0.0986  0.0793
 7015W        W23199  13.585   1.095  13.423  0.0192 -0.0423 -0.1095
 7016W        W23200  15.366   9.790   1.840 -0.2945  0.0143 -0.1321
 7017W        W23201  11.039  17.260  12.643  0.3043  0.0641  0.1924
 7018W        W23202   6.115  10.921  14.210 -0.1181  0.1390  0.0047
 7019W        W23203   1.145  17.632  14.316  0.0084 -0.2054  0.0653
 7020W        W23204   0.699   0.154  11.784 -0.1232 -0.3194 -0.1621
 7021W        W23205   2.128  15.248  13.787 -0.2034  0.2587 -0.1660
 7022W        W23206   2.109   1.359   5.750  0.2712 -0.1874 -0.0918
 7023W        W23207   7.181  16.140   4.624 -0.2136  0.0147 -0.0574
 7024W        W23208   4.023   1.167  13.291  0.2798  0.2060  0.5947
 7025W        W23209  14.191   6.974   5.597  0.2530  0.0636  0.0719
 7026W        W23210  11.333   4.583  12.792  0.1871  0.4888  0.0484
 7027W        W23211   9.540   9.331   1.189  0.1051  0.0005  0.0679
 7028W        W23212   0.451   0.822   2.510 -0.1558 -0.0184 -0.3675
 7029W        W23213   8.778  12.910  16.175  0.1441  0.0320 -0.3374
 7030W        W23214   3.760   6.454  13.743 -0.4053 -0.2267 -0.0065
 7031W        W23215   7.024   8.597   5.840 -0.1266 -0.1479 -0.2016
 7032W        W23216  15.550   2.618   2.245 -0.0473  0.0896 -0.4941
 7033W        W23217  15.391  10.887  13.984 -0.1099 -0.0774 -0.0752
 7034W        W23218  14.987  12.499  16.445  0.3223 -0.0042 -0.0615
 7035W        W23219   1.928  10.527  11.894  0.1166  0.0163 -0.2299
 7036W        W23220   4.347  15.754   1.503 -0.1859 -0.1330  0.2189
 7037W        W23221  14.218  14.459  13.239  0.0820  0.0966 -0.0823
 7038W        W23222  10.965   5.759  16.797 -0.1843 -0.1866 -0.3290
 7039W        W23223   1.910   5.409  15.078 -0.4388 -0.0839 -0.0741
 7040W        W23224   1.167   8.576   4.018  0.0701 -0.0916 -0.2377
 7041W        W23225  11.878   2.785  14.333 -0.1289  0.0752 -0.2629
 7042W        W23226   9.888   3.733   6.160  0.3476 -0.0753 -0.2722
 7043W        W23227   9.712  13.778  12.946  0.1281 -0.3248 -0.1844
 7044W        W23228   1.901   7.721   1.743  0.1083 -0.0176 -0.1136
 7045W        W23229   1.307   7.165  12.445  0.0549  0.0876 -0.0034
 7046W        W23230  17.733  12.918  12.534 -0.2119 -0.2790 -0.1160
 7047W        W23231   8.554   1.350   5.252  0.1413  0.1219  0.2322
 7048W        W23232   5.968   7.494  16.251  0.1160 -0.1170  0.0784
 7049W        W23233  16.352   8.485  15.893 -0.0153  0.0998 -0.0431
 7050W        W23234   7.260  17.793   0.697  0.0053 -0.2515 -0.2158
 7051W        W23235  14.597   9.620  16.526 -0.1365 -0.0276  0.1698
 7052W        W23236   7.660   9.127  13.755 -0.1678  0.0324  0.2520
 7053W        W23237  13.080   4.610  15.347 -0.0542 -0.1132 -0.0120
 7054W        W23238   6.764  17.780  12.894 -0.2030 -0.0184  0.1609
 7055W        W23239  10.837  14.246  13.079  0.1511 -0.3326  0.0714
 7056W        W23240   3.628   7.931   6.737 -0.3392 -0.1056 -0.1295
 7057W        W23241  10.721  15.673   0.911  0.0995  0.0938  0.1345
 7058W        W23242   9.202   0.037  12.576 -0.0200  0.1574 -0.1092
 7059W        W23243  15.622   1.416  13.051 -0.1233 -0.0057  0.1102
 7060W        W23244   5.325  15.341   1.936 -0.1995  0.1221 -0.0229
 7061W        W23245   5.577   7.710   2.083  0.0082 -0.1230 -0.2051
 7062W        W23246  17.297  11.355  12.226 -0.2659 -0.2555  0.3482
 7063W        W23247  11.434  14.239   2.449  0.2476 -0.1983  0.3354
 7064W        W23248   3.431  17.545   1.415 -0.0521  0.0574 -0.0259
 7065W        W23249  13.391   3.665  16.564 -0.0341 -0.1110 -0.0226
 7066W        W23250  11.881  10.071  14.183 -0.1524 -0.2584 -0.1240
 7067W        W23251   7.065   1.691   5.716 -0.1447  0.2218  0.1321
 7068W        W23252   2.368   3.489   6.634 -0.1783  0.0353 -0.0357
 7069W        W23253   0.875   4.529   0.827 -0.3383  0.0568  0.1890
 7070W        W23254   0.584   8.683  13.688 -0.0430 -0.0855  0.2085
 7071W        W23255  14.367  15.119  11.695  0.1890 -0.1727  0.3339
 7072W        W23256   3.788  13.682   3.082  0.2633 -0.2207 -0.1754
 7073W        W23257   7.044  17.368  12.914  0.2182 -0.3637  0.0443
 7074W        W23258   4.438   3.995  12.516 -0.1153 -0.1214  0.2035
 7075W        W23259   0.008  13.435  12.381 -0.0611  0.1840  0.3190
 7076W        W23260  11.109  15.221   0.887  0.0347  0.2768 -0.1903
 7077W        W23261  16.956   5.532  15.713 -0.0534  0.3826  0.1639
 7078W        W23262   7.440   7.076   3.933  0.0466  0.0704  0.4272
 7079W        W23263  15.314   4.252   5.611  0.0162 -0.4059  0.2350
 7080W        W23264  16.871   5.618   5.348 -0.1916  0.0944 -0.2697
 7081W        W23265  14.584   4.811   1.131  0.3242 -0.0797  0.0664
 7082W        W23266   4.469   4.489  16.248 -0.0444 -0.1824  0.3889
 7083W        W23267   3.070  14.162  15.501  0.1053 -0.2032 -0.0092
 7084W        W23268  16.906   4.162   4.673  0.4863 -0.1343  0.3181
 7085W        W23269   5.797  10.691  16.760  0.2375 -0.3841 -0.3363
 7086W        W23270   8.824  12.361  12.714  0.0430 -0.1555  0.0534
 7087W        W23271  13.922   5.632   5.080  0.0533 -0.0460  0.2603
 7088W        W23272   4.456  17.590  15.353  0.0627 -0.2487 -0.0972
 7089W        W23273  14.387  11.187  13.667  0.0611  0.2197  0.0594
 7090W        W23274  15.702  16.544   0.767 -0.2426  0.0079  0.2789
 7091W        W23275   2.020  11.433  15.815  0.2791 -0.4612 -0.2819
 7092W        W23276  13.607   1.464   2.622  0.1729 -0.1604 -0.3188
 7093W        W23277   2.858   7.846   0.294 -0.1177 -0.0948  0.0693
 7094W        W23278   0.411   5.061   5.004 -0.2313 -0.0504  0.1568
 7095W        W23279  13.161   1.849  14.887 -0.1762  0.0686 -0.1008
 7096W        W23280   7.700  14.973   4.827 -0.2155  0.2242  0.0115
 7097W        W23281  15.835   6.049  14.716  0.2138  0.1500  0.2233
 7098W        W23282   3.603  11.141  13.714  0.2746 -0.1583  0.0760
 7099W        W23283   1.346   9.879  14.249 -0.2611  0.0975  0.2756
 7100W        W23284  11.498  16.036  13.078 -0.2970 -0.2011  0.0186
 7101W        W23285   4.747   0.086  16.775 -0.1400 -0.0626 -0.0903
 7102W        W23286  11.064  15.879   5.392 -0.2360  0.0165 -0.0220
 7103W        W23287   7.069  11.653   3.453  0.1308  0.0470  0.0221
 7104W        W23288   0.159  12.245   6.548 -0.0319  0.1738 -0.0753
 7105W        W23289  14.856   5.500   3.448  0.0395 -0.2190 -0.0203
 7106W        W23290   4.106   8.407   0.167 -0.2152 -0.3990 -0.1637
 7107W        W23291   8.344  15.142  15.453 -0.1423  0.0642 -0.1672
 7108W        W23292   8.815   4.120   2.897 -0.2433  0.0367  0.2257
 7109W        W23293   3.080   1.326  15.118  0.1184 -0.1081  0.4202
 7110W        W23294  16.432   7.154  15.154 -0.0600 -0.2621  0.0378
 7111W        W23295   2.847   8.150   3.468 -0.0433 -0.1547 -0.1789
 7112W        W23296   5.172   4.189   5.586  0.0151  0.0367 -0.0355
 7113W        W23297   4.613   9.194   3.554 -0.1000 -0.0990  0.3487
 7114W        W23298  13.335   5.592  12.393 -0.1435 -0.1682  0.2051
 7115W        W23299  13.137  17.650  16.760  0.0239 -0.1123  0.2858
 7116W        W23300   0.571   4.604  13.774  0.0546  0.1795  0.2217
 7117W        W23301  15.017   3.721  16.282  0.2409  0.1585  0.0972
 7118W        W23302   1.823   0.201  15.979  0.2220 -0.0661 -0.2227
 7119W        W23303  15.815   9.865   4.779 -0.0031  0.0625  0.0880
 7120W        W23304  14.364  11.513  15.234  0.0913  0.2650 -0.0093
 7121W        W23305   1.766   0.950  16.517 -0.2896  0.0112 -0.2402
 7122W        W23306   7.484   2.777   5.593  0.1068  0.0665 -0.3346
 7123W        W23307   0.997   0.909   3.882 -0.2007  0.0008 -0.1660
 7124W        W23308   5.157   9.672   3.920 -0.4796 -0.1232  0.0889
 7125W        W23309   5.586  16.378  14.145 -0.1769  0.0474 -0.2868
 7126W        W23310  16.803   5.788   2.928 -0.1470 -0.2137 -0.0924
 7127W        W23311   9.057  10.988   0.204  0.3150 -0.1127  0.1159
 7128W        W23312  14.091   0.413   1.758 -0.0925  0.0383  0.0273
 7129W        W23313   6.861   3.978   1.039  0.1231 -0.1551 -0.1350
 7130W        W23314  12.226  11.964  11.578 -0.2508  0.3269 -0.0678
 7131W        W23315   4.928   8.879   6.171  0.0749 -0.1909  0.1196
 7132W        W23316  15.637   3.925   1.339 -0.0631  0.1493  0.2867
 7133W        W23317  12.879   7.850  16.026 -0.1074 -0.2405  0.0147
 7134W        W23318   8.573   2.354   4.335 -0.0578 -0.2024  0.2820
 7135W        W23319  10.931  15.835  15.041  0.0359 -0.1490  0.2390
 7136W        W23320  16.076   4.882   4.679 -0.2500  0.2392  0.2022
 7137W        W23321  10.419   1.243  14.448  0.1241 -0.0255 -0.0750
 7138W        W23322   9.153   5.998  13.127  0.2586  0.1332  0.0690
 7139W        W23323   0.003   1.312  11.767 -0.0549  0.1987  0.0575
 7140W        W23324   5.704   7.123  13.628  0.1326 -0.1814 -0.0664
 7141W        W23325  16.268  17.676  16.746  0.0373 -0.0158 -0.0344
 7142W        W23326   8.198   5.273   5.791 -0.1526 -0.0523 -0.2565
 7143W        W23327   0.127  11.215   3.382  0.0700 -0.1419 -0.0574
 7144W        W23328  13.926   3.098   0.240 -0.2618  0.4159  0.2302
 7145W        W23329  10.138   0.649   1.899 -0.1301  0.0017 -0.2944
 7146W        W23330  11.763  15.595   5.805 -0.1499  0.1913  0.4161
 7147W        W23331   8.547   9.348   4.831  0.1278  0.0938  0.3790
 7148W        W23332   4.077  17.661   3.668  0.0380  0.2055 -0.0154
 7149W        W23333   2.137   4.665  13.839 -0.1691  0.1625 -0.2442
 7150W        W23334   4.518  16.197  14.317 -0.0720  0.0744 -0.0855
 7151W        W23335  13.656   6.977   4.747  0.2020  0.2074  0.0671
 7152W        W23336  10.085  16.543   1.799 -0.0791  0.0108 -0.0096
 7153W        W23337   3.257   8.936  14.832  0.1094 -0.0960  0.1011
 7154W        W23338  14.581  17.693  12.274  0.1916  0.0554 -0.1433
 7155W        W23339   4.939   7.035   2.152  0.2173 -0.1372  0.0741
 7156W        W23340   0.955   8.807   3.457  0.0238  0.3358  0.1044
 7157W        W23341   4.051  14.938   3.714  0.1037 -0.1212 -0.0564
 7158W        W23342  14.232   0.306   0.482  0.0612 -0.0686 -0.3252
 7159W        W23343  15.973  13.756  14.979 -0.0771 -0.0882  0.2438
 7160W        W23344  15.183  12.170  13.147 -0.1814  0.1089 -0.1217
 7161W        W23345   2.697   2.406  14.443 -0.2443  0.1053 -0.1849
 7162W        W23346   4.449  10.308  15.797  0.1802  0.0271 -0.1210
 7163W        W23347   8.197  17.630   0.480  0.0754 -0.0511 -0.1592
 7164W        W23348  10.490   6.260   4.577  0.1626 -0.1394  0.1927
 7165W        W23349  11.239   1.625  15.335 -0.3010 -0.1001  0.1435
 7166W        W23350   8.508  12.003   1.428  0.2996  0.0623 -0.2432
 7167W        W23351   1.222   3.999   2.959 -0.3463 -0.1530  0.1774
 7168W        W23352   0.781   9.646   1.147  0.0523 -0.1047 -0.1745
 7169W        W23353  11.649  12.960   5.610 -0.3560  0.2216 -0.1647
 7170W        W23354   8.572  12.410   1.801  0.0064  0.0376 -0.2278
 7171W        W23355   5.494  15.859   1.505  0.1617 -0.0023  0.1255
 7172W        W23356   1.674   3.096  13.892 -0.1288  0.0869  0.0202
 7173W        W23357   0.770   1.592   5.703  0.0754  0.1674 -0.0454
 7174W        W23358   9.882   8.148  13.914  0.1002  0.0966  0.2181
 7175W        W23359   8.673   0.954  14.787 -0.2269  0.0660  0.0477
 7176W        W23360  13.342   6.430   1.590 -0.0452 -0.3830  0.2416
 7177W        W23361  11.172   8.604  12.759  0.0830 -0.2784  0.1709
 7178W        W23362  16.522   0.214   4.671 -0.0476 -0.0275  0.0022
 7179W        W23363   7.572   6.719   1.193  0.3625 -0.3537 -0.0781
 7180W        W23364  13.353   3.114   5.345  0.0660 -0.0732 -0.0990
 7181W        W23365   5.288   1.855  14.622 -0.0595 -0.0072  0.2387
 7182W        W23366  13.785   2.553   1.467 -0.1190 -0.0938  0.0268
 7183W        W23367   0.650   6.395   2.234  0.1098 -0.0097 -0.1448
 7184W        W23368   6.691   7.473  14.655 -0.1933  0.1754  0.1446
 7185W        W23369  14.352  10.686   2.411  0.1629 -0.0391 -0.0283
 7186W        W23370  16.474   7.630  12.272 -0.0601 -0.0190 -0.0721
 7187W        W23371  17.780   9.689   0.905 -0.0426 -0.3094  0.2344
 7188W        W23372  13.646  16.185  12.084  0.2103 -0.0474 -0.4626
 7189W        W23373  11.572  14.815   0.913 -0.0211 -0.0151 -0.0753
 7190W        W23374  12.841  14.282  14.890 -0.0427 -0.1522 -0.0463
 7191W        W23375  14.235   8.784   2.847  0.0205 -0.1459  0.0485
 7192W        W23376   0.133  14.915  11.565 -0.0586  0.4133  0.1802
 7193W        W23377  12.461   6.385  13.817  0.2431 -0.1252 -0.1241
 7194W        W23378  10.070   1.736  12.418 -0.0014  0.0177 -0.0199
 7195W        W23379   2.287   4.739  12.924  0.2973  0.2289  0.2603
 7196W        W23380  15.528   3.054  13.879 -0.1714 -0.1289  0.1279
 7197W        W23381   4.251   7.641   5.198 -0.4095  0.1705 -0.2525
 7198W        W23382   6.856   7.297  15.151  0.1103  0.2276  0.2157
 7199W        W23383   5.305   4.204   0.546  0.2447  0.0760  0.2239
 7200W        W23384  12.645   4.851  16.317 -0.0504 -0.1410  0.1355
 7201W        W23385   9.070  16.800  14.842  0.2092 -0.2185 -0.1763
 7202W        W23386   9.554  14.828  11.400  0.1173  0.0311  0.0515
 7203W        W23387  14.767  10.735  11.345  0.0744  0.0568  0.0426
 7204W        W23388  13.655  15.490  16.087  0.3165 -0.3158  0.2583
 7205W        W23389  13.807   2.513   3.746  0.0973 -0.3051  0.0004
 7206W        W23390  16.797  13.423   0.056 -0.5614 -0.2513 -0.0410
 7207W        W23391   9.112   9.763   5.520 -0.0640  0.0165 -0.0323
 7208W        W23392   3.194   2.708  13.240  0.1926  0.0452  0.0090
 7209W        W23393   0.003  12.353   4.241  0.1034 -0.1092  0.1801
 7210W        W23394  11.709   0.557   4.752 -0.0292  0.0458  0.0402
 7211W        W23395   6.325   3.259  14.171  0.0344 -0.1763  0.2212
 7212W        W23396   9.151  15.406  13.949 -0.0929 -0.1924 -0.0700
 7213W        W23397   2.211  12.937   1.269 -0.0161  0.0821  0.3217
 7214W        W23398  13.441  14.366  12.821  0.2817  0.2311  0.2811
 7215W        W23399   8.501  14.803  12.546  0.0913  0.0714 -0.0522
 7216W        W23400   2.680  17.324   2.146  0.0816 -0.1635 -0.0616
 7217W        W23401   3.814  16.463  13.866  0.0639 -0.1556  0.2141
 7218W        W23402   0.600   2.182   2.616 -0.0169 -0.2447  0.0381
 7219W        W23403  13.802  14.434  16.028  0.0404 -0.0137 -0.0140
 7220W        W23404  17.881   0.805   2.700 -0.1121 -0.0099  0.1381
 7221W        W23405   2.398   3.292  13.211  0.0949 -0.1151 -0.0562
 7222W        W23406  15.603  14.845  12.046  0.0727  0.0739  0.0133
 7223W        W23407  16.076   3.440  16.815  0.3023  0.0678 -0.3826
 7224W        W23408  10.419   6.516  12.069  0.0395  0.0115 -0.1246
 7225W        W23409   7.485  15.669  13.090 -0.3839 -0.0367 -0.2520
 7226W        W23410   5.825   6.992  15.118  0.0864  0.1167 -0.1143
 7227W        W23411  10.937  15.410   1.347  0.0939  0.0488 -0.0342
 7228W        W23412   8.867   9.877   0.980  0.0439 -0.2321  0.0971
 7229W        W23413  11.886  16.252   1.456  0.3020 -0.0852 -0.0408
 7230W        W23414   9.788   6.317  14.930 -0.0339  0.3159 -0.0908
 7231W        W23415  13.333   4.844  16.756 -0.1742  0.2380  0.2696
 7232W        W23416  11.739  11.568   0.311  0.0975 -0.3199  0.2055
 7233W        W23417  13.550   6.532  14.166  0.1131 -0.1129  0.1030
 7234W        W23418  11.923  10.812   1.767 -0.0191  0.2634  0.0768
 7235W        W23419   8.580   7.996   4.528 -0.0275 -0.2220  0.0154
 7236W        W23420  12.908  10.801  15.786  0.4908 -0.0480 -0.0304
 7237W        W23421  17.296  10.808  14.838  0.0965  0.2082 -0.0200
 7238W        W23422  15.686   6.104  13.236 -0.1497 -0.0614 -0.0195
 7239W        W23423   3.074  14.789   2.693  0.1707 -0.3097  0.1260
 7240W        W23424   6.257   6.678   4.417 -0.2369  0.1263 -0.0950
 7241W        W23425  11.700   8.041  15.388 -0.0905 -0.0750  0.0516
 7242W        W23426  15.388  10.941  13.423  0.2975 -0.0132  0.1495
 7243W        W23427  15.041   5.353  15.537  0.0622 -0.0964 -0.0945
 7244W        W23428  17.060   8.662  12.464  0.0626 -0.1378  0.1926
 7245W        W23429  12.309   8.567   2.806 -0.0229  0.3327  0.0028
 7246W        W23430  14.775  16.584   5.296  0.0526  0.1658 -0.0242
 7247W        W23431   0.335   6.809  14.481 -0.0183  0.1981 -0.0858
 7248W        W23432   4.951  17.259  12.077 -0.2256 -0.0989  0.1023
 7249W        W23433  13.500  11.571   1.897  0.2833 -0.0391 -0.0604
 7250W        W23434   3.535  12.696   5.055  0.0334 -0.0379  0.0444
 7251W        W23435  16.242   7.607   1.806 -0.3263 -0.2900  0.5732
 7252W        W23436  13.089   7.803  13.568 -0.0104  0.4992 -0.0659
 7253W        W23437   7.642  16.037  13.431  0.0329 -0.3392  0.1080
 7254W        W23438  16.630   4.756  11.152 -0.0378 -0.2058 -0.1347
 7255W        W23439  11.787  15.079   3.437 -0.1435 -0.2158 -0.0286
 7256W        W23440  13.617   0.921  12.669  0.0192 -0.2286 -0.1634
 7257W        W23441  15.255   1.481  16.069  0.1464  0.1646 -0.0236
 7258W        W23442  15.334   7.698  12.276  0.2974 -0.1685 -0.1575
 7259W        W23443   2.288   6.656   5.485 -0.1601 -0.1369  0.2213
 7260W        W23444   8.273  13.956   4.682 -0.0372  0.0199  0.0086
 7261W        W23445  12.656  13.281   3.244  0.3115  0.4088  0.2958
 7262W        W23446   9.360  11.619  14.646 -0.2377 -0.3794  0.3599
 7263W        W23447  17.252   9.172  15.627  0.0874 -0.1329 -0.1407
 7264W        W23448   6.248   0.254  15.760  0.1895  0.1003 -0.1621
 7265W        W23449  12.531   3.617  13.138  0.0828 -0.0638  0.1143
 7266W        W23450   9.652  15.009  15.868 -0.1104 -0.1214  0.2630
 7267W        W23451   4.603   0.797  13.334  0.1238  0.1504  0.0633
 7268W        W23452  16.747   0.893   1.269  0.1053  0.1945 -0.0495
 7269W        W23453   3.717   4.312   5.733 -0.1629 -0.1377 -0.3406
 7270W        W23454  12.105   0.022  16.473 -0.1838  0.0225 -0.2205
 7271W        W23455  10.118   9.152  16.275  0.1066 -0.1142  0.0360
 7272W        W23456  10.837  17.072  16.610  0.2894 -0.0173  0.2258
 7273W        W23457   7.614   7.533   1.389 -0.0448  0.1155 -0.4013
 7274W        W23458   9.057   2.443  11.635  0.0642  0.1657  0.1683
 7275W        W23459   6.586  12.681   2.004 -0.1362 -0.1969  0.0097
 7276W        W23460  11.265  12.852   0.252 -0.1160  0.2236  0.1288
 7277W        W23461  14.699   5.626  13.901  0.0035  0.0848 -0.1371
 7278W        W23462  16.306   3.402   3.347  0.0278  0.0878  0.1109
 7279W        W23463  14.277  12.471   0.009 -0.1986 -0.0178 -0.0581
 7280W        W23464   1.996   4.280   0.496 -0.3357 -0.0423 -0.2178
 7281W        W23465  10.286   2.651  14.445  0.3049  0.0178 -0.1628
 7282W        W23466   7.155   3.244  15.484 -0.0157 -0.0177  0.0421
 7283W        W23467  12.521  15.742  14.276  0.1403 -0.1166  0.0407
 7284W        W23468  13.481  11.236   3.552 -0.0739 -0.0115 -0.4477
 7285W        W23469  15.443  13.593   5.046  0.0991  0.1357  0.0953
 7286W        W23470  10.508   0.682   4.431 -0.3507 -0.2132 -0.1420
 7287W        W23471   6.166  17.570  11.686  0.1892  0.3932 -0.1259
 7288W        W23472  11.913  11.226  13.404 -0.0816  0.1619  0.3198
 7289W        W23473   1.204   3.783   5.680 -0.2022 -0.2048 -0.1431
 7290W        W23474   9.364  11.996   5.327  0.0374 -0.2733 -0.2414
 7291W        W23475  13.291  11.539   3.905 -0.1086 -0.2849  0.0167
 7292W        W23476  14.178  12.110   5.957  0.1754  0.1321  0.3877
 7293W        W23477   1.717   1.577   0.018 -0.0009  0.2938 -0.3418
 7294W        W23478  12.968  13.879   4.432  0.3759  0.0745  0.3378
 7295W        W23479  13.269   5.663   1.136  0.1570 -0.4558 -0.1054
 7296W        W23480   5.277  15.071   2.376  0.0811 -0.2542  0.0245
 7297W        W23481   3.705   3.605   0.876  0.0022 -0.1642 -0.0314
 7298W        W23482  17.025  13.952   2.973 -0.3729 -0.0037 -0.0047
 7299W        W23483   2.013   4.824  16.046 -0.3584 -0.0392  0.1077
 7300W        W23484  14.048   0.993   0.095  0.3283 -0.1776 -0.1273
 7301W        W23485   0.691  12.363  16.560 -0.2359 -0.0355  0.1927
 7302W        W23486   2.301   9.244  14.176 -0.0018  0.1288 -0.0275
 7303W        W23487  16.238  13.164   2.716 -0.2351 -0.2993 -0.3331
 7304W        W23488   8.372  13.964   0.330  0.2170  0.1691  0.1253
 7305W        W23489   6.468  10.457   2.055 -0.0621 -0.2171 -0.1072
 7306W        W23490   5.567   6.581   1.423 -0.1187 -0.1925 -0.0184
 7307W        W23491   7.823   8.931   3.889 -0.3226  0.2289  0.2881
 7308W        W23492   9.291  15.213  15.262  0.1261  0.2546 -0.0172
 7309W        W23493   1.643  13.554   1.707 -0.3515 -0.1076  0.2916
 7310W        W23494   9.216  13.745   4.563  0.1897 -0.0723 -0.0071
 7311W        W23495  13.617  10.373  12.919 -0.0682  0.3113  0.0152
 7312W        W23496  13.701   8.653   5.131 -0.1082  0.1694  0.0082
 7313W        W23497   5.784   4.752   5.425 -0.0677 -0.0327 -0.3281
 7314W        W23498   8.349   0.521  16.221 -0.0453 -0.1997  0.0218
 7315W        W23499  13.886   0.643  12.313  0.2931 -0.0159 -0.1813
 7316W        W23500  11.373   6.328   5.326  0.0828 -0.0817 -0.1027
 7317W        W23501   4.527   0.253   1.299 -0.2523  0.1927  0.0790
 7318W        W23502  12.959  13.295  13.601 -0.3590 -0.0487  0.0684
 7319W        W23503  15.567   7.491  12.702  0.0432 -0.0144 -0.0116
 7320W        W23504   7.809  10.571  11.595 -0.0266 -0.0166 -0.1852
 7321W        W23505   5.587  12.546  11.471 -0.1553 -0.1436  0.0598
 7322W        W23506  13.443  12.818  14.464 -0.0251  0.2833  0.0052
 7323W        W23507   1.647  13.394  16.097 -0.0755 -0.0127 -0.2320
 7324W        W23508   8.584   0.219  11.935 -0.0577  0.1125  0.0087
 7325W        W23509  16.532   8.742   3.130 -0.3918  0.2588 -0.1261
 7326W        W23510   5.413   8.448   2.487  0.0513 -0.1351  0.1537
 7327W        W23511  11.369  11.462   2.839  0.0046 -0.0708  0.0461
 7328W        W23512  13.361   5.213   1.300 -0.1242  0.2056  0.0927
 7329W        W23513   0.493  13.034  11.222 -0.1028 -0.2306 -0.0029
 7330W        W23514   9.208   9.382  12.866  0.3597 -0.1255 -0.3446
 7331W        W23515   3.666  14.554  12.872  0.1036 -0.3994 -0.0969
 7332W        W23516  12.272   6.078  11.744 -0.1017  0.0254  0.1170
 7333W        W23517  12.794   9.594  13.703 -0.1192 -0.1914 -0.2549
 7334W        W23518  12.412  16.754   4.038  0.0853 -0.0650 -0.3946
 7335W        W23519   0.407   1.368  15.686  0.0598 -0.0253  0.0402
 7336W        W23520   2.565  14.960   2.772 -0.1558 -0.0672  0.1079
 7337W        W23521   2.578   4.951   5.246  0.3253 -0.2265 -0.1603
 7338W        W23522  12.999  15.993  13.947 -0.1908 -0.1406  0.0597
 7339W        W23523  16.403  16.536   0.397 -0.0852  0.1058  0.2167
 7340W        W23524   9.117   3.769   6.411 -0.3168  0.1674 -0.3650
 7341W        W23525   1.720  12.615  14.349  0.0411  0.3227 -0.0438
 7342W        W23526  13.608   3.578  15.155 -0.3142  0.1092  0.0323
 7343W        W23527  14.342   1.344   3.194 -0.2401 -0.4079  0.4461
 7344W        W23528   7.810   9.561   5.261  0.1895  0.0771 -0.2542
 7345W        W23529  13.190  14.080   1.359 -0.1032  0.0135  0.1064
 7346W        W23530   7.810  17.258  16.508 -0.0854 -0.1732  0.0368
 7347W        W23531   4.705   3.525  11.868  0.0616  0.0207  0.0196
 7348W        W23532  12.681   2.826   5.094  0.1372 -0.1496 -0.1227
 7349W        W23533  12.322  10.102   2.079 -0.0391 -0.0394  0.0034
 7350W        W23534   3.232   0.899  13.239  0.1065 -0.0576 -0.2731
 7351W        W23535  10.006   9.726   0.936 -0.0154 -0.0764 -0.1102
 7352W        W23536   2.401  13.944  14.738 -0.0343  0.0218 -0.1697
 7353W        W23537  10.238  14.387  13.716  0.0320  0.0404 -0.2006
 7354W        W23538  17.706   7.246   6.537  0.3404 -0.1527 -0.1014
 7355W        W23539   2.568  10.803  13.432 -0.1087 -0.1093 -0.0724
 7356W        W23540   3.368   5.529   4.234  0.2331  0.1310  0.2215
 7357W        W23541   1.941   2.399   0.454 -0.0590  0.5442 -0.2286
 7358W        W23542   8.394   4.743  11.964 -0.1812  0.2992  0.0782
 7359W        W23543   7.002   4.397   3.983 -0.1188  0.2514 -0.0599
 7360W        W23544  16.584   4.860   1.621  0.2968 -0.1306  0.1737
 7361W        W23545   7.404   4.694   2.501 -0.4296 -0.1670 -0.1197
 7362W        W23546   8.750  12.282  14.524  0.1611 -0.0011  0.1728
 7363W        W23547  10.570   1.252  14.953  0.4772  0.0561  0.1488
 7364W        W23548  17.029   6.339  13.515  0.0769 -0.0002  0.0335
 7365W        W23549  13.407   7.671  11.779 -0.0081 -0.2646  0.0243
 7366W        W23550  11.485   7.901   3.401 -0.1324 -0.1573 -0.1593
 7367W        W23551   1.847   4.712  13.344  0.4532  0.1628  0.3882
 7368W        W23552   6.596  13.464   2.430 -0.3629 -0.0043  0.0409
 7369W        W23553   7.894  10.682  12.239  0.0279 -0.0643 -0.0135
 7370W        W23554  14.016  15.405  12.777 -0.0811  0.3340  0.6604
 7371W        W23555  12.865   2.170   5.325 -0.1417 -0.1990  0.0070
 7372W        W23556  16.198   0.389  12.292  0.0151 -0.0619  0.1509
 7373W        W23557   8.106  11.353  11.698  0.0474  0.0860  0.1485
 7374W        W23558   3.021   9.070   3.807 -0.1021  0.1433  0.1749
 7375W        W23559   9.573  11.890   0.463 -0.1156  0.2600  0.1599
 7376W        W23560  12.197  17.668   0.654  0.0884  0.1179 -0.0105
 7377W        W23561  11.525   5.643   4.021  0.1222  0.0894 -0.1129
 7378W        W23562  16.474   8.296   5.322  0.1534  0.1191  0.1441
 7379W        W23563  16.396  15.271   5.581 -0.1883  0.1110  0.2813
 7380W        W23564  16.089  16.822   3.523  0.0324  0.1432  0.1992
 7381W        W23565  11.560  12.479   0.437 -0.1173  0.0777  0.0176
 7382W        W23566   7.094   9.950   5.647 -0.0415 -0.2272 -0.0378
 7383W        W23567  12.974  14.785  16.272 -0.0482 -0.0488  0.1545
 7384W        W23568  14.605  17.728   2.266 -0.1479 -0.0246  0.1879
 7385W        W23569   5.269   8.996  15.492  0.5023 -0.1448  0.2043
 7386W        W23570  16.754   0.020   5.215  0.0170 -0.0212 -0.1782
 7387W        W23571   9.514   8.312  16.481  0.1878  0.1936 -0.1463
 7388W        W23572   1.454  10.834   5.021  0.4718  0.2157  0.0948
 7389W        W23573  17.169  14.237  13.968  0.0772 -0.1054  0.1206
 7390W        W23574   0.671   2.242   3.683  0.2874  0.3178 -0.1526
 7391W        W23575  13.289   3.139  16.330  0.1803  0.0274  0.0390
 7392W        W23576   6.842   6.404   0.530 -0.3149 -0.0506 -0.2083
 7393W        W23577   8.500   4.655   0.896 -0.2928  0.0416  0.0354
 7394W        W23578   3.978   7.726   1.127 -0.1763 -0.1240 -0.1634
 7395W        W23579  13.283   0.176  14.748 -0.0647  0.0049  0.1101
 7396W        W23580  10.577   2.067  15.138  0.1128 -0.0323  0.2952
 7397W        W23581   7.194   1.292   1.328 -0.0007 -0.0350 -0.3834
 7398W        W23582  13.178   7.234  11.578 -0.0197  0.1453 -0.2315
 7399W        W23583   5.853  11.606  16.141  0.2219  0.1844  0.0633
 7400W        W23584   4.126  14.431   0.932 -0.0528 -0.0383 -0.1008
 7401W        W23585  12.732   4.225   0.564 -0.1815  0.1085  0.0047
 7402W        W23586   0.260   2.899   0.457 -0.1297 -0.0554  0.1411
 7403W        W23587   1.129  11.088  13.944 -0.2966  0.0059 -0.3848
 7404W        W23588   6.832   2.521   3.780 -0.0830  0.2980  0.1504
 7405W        W23589   7.559  13.402   2.457  0.0439  0.0246 -0.1951
 7406W        W23590   7.792   8.117  16.507 -0.2011  0.1273 -0.0693
 7407W        W23591  11.863  10.934   5.664  0.0265 -0.0263  0.1832
 7408W        W23592   1.708   5.653   3.436  0.0381  0.1146  0.1920
 7409W        W23593   2.122  12.332  13.342  0.1501  0.0722  0.3302
 7410W        W23594   2.389  15.074  13.397  0.2391 -0.1366  0.0006
 7411W        W23595  16.351  13.804  14.245 -0.0907 -0.1080  0.3818
 7412W        W23596  15.843  11.833  16.765 -0.0791 -0.3921  0.0143
 7413W        W23597  17.334   5.944  13.635 -0.1430 -0.0145  0.1354
 7414W        W23598   9.058   4.021   3.809  0.1474 -0.0909 -0.1357
 7415W        W23599   4.133  15.038  13.051 -0.0584  0.0057 -0.0761
 7416W        W23600   4.965  16.475   0.931  0.0673  0.0007  0.0061
 7417W        W23601  10.206   5.908  11.973 -0.0487 -0.2156 -0.0414
 7418W        W23602  17.884   3.858   4.562  0.0080 -0.1086  0.3533
 7419W        W23603  11.500   0.379   1.361 -0.4052  0.1125 -0.1941
 7420W        W23604  16.628  11.012  13.312 -0.0476 -0.1780  0.1804
 7421W        W23605   4.347   5.710  14.042  0.2480 -0.1445 -0.0874
 7422W        W23606   1.726   7.581   3.218  0.1346  0.0009  0.0300
 7423W        W23607   5.857   0.643  13.785 -0.1513 -0.2405  0.2002
 7424W        W23608   5.562   9.277  13.083  0.1769 -0.0568 -0.2481
 7425W        W23609  16.390   2.850   5.204  0.0879  0.2752  0.2384
 7426W        W23610   4.461  11.245   0.443 -0.2030 -0.0249 -0.4421
 7427W        W23611   8.971  11.321  14.217 -0.3356  0.3122 -0.1060
 7428W        W23612  12.956   9.392  12.099 -0.0594  0.2998  0.0617
 7429W        W23613  14.949   0.671   5.092  0.0548  0.1034 -0.0801
 7430W        W23614  14.379   5.576  10.607 -0.1529 -0.1629  0.1116
 7431W        W23615   3.704  12.734   1.931  0.0938  0.0580  0.0683
 7432W        W23616   1.865  11.732   0.571 -0.0356  0.0867 -0.2142
 7433W        W23617   3.999   7.540   0.075 -0.1802  0.1028  0.3550
 7434W        W23618  11.954  13.833   2.778  0.2362 -0.0113  0.1289
 7435W        W23619   4.805   8.078   4.632 -0.1645 -0.0976 -0.0803
 7436W        W23620   9.643   6.264   4.824  0.0836  0.0917  0.0175
 7437W        W23621  13.621   2.746  13.491 -0.1923 -0.1220  0.1045
 7438W        W23622  16.726   1.808  13.652  0.0653 -0.0046  0.0366
 7439W        W23623  11.350   8.272   3.015  0.0975 -0.1243  0.0724
 7440W        W23624   6.261   3.748  15.018 -0.1017  0.1548  0.0638
 7441W        W23625  11.309   8.559  13.541 -0.5035 -0.0108  0.1658
 7442W        W23626   0.964   3.520   1.607  0.2489  0.1280  0.0737
 7443W        W23627  11.029  12.887   2.403 -0.2502  0.1414 -0.3545
 7444W        W23628   5.399   5.531   3.660  0.0934 -0.1474  0.0734
 7445W        W23629  16.047  17.795   0.503 -0.1778 -0.0744  0.2782
 7446W        W23630   2.974  10.767   3.419 -0.1604  0.1816  0.0736
 7447W        W23631   6.241   9.140   5.438  0.4750 -0.1387  0.0658
 7448W        W23632   7.330  13.013  14.839 -0.1745  0.1007  0.1566
 7449W        W23633   0.689  17.708  14.546 -0.4687  0.1453  0.0557
 7450W        W23634   5.500   0.689  12.106 -0.0340  0.0485 -0.3454
 7451W        W23635   1.632  16.307   5.130 -0.2699  0.0440  0.5033
 7452W        W23636   1.740  10.223  16.870  0.2246 -0.1355 -0.1061
 7453W        W23637   6.946  17.806   3.126 -0.0707  0.0681 -0.3051
 7454W        W23638   7.304  14.374  16.424 -0.1751 -0.0459 -0.0775
 7455W        W23639   9.380  16.687   3.901  0.0077 -0.3220  0.2560
 7456W        W23640  14.535  12.038  13.972  0.2667 -0.0268 -0.1719
 7457W        W23641   9.336   5.176  11.871  0.0931 -0.2831 -0.0877
 7458W        W23642  11.586   6.940  12.317 -0.2993  0.0781  0.0659
 7459W        W23643   9.097   8.589  16.201 -0.1213 -0.0475 -0.4434
 7460W        W23644  11.143  17.399  14.579 -0.0272 -0.2183  0.0261
 7461W        W23645   2.189  16.928  14.115  0.0211 -0.1116 -0.1298
 7462W        W23646  17.247  17.291  15.371  0.4178  0.2529 -0.1262
 7463W        W23647  14.873  14.325  11.879  0.4326  0.0173 -0.1562
 7464W        W23648   2.855  15.161  15.576  0.0474  0.2169  0.0145
 7465W        W23649   3.498   8.532  15.170 -0.2731  0.0551  0.0029
 7466W        W23650   8.721   9.122  12.300 -0.1319 -0.1832 -0.1163
 7467W        W23651  13.978  13.906   5.412 -0.1447  0.2253  0.0101
 7468W        W23652   6.830   1.724  14.714  0.2211 -0.0300 -0.0869
 7469W        W23653  13.419   8.574   3.906  0.0001  0.2730  0.0468
 7470W        W23654   8.121   7.648   5.809  0.0355  0.1476 -0.1737
 7471W        W23655  17.334   6.042  15.005  0.0134  0.0418 -0.0512
 7472W        W23656  14.259  10.533   1.886 -0.0253  0.0564 -0.1554
 7473W        W23657   1.252   2.264   3.217 -0.0290  0.0597 -0.1965
 7474W        W23658   5.188  16.242  10.975 -0.0940  0.3317 -0.3335
 7475W        W23659  14.187  13.828  13.943  0.0927  0.0505  0.1514
 7476W        W23660   5.561  17.455  16.197 -0.1429  0.3791  0.0880
 7477W        W23661  12.879   4.051   3.124 -0.4510 -0.0516  0.1425
 7478W        W23662  16.330   3.984   0.390 -0.1481  0.2658 -0.0305
 7479W        W23663  15.884  17.883   0.049 -0.1431 -0.2066  0.1637
 7480W        W23664   5.867   0.043  11.607 -0.2097 -0.3041  0.1047
 7481W        W23665   3.840   8.143  13.031  0.2362  0.0133  0.3199
 7482W        W23666   8.208   4.524  13.410 -0.2246  0.1965  0.1397
 7483W        W23667  14.628   9.021  16.369 -0.0872  0.3347  0.0616
 7484W        W23668  10.492  15.242   4.748 -0.2473 -0.1245 -0.0480
 7485W        W23669   0.132   4.849   0.020 -0.2454 -0.0218 -0.1938
 7486W        W23670   6.665   8.893   5.676  0.1881 -0.0933  0.1371
 7487W        W23671  12.599  13.936   0.460  0.0343 -0.0312  0.1706
 7488W        W23672   3.346  11.942  14.608  0.2468 -0.2761 -0.1725
 7489W        W23673   0.237   2.623  16.721  0.0538 -0.1647 -0.0227
 7490W        W23674   3.559   0.448  16.249 -0.2751  0.2070  0.0149
 7491W        W23675  10.126  12.343   4.211  0.0526  0.0264  0.3363
 7492W        W23676  16.136  16.132  13.395  0.0467 -0.0991 -0.1373
 7493W        W23677   2.684  12.897  11.621 -0.0175 -0.0001 -0.1082
 7494W        W23678  14.545  14.027   1.948  0.1372  0.1718 -0.3288
 7495W        W23679   1.814  10.753  13.675 -0.2848  0.0336  0.3415
 7496W        W23680  16.647   2.713   6.228  0.0227  0.1689 -0.1024
 7497W        W23681  11.235  13.740   2.430 -0.2632 -0.0608 -0.0462
 7498W        W23682   7.491  10.273  14.244  0.1895  0.1194  0.3141
 7499W        W23683  16.398   3.822   5.014  0.3232  0.0333  0.1600
 7500W        W23684  17.137  13.853  16.895  0.0102 -0.0314  0.0512
 7501W        W23685   0.516  16.438  12.502 -0.0319  0.2936 -0.2819
 7502W        W23686   9.395  16.294  12.143 -0.0549 -0.0065 -0.0588
 7503W        W23687  10.652   0.088  13.282 -0.2724 -0.1182 -0.1353
 7504W        W23688   3.349   9.753   4.657  0.1972 -0.1303 -0.1083
 7505W        W23689   8.986   5.466   5.113 -0.0848  0.0383  0.2726
 7506W        W23690   5.309   1.424   2.069  0.1274  0.2781  0.2220
 7507W        W23691   1.840  12.879   4.912  0.1454 -0.0139  0.1148
 7508W        W23692  17.429  17.627  15.847 -0.1083  0.0902 -0.1794
 7509W        W23693  17.489  14.790  13.303 -0.1266  0.1202 -0.0104
 7510W        W23694   9.531   6.962  12.269  0.2377  0.1688 -0.1280
 7511W        W23695   3.140  17.299  12.499 -0.0056  0.0712  0.0320
 7512W        W23696  13.257   4.715   5.949 -0.1188  0.2455  0.2578
 7513W        W23697  14.017  15.860  15.098  0.1536  0.2145 -0.1050
 7514W        W23698   9.421   3.795   3.063 -0.0865 -0.0441  0.1804
 7515W        W23699  12.832   3.230  13.716 -0.1367  0.0260 -0.0509
 7516W        W23700   6.203  16.581  11.370  0.1585 -0.0800 -0.2218
 7517W        W23701   3.767   9.478  16.665  0.1665 -0.1060  0.0896
 7518W        W23702  10.885   5.898   3.123  0.4115 -0.2269 -0.0846
 7519W        W23703   5.746   9.123   5.818  0.1947  0.0320 -0.0441
 7520W        W23704   6.849  17.408  12.440 -0.3882 -0.0016  0.1210
 7521W        W23705   3.198  10.530   1.284 -0.0492 -0.0978  0.2020
 7522W        W23706   6.536   6.877  11.778 -0.1816  0.2388 -0.1594
 7523W        W23707   7.002   0.322  12.921  0.1673 -0.0204  0.1818
 7524W        W23708   9.421   0.602   1.722  0.0095 -0.0054  0.1577
 7525W        W23709   9.633   8.713  16.014 -0.0962 -0.0029  0.0563
 7526W        W23710  17.264   0.199   4.502  0.0231  0.0595 -0.0114
 7527W        W23711  12.526   5.448   3.652 -0.0509 -0.2911 -0.4302
 7528W        W23712  11.797  10.926   2.252 -0.0912 -0.1384  0.2159
 7529W        W23713  10.787  13.048  11.773 -0.0144 -0.2648 -0.3034
 7530W        W23714   0.113   9.880   4.103  0.2789 -0.2102 -0.0220
 7531W        W23715  14.871  17.722   0.879 -0.3061  0.0109  0.0122
 7532W        W23716   8.113  13.250   2.447 -0.0358  0.0384  0.0140
 7533W        W23717  16.338   7.902   2.576  0.2372 -0.0163 -0.1126
 7534W        W23718  10.532   0.294   3.104  0.0705  0.1210  0.0207
 7535W        W23719   9.345  13.291  16.829 -0.0309  0.1709  0.1343
 7536W        W23720   9.943   6.904   1.094 -0.2731 -0.4083 -0.0247
 7537W        W23721  15.423   5.029  11.881 -0.1634  0.3427 -0.2516
 7538W        W23722   8.199   0.224  14.103  0.2194  0.1431  0.1961
 7539W        W23723  11.814   4.893   1.356 -0.1701  0.0944  0.0441
 7540W        W23724  12.933  17.819   3.948  0.0267 -0.1669 -0.0331
 7541W        W23725  11.136  17.277   2.063 -0.1734 -0.3497 -0.0057
 7542W        W23726  12.758  15.093  12.638  0.1002  0.3739 -0.0956
 7543W        W23727  15.545   2.791   4.734  0.1779  0.1214 -0.2467
 7544W        W23728   4.988   5.232   3.764  0.4001  0.0988  0.0447
 7545W        W23729   3.518   6.739   5.075 -0.0498  0.3216 -0.0682
 7546W        W23730  13.244   7.549   3.107 -0.1483 -0.0181 -0.1366
 7547W        W23731   8.841   8.764  14.761 -0.1387 -0.2838 -0.1861
 7548W        W23732  17.071  17.400  16.158  0.0229  0.0276 -0.1764
 7549W        W23733  16.589  14.592  16.349  0.1777  0.0527 -0.0235
 7550W        W23734  11.159   9.667  14.478  0.0312 -0.1459 -0.0556
 7551W        W23735   5.969   5.312   5.725 -0.1170 -0.0763  0.0475
 7552W        W23736   4.420  11.422  14.015 -0.2827 -0.0567  0.0225
 7553W        W23737  11.808  10.648   0.417 -0.0067 -0.1297  0.0802
 7554W        W23738   1.080  13.890   2.343  0.2972  0.1097  0.0937
 7555W        W23739  17.032   7.771  13.962 -0.1355  0.2901 -0.1979
 7556W        W23740  11.888   6.841   3.659  0.1993  0.2188 -0.1377
 7557W        W23741   0.465   4.429   3.395 -0.0491 -0.2199 -0.0528
 7558W        W23742   5.474   2.978  16.334  0.1404  0.1670 -0.1501
 7559W        W23743   3.915  12.557  13.531 -0.3251  0.1750  0.1024
 7560W        W23744   9.482  17.615  11.875  0.1199  0.2726 -0.0950
 7561W        W23745  17.604   5.707   3.530  0.0826  0.0018 -0.0462
 7562W        W23746  14.074   9.661   2.179  0.0373  0.0211  0.1130
 7563W        W23747  10.115  11.038  15.441 -0.2849 -0.0962 -0.0406
 7564W        W23748  11.188  16.528   1.014  0.1134 -0.0600  0.0184
 7565W        W23749   5.326   3.445  12.531 -0.1494  0.1890  0.0661
 7566W        W23750  13.143  16.417  15.853 -0.0489 -0.2159 -0.1917
 7567W        W23751  16.314  17.121   0.588  0.4728 -0.0976  0.0366
 7568W        W23752   0.309  17.831   5.187  0.3075 -0.0608 -0.1247
 7569W        W23753  10.269   1.518  15.699 -0.1811 -0.1284  0.3116
 7570W        W23754  15.307   6.600   1.007  0.0305 -0.0850  0.1558
 7571W        W23755   6.766   3.427   0.965 -0.3133 -0.2758 -0.0956
 7572W        W23756   6.675  13.050  15.553 -0.0080 -0.0685 -0.2750
 7573W        W23757  10.667   8.729   4.729  0.1114  0.1275  0.0047
 7574W        W23758   3.961  16.239   5.237 -0.0478 -0.0261  0.0287
 7575W        W23759  11.822   8.625   0.029  0.0830  0.0313 -0.0063
 7576W        W23760   5.035   8.334   3.149  0.0658 -0.1465  0.2630
 7577W        W23761   7.104  11.676  14.642  0.1397  0.0141 -0.0140
 7578W        W23762  10.945  10.629   1.988 -0.1122 -0.1596  0.4904
 7579W        W23763   1.676   9.218   2.696 -0.0541  0.4171 -0.1815
 7580W        W23764   5.577   1.010  16.913  0.2009  0.2618 -0.2431
 7581W        W23765  17.039   1.421   0.346  0.0466  0.0993  0.5180
 7582W        W23766  12.041  17.771   4.095 -0.1441  0.1037  0.2670
 7583W        W23767   3.863  15.489   3.540 -0.0190 -0.2447 -0.0354
 7584W        W23768  11.234   7.823  15.635 -0.0720  0.1913  0.0106
 7585W        W23769  14.980  13.368  10.773  0.1586  0.1129 -0.1871
 7586W        W23770   6.091   1.497   2.626  0.0113  0.2230 -0.0564
 7587W        W23771   9.496  10.872  15.474 -0.0939 -0.0242 -0.0294
 7588W        W23772  17.407   4.423   1.129  0.2180  0.0114 -0.1174
 7589W        W23773  10.443  12.519   1.660  0.0285  0.3346 -0.2387
 7590W        W23774  11.287   6.357  15.459  0.4141 -0.1792  0.3859
 7591W        W23775  15.095   8.645   4.034  0.0735 -0.1173  0.0767
 7592W        W23776  13.687   5.744  16.190 -0.1395 -0.3070 -0.0666
 7593W        W23777   9.471  15.647  14.887 -0.1456 -0.0118 -0.1820
 7594W        W23778  14.603   0.664  13.096 -0.0381  0.1391 -0.3274
 7595W        W23779   1.352   3.544   0.195  0.4242 -0.0805  0.0451
 7596W        W23780  17.548   9.220   1.668  0.0939 -0.0638 -0.3215
 7597W        W23781   4.869  13.267  16.730  0.3372  0.1342  0.0150
 7598W        W23782  15.381   9.575  15.382 -0.1189 -0.0228  0.2310
 7599W        W23783  12.283  14.478   0.616 -0.2389 -0.0945 -0.1186
 7600W        W23784   6.116  14.781   5.514  0.2153  0.2714 -0.2769
 7601W        W23785  13.106  17.777  15.378  0.1370 -0.0206 -0.1399
 7602W        W23786  17.263   2.651  13.988  0.0078  0.0998 -0.0319
 7603W        W23787   1.893   6.742   5.161 -0.1823 -0.1611  0.1132
 7604W        W23788   9.981  13.748   3.390 -0.0962  0.3207  0.2087
 7605W        W23789   4.650   1.958  15.795 -0.0127  0.1847 -0.2780
 7606W        W23790   4.708  17.562  14.031 -0.2223 -0.2177 -0.0036
 7607W        W23791  11.726   0.917  14.452 -0.2881 -0.0320 -0.1474
 7608W        W23792  14.789   5.277   1.065 -0.2073 -0.2795 -0.0526
 7609W        W23793  13.336   4.784  11.911  0.0130  0.1774 -0.0532
 7610W        W23794   6.905  14.967  14.000 -0.1519  0.0776 -0.0838
 7611W        W23795  10.580   1.919  12.456 -0.0864  0.1577 -0.2119
 7612W        W23796   4.349   9.280  13.658 -0.1363 -0.1402 -0.2253
 7613W        W23797   0.406   7.492  15.153 -0.0106 -0.1750  0.1272
 7614W        W23798  16.332  17.836  11.888  0.0873 -0.0170  0.0538
 7615W        W23799   4.032   4.274  16.196 -0.1316  0.0655  0.1547
 7616W        W23800   9.343  16.387   3.249  0.3319  0.1988 -0.3465
 7617W        W23801   7.935  12.896  14.213  0.2437  0.2029 -0.0603
 7618W        W23802  11.115   6.836  15.566 -0.0309 -0.2631 -0.1283
 7619W        W23803   9.394   3.085   5.828 -0.0283  0.0224  0.1703
 7620W        W23804  14.398  12.672  16.525  0.1538  0.2688  0.1107
 7621W        W23805  12.302  10.700   2.582  0.0457 -0.3285  0.1560
 7622W        W23806   5.949   7.164   0.570 -0.0028 -0.0171  0.2060
 7623W        W23807   7.133  11.913  12.367 -0.0182 -0.1013 -0.0015
 7624W        W23808   8.984  10.114  15.795  0.0504 -0.0861  0.0020
 7625W        W23809   5.945   1.656  12.116  0.1193 -0.0510  0.0093
 7626W        W23810  13.589   7.077   2.063  0.2090 -0.0278  0.0497
 7627W        W23811   0.804  12.085   4.708  0.0102  0.4339  0.0039
 7628W        W23812  10.877   3.868  15.852 -0.2610  0.0022  0.1005
 7629W        W23813   6.605  10.816   1.743  0.1305 -0.1317 -0.0874
 7630W        W23814  10.199   3.580  11.955 -0.0816 -0.1666 -0.0451
 7631W        W23815  16.119   6.220  13.633 -0.2065 -0.0050  0.1447
 7632W        W23816  11.269   9.391   4.624 -0.2798  0.2479 -0.2594
 7633W        W23817   8.884   8.093   1.888  0.2529 -0.1990 -0.2094
 7634W        W23818   5.218   1.886  13.726  0.2736 -0.0920  0.1608
 7635W        W23819   1.009   0.141  10.694  0.0345 -0.2377  0.1663
 7636W        W23820  10.030   0.105  16.075 -0.1260  0.1980  0.1100
 7637W        W23821   2.788  12.956  13.470 -0.1488 -0.2284 -0.0024
 7638W        W23822   0.723   8.301  11.420  0.0575  0.1372  0.1115
 7639W        W23823  16.346   2.368   1.921  0.0883  0.2135 -0.0708
 7640W        W23824   3.284   0.923  14.923 -0.0269 -0.1645 -0.3863
 7641W        W23825   7.016  13.492  15.579 -0.1271 -0.0486  0.1306
 7642W        W23826   4.844  17.453  14.923  0.3049 -0.0626  0.2079
 7643W        W23827   8.231  14.555  14.733  0.1790  0.2722  0.2383
 7644W        W23828   7.809  12.557   4.383  0.1420  0.1675 -0.3204
 7645W        W23829   9.320  11.359   1.334  0.1844 -0.1276 -0.0030
 7646W        W23830  17.629   8.110   4.015  0.1115 -0.1241 -0.0865
 7647W        W23831   0.137  15.112  16.602  0.1468 -0.0439  0.3504
 7648W        W23832  17.395  12.579  14.691 -0.1041  0.3268  0.1724
 7649W        W23833   3.404   6.961  14.292 -0.0972 -0.0323 -0.1817
 7650W        W23834   9.206  10.103   1.928  0.0138  0.1724 -0.1266
 7651W        W23835   7.802  11.071   0.731  0.0541  0.0818 -0.0182
 7652W        W23836   7.532   1.476  12.377 -0.0153 -0.0518 -0.4723
 7653W        W23837  13.622   8.026  14.552  0.2016  0.0188 -0.2064
 7654W        W23838  15.481  17.643   6.027 -0.0164  0.2558  0.0132
 7655W        W23839   2.023   7.906  16.031  0.2994 -0.0427  0.2634
 7656W        W23840   1.325   2.098   1.856 -0.1020 -0.1697 -0.1326
 7657W        W23841   9.283  12.133  16.608 -0.2136 -0.1564  0.4123
 7658W        W23842   4.919  13.321  14.258 -0.2869  0.3484 -0.0262
 7659W        W23843  14.073  16.820  15.382 -0.0741  0.1864  0.2910
 7660W        W23844  13.892   4.307   1.475 -0.3042 -0.1304  0.1131
 7661W        W23845   7.849  12.420   0.287 -0.0602 -0.0985 -0.1090
 7662W        W23846  14.252   4.040  14.668 -0.3341  0.0314  0.0170
 7663W        W23847  16.909   8.812   3.733  0.0738 -0.1706  0.1056
 7664W        W23848   3.588  17.013  11.559 -0.1291 -0.0938 -0.2064
 7665W        W23849  16.751  15.594   4.594  0.1631  0.2296 -0.1918
 7666W        W23850   7.708  17.337   3.285  0.2463  0.1575  0.3463
 7667W        W23851   9.479  11.038  14.845 -0.3529  0.0045 -0.2045
 7668W        W23852   2.853   1.140   0.458 -0.4051  0.2322  0.2208
 7669W        W23853  10.205   9.414  16.910  0.1540 -0.0234 -0.2206
 7670W        W23854   0.823  12.378  13.061  0.4619 -0.3767  0.1258
 7671W        W23855   8.751   9.268  12.824 -0.0926  0.0363  0.3208
 7672W        W23856   2.723  17.106   3.313 -0.1619 -0.0133  0.0145
 7673W        W23857   2.813   5.690   3.473 -0.0450 -0.1088  0.1136
 7674W        W23858   2.322  14.009  13.038 -0.2315 -0.0017 -0.3417
 7675W        W23859  11.626  10.586  14.485 -0.2108 -0.1928 -0.0854
 7676W        W23860  11.270   5.532  15.108 -0.1853  0.0052 -0.1636
 7677W        W23861   9.524  13.659  13.365 -0.0843 -0.3619  0.1424
 7678W        W23862   9.378  10.917   5.917  0.0943 -0.0544  0.0376
 7679W        W23863   6.566   2.150  14.614 -0.1687 -0.2873  0.1663
 7680W        W23864   5.018   5.211  13.585 -0.1050 -0.0622  0.0629
 7681W        W23865  14.868   1.583   2.439 -0.1792 -0.1797  0.1288
 7682W        W23866   4.034  11.710   1.846 -0.2759  0.1550  0.0250
 7683W        W23867  14.506  13.553  16.588  0.2506  0.0663 -0.4347
 7684W        W23868  14.160   0.089  14.539 -0.0915  0.1761 -0.0023
 7685W        W23869   2.535   3.488  16.937 -0.1705 -0.0215  0.1180
 7686W        W23870   4.112   4.898  13.791 -0.0605 -0.0812  0.1317
 7687W        W23871   5.005  16.531   1.515  0.0290 -0.0836 -0.2502
 7688W        W23872  11.796  12.077  11.833 -0.1186  0.2597 -0.3335
 7689W        W23873   2.334   7.988   1.652 -0.0745  0.1041  0.0467
 7690W        W23874   9.492  10.767  16.932 -0.2701 -0.2234 -0.1128
 7691W        W23875   9.752  15.612  16.372  0.1823  0.3316 -0.1694
 7692W        W23876   7.006  12.158   0.255 -0.2052  0.0388  0.2270
 7693W        W23877  17.011  15.385   5.596  0.1033 -0.0232  0.1771
 7694W        W23878  10.839   6.213  13.238 -0.0080  0.2541  0.4429
 7695W        W23879  12.516  14.060  15.286  0.0900 -0.2852 -0.0339
 7696W        W23880   5.008  13.002  16.117 -0.5546 -0.0396 -0.1178
 7697W        W23881  11.101   7.887   3.777 -0.0094 -0.1693 -0.4649
 7698W        W23882  10.764  17.305  12.202  0.1245 -0.0970 -0.0609
 7699W        W23883   1.832  13.177  12.735  0.0331 -0.1129 -0.1639
 7700W        W23884   2.089  17.253   0.837 -0.1556  0.1179 -0.0200
 7701W        W23885  13.774  11.953   2.142 -0.0224  0.0830  0.1110
 7702W        W23886   8.632  12.877   1.571  0.1271 -0.0442  0.1686
 7703W        W23887   7.018  12.656  15.549  0.1362 -0.1844 -0.1164
 7704W        W23888  15.664  17.750   2.652 -0.3689 -0.1819  0.0188
 7705W        W23889   4.386  14.178   2.322  0.1551  0.0995 -0.0112
 7706W        W23890  15.171   1.906   1.517 -0.0938 -0.0389 -0.1372
 7707W        W23891  11.306   7.917   1.874  0.0097  0.0093  0.2066
 7708W        W23892  11.329   2.631  12.645 -0.0169  0.2201 -0.2208
 7709W        W23893  13.338   8.134   1.502 -0.1687 -0.0547 -0.1622
 7710W        W23894  10.086  15.874   1.473  0.0911 -0.2513  0.4773
 7711W        W23895   4.529   2.758  14.492  0.1410 -0.1108 -0.0705
 7712W        W23896  16.308   9.366   2.613  0.0495 -0.3220  0.2802
 7713W        W23897   2.866   0.849  11.741 -0.1539  0.1351  0.1085
 7714W        W23898   1.698   3.021   2.398  0.2443 -0.0735 -0.1246
 7715W        W23899  12.392  10.597   1.822  0.0599  0.0674 -0.0325
 7716W        W23900   4.229  15.689  12.565 -0.0279 -0.0406 -0.1563
 7717W        W23901   7.971   5.669  15.391 -0.1712 -0.1561  0.0051
 7718W        W23902  12.641   8.640  12.760  0.0184 -0.2702  0.4671
 7719W        W23903  14.202  12.138  16.342  0.1411  0.2525  0.0600
 7720W        W23904  12.646  16.661  15.147 -0.2203  0.0202  0.0902
 7721W        W23905  14.942  11.873   2.713  0.3434 -0.2596  0.0379
 7722W        W23906  17.516  16.727  16.691 -0.0519 -0.1665  0.1658
 7723W        W23907   4.839  15.733  16.680 -0.2545  0.0827  0.0069
 7724W        W23908  14.816   1.496  13.968  0.0384  0.2245  0.1826
 7725W        W23909  17.225   9.049   4.023 -0.1496  0.2536  0.0012
 7726W        W23910   1.228   1.541   3.459 -0.1382 -0.3359 -0.1252
 7727W        W23911  15.683   2.047  13.794  0.2414 -0.0300  0.0418
 7728W        W23912   6.587   4.300   5.287 -0.2090 -0.0918  0.0461
 7729W        W23913   5.726   6.959   1.023 -0.2178 -0.0942 -0.0558
 7730W        W23914  13.193   8.870  15.624  0.0699 -0.1290  0.2347
 7731W        W23915  17.594   1.218  15.189 -0.0973 -0.2621  0.0141
 7732W        W23916  12.577   6.529  11.807 -0.1776  0.1375 -0.0206
 7733W        W23917  12.995  15.732   1.173 -0.0501  0.2688 -0.0016
 7734W        W23918   1.447   4.345  13.066  0.0149  0.3412 -0.0546
 7735W        W23919   6.384  15.755  14.915 -0.0409  0.0327  0.0349
 7736W        W23920  15.726   5.805  15.170 -0.2920 -0.0847 -0.0873
 7737W        W23921   2.336   6.620  15.774 -0.1819  0.0451  0.1952
 7738W        W23922   1.951   2.116  13.139 -0.0785 -0.0437 -0.0405
 7739W        W23923  10.024   5.335   0.297 -0.0547 -0.0342  0.1561
 7740W        W23924  12.848   1.387  15.039 -0.1364 -0.1310  0.1014
 7741W        W23925   7.659   4.098   0.688 -0.0302 -0.1139 -0.2127
 7742W        W23926   5.331   1.756   2.854 -0.2869  0.3675 -0.0630
 7743W        W23927   4.022  17.333  12.008  0.2041 -0.3850  0.1805
 7744W        W23928  14.251   9.307   2.656  0.0130  0.0797 -0.2641
 7745W        W23929  15.251   5.315   1.514 -0.0005 -0.1147 -0.2265
 7746W        W23930   5.305   6.647   2.387  0.0609 -0.2558 -0.0793
 7747W        W23931  17.448   6.424   0.431 -0.3822  0.0552 -0.1485
 7748W        W23932   9.320   1.907  14.747 -0.0815 -0.0825 -0.0949
 7749W        W23933   4.082  12.380  16.180 -0.2568  0.1419 -0.1582
 7750W        W23934   1.586   4.378  16.821 -0.1467  0.0889  0.0625
 7751W        W23935   9.395  17.164  14.717 -0.2621  0.0732 -0.2532
 7752W        W23936   3.849  12.562  11.781 -0.0291 -0.0021  0.0307
 7753W        W23937   7.851  15.596   3.230  0.3960 -0.0119 -0.4007
 7754W        W23938  14.906  10.155   4.951  0.0955 -0.0897  0.2900
 7755W        W23939  11.832   2.804  13.484  0.0314 -0.1828 -0.3176
 7756W        W23940   0.484   8.821   4.377 -0.2672 -0.1184  0.3507
 7757W        W23941   4.418   9.919   1.891 -0.1842  0.3552 -0.0269
 7758W        W23942   3.418  14.957   1.709  0.1689  0.0319  0.2971
 7759W        W23943   2.984  13.553   0.290 -0.1670 -0.0986  0.2441
 7760W        W23944   3.725  12.047   4.528 -0.1392 -0.1676 -0.1199
 7761W        W23945   9.998   4.709   0.468  0.2337  0.2710 -0.0194
 7762W        W23946  14.740   1.550  15.918 -0.0788 -0.3610  0.2397
 7763W        W23947  10.045   8.914   5.973 -0.0763  0.0928  0.0656
 7764W        W23948   0.533  11.105   1.062  0.2699  0.0569  0.1489
 7765W        W23949  16.378  13.620   0.233 -0.0256 -0.3311  0.1626
 7766W        W23950   4.956   3.169  14.450 -0.1775  0.2562  0.0291
 7767W        W23951   8.073  13.242   3.272  0.0673 -0.1585  0.5142
 7768W        W23952   4.128   8.278  15.911 -0.1703  0.0355  0.2004
 7769W        W23953   5.564   1.613  12.816 -0.3719 -0.1352  0.4231
 7770W        W23954  12.413   1.787  11.841  0.3369  0.0585  0.0487
 7771W        W23955   8.562  13.113   5.497  0.2156  0.1936  0.1014
 7772W        W23956   5.908  16.188   4.409 -0.0851  0.2010 -0.1613
 7773W        W23957  10.136   5.315  14.711  0.0101 -0.1211  0.2892
 7774W        W23958   2.335   0.823  15.324 -0.3475  0.0096 -0.0465
 7775W        W23959   8.699   4.491  12.797  0.0616 -0.0737  0.1097
 7776W        W23960  13.340   3.454   2.738 -0.0907 -0.1826 -0.2828
 7777W        W23961  12.464  16.004  13.034 -0.0913  0.2067  0.1216
 7778W        W23962   0.084  15.482   2.913  0.0023 -0.0133  0.2771
 7779W        W23963  11.080  12.704  12.857  0.1892  0.2338  0.0385
 7780W        W23964  15.064  11.477   5.582  0.1072  0.0949  0.0653
 7781W        W23965   1.403   6.349  13.016  0.2415  0.3137  0.1947
 7782W        W23966   5.551   4.500   5.803 -0.2233  0.0276  0.1355
 7783W        W23967  10.519   2.127  16.356 -0.2701 -0.1002  0.0144
 7784W        W23968  15.926  16.540  14.186 -0.0651 -0.1762 -0.1809
 7785W        W23969   8.835   0.034   3.883 -0.0985 -0.2963 -0.1861
 7786W        W23970   3.253  14.996   1.222 -0.0842 -0.1653  0.0714
 7787W        W23971  13.494   5.203   3.143 -0.0346  0.1407  0.1279
 7788W        W23972   0.002   0.187   2.875 -0.0029 -0.1517  0.1240
 7789W        W23973  12.813  15.235  16.366  0.0200 -0.0144 -0.1817
 7790W        W23974  15.190   7.108  15.228 -0.1130 -0.1012 -0.0183
 7791W        W23975   0.072   3.078  16.894  0.3095 -0.0088  0.0071
 7792W        W23976  16.487  13.037  15.350 -0.0574  0.1765  0.2439
 7793W        W23977  17.814  13.829   3.529 -0.2631  0.1755  0.1949
 7794W        W23978   0.527  13.622  13.382  0.0056 -0.0663 -0.0375
 7795W        W23979  11.493  12.461   4.433 -0.0303  0.0274 -0.1138
 7796W        W23980   8.941   8.785  11.327 -0.0751 -0.1868 -0.1281
 7797W        W23981  16.764  12.741  13.107  0.0290 -0.4854 -0.1545
 7798W        W23982   9.587   6.669   2.100 -0.3873  0.0909 -0.1240
 7799W        W23983  14.875  17.402  14.197  0.0015 -0.0174 -0.1841
 7800W        W23984  15.849  14.649   5.348  0.1453  0.0440 -0.0733
 7801W        W23985   8.458   6.930  15.177  0.3043  0.1516 -0.1368
 7802W        W23986  11.630  15.907   5.405  0.0734 -0.4235  0.1847
 7803W        W23987  13.573  15.604   5.215 -0.2108 -0.0169 -0.0809
 7804W        W23988  10.986   3.891  12.911 -0.1002  0.1984  0.0474
 7805W        W23989   8.997  16.372   4.135 -0.1876  0.2653  0.0018
 7806W        W23990  14.841   0.644  16.551  0.0107 -0.1301  0.0338
 7807W        W23991  11.874   0.908  13.620 -0.2751  0.0969  0.0399
 7808W        W23992   0.005  11.996  13.449  0.0275  0.1689  0.0879
 7809W        W23993  16.975  12.427  14.445 -0.3420  0.2229 -0.1024
 7810W        W23994  13.165   5.978   2.999  0.1549 -0.2285 -0.0626
 7811W        W23995   0.213  10.946  16.455 -0.2263 -0.3089 -0.2047
 7812W        W23996   7.655   0.063  16.627 -0.1795 -0.4336 -0.0863
 7813W        W23997   4.883   6.728  15.225  0.0302 -0.2847 -0.0807
 7814W        W23998   1.758   8.772   1.071 -0.1589 -0.1495  0.1875
 7815W        W23999  13.483  10.841   2.284 -0.1218  0.0010  0.0254
 7816W        W24000   9.551   0.788   2.528 -0.1316 -0.1700 -0.0933
 7817W        W24001   2.489  17.565   0.825 -0.1498 -0.4273 -0.1804
 7818W        W24002  12.405  16.127   0.564  0.1032 -0.1345 -0.4321
 7819W        W24003   3.471   1.451  13.740  0.2680 -0.0930  0.2545
 7820W        W24004   8.288   1.277  14.557  0.2370  0.1702 -0.1218
 7821W        W24005   1.671  16.982   0.711  0.1265 -0.2928 -0.0343
 7822W        W24006  15.328   2.709  13.166  0.0018  0.3621  0.0160
 7823W        W24007   3.118   1.421   4.348 -0.1432 -0.1299  0.1022
 7824W        W24008  13.634   2.972  11.268  0.5307 -0.0917  0.1704
 7825W        W24009  15.888   9.086  16.397 -0.0263  0.0046 -0.1426
 7826W        W24010   7.426   8.159   4.542 -0.0371  0.2537 -0.2703
 7827W        W24011   8.148   0.571  13.709 -0.0847 -0.0575  0.2173
 7828W        W24012  16.946   2.173  15.120 -0.1312 -0.1374  0.1036
 7829W        W24013  10.473   5.970   2.840 -0.0990 -0.0807 -0.0588
 7830W        W24014  16.814   0.107  13.419  0.0984 -0.1378 -0.2204
 7831W        W24015   7.124  17.792  13.254  0.3141 -0.0111  0.0065
 7832W        W24016   5.692   4.063   5.372  0.0115 -0.1838 -0.0044
 7833W        W24017   8.593  10.282  16.354  0.0649 -0.1671  0.0312
 7834W        W24018  11.365  14.519   5.224 -0.1651 -0.0282  0.2892
 7835W        W24019   5.230   4.233   4.708 -0.1976 -0.0686  0.1319
 7836W        W24020   9.756   4.559   3.579  0.4444  0.1246 -0.1492
 7837W        W24021  16.647   6.417   5.506 -0.0862 -0.0486  0.1012
 7838W        W24022  13.801   8.696   0.364  0.0635  0.1233 -0.3777
 7839W        W24023  10.595   2.595  14.967  0.4562  0.1131  0.2844
 7840W        W24024   0.545   8.284  15.303 -0.0394  0.2977  0.0514
 7841W        W24025  14.014   3.044   1.096  0.1198 -0.1828  0.1029
 7842W        W24026  11.663   1.750  14.973  0.0025  0.0346 -0.2344
 7843W        W24027  10.023   0.992  14.423 -0.0120  0.3381  0.0011
 7844W        W24028   6.453   6.289   3.467 -0.3419  0.0272 -0.0115
 7845W        W24029   2.584  14.865  11.782 -0.1525  0.1220 -0.0330
 7846W        W24030   8.049  17.525  11.431 -0.3492 -0.0375 -0.0797
 7847W        W24031  13.487   7.977   5.795 -0.2146 -0.2105  0.1827
 7848W        W24032   5.202  17.870  15.854 -0.1545 -0.0316  0.0553
 7849W        W24033  11.401   4.057  12.614  0.0536  0.0892  0.1080
 7850W        W24034  10.667  11.023  16.358  0.0683  0.0356  0.0291
 7851W        W24035   8.228  15.273   4.274  0.0803  0.1292 -0.1088
 7852W        W24036   8.325   3.751  12.867 -0.1441  0.0684 -0.3988
 7853W        W24037   7.483   6.468  14.256  0.1741  0.0515  0.0033
 7854W        W24038   6.649   5.774   5.519  0.0178 -0.0894  0.1612
 7855W        W24039  11.810  12.215   5.235 -0.0184 -0.0320 -0.1007
 7856W        W24040   2.823  13.247  14.801  0.3315  0.1500 -0.1435
 7857W        W24041  13.983   4.909  12.403  0.2522  0.0628 -0.0949
 7858W        W24042  16.117   1.306  14.153 -0.1677 -0.1392  0.0695
 7859W        W24043   4.462  11.934  16.613 -0.0010 -0.2236  0.1850
 7860W        W24044   5.403   5.139  15.238  0.1133  0.2291 -0.2856
 7861W        W24045   7.312  11.173  11.627 -0.1146  0.0422 -0.0252
 7862W        W24046  16.763  17.087  14.907 -0.0012  0.1464 -0.0820
 7863W        W24047   9.353   7.923   3.243  0.0336 -0.0880  0.0070
 7864W        W24048   6.590  17.645   2.215  0.1840  0.4069 -0.1678
 7865W        W24049   1.494   1.543   5.248  0.0066  0.1428 -0.0965
 7866W        W24050  17.558  14.302   1.754 -0.0856 -0.0038  0.4005
 7867W        W24051  11.932   7.041   5.228 -0.2400 -0.0159  0.1909
 7868W        W24052  13.285   2.398   3.709 -0.1389 -0.3323 -0.0815
 7869W        W24053   7.200  14.318   4.366 -0.0997 -0.0977 -0.0565
 7870W        W24054  11.718   2.953  15.561 -0.3188  0.0674  0.0410
 7871W        W24055   8.024  13.711  11.674  0.1796 -0.0734  0.0358
 7872W        W24056  15.196  16.810  14.838 -0.3254 -0.0075  0.2167
 7873W        W24057   2.491   2.428   3.832 -0.0424  0.2097 -0.1298
 7874W        W24058   1.053   8.008   1.637 -0.1682 -0.0891 -0.0894
 7875W        W24059   8.234   2.239  12.182 -0.0373 -0.3045  0.0249
 7876W        W24060  10.772   5.171  12.374 -0.2320 -0.1719  0.0674
 7877W        W24061   1.309  10.922   0.337 -0.0791  0.1755  0.0034
 7878W        W24062  14.299  13.469   5.487 -0.0892 -0.1546  0.1555
 7879W        W24063   1.409   3.526  12.382  0.0650 -0.1620 -0.0375
 7880W        W24064   6.737  16.939   4.866 -0.2007 -0.1875 -0.1063
 7881W        W24065   9.572   2.853   0.789  0.1599 -0.1266  0.1401
 7882W        W24066   2.414  16.407   5.357 -0.1059 -0.4713 -0.0180
 7883W        W24067  16.991  12.459   2.983 -0.1239 -0.1640 -0.0891
 7884W        W24068   3.643   2.933   4.500 -0.1072  0.2641  0.1593
 7885W        W24069   4.177  13.762  11.849 -0.1732  0.0066 -0.1151
 7886W        W24070  16.586   4.623  14.803 -0.0380  0.0840 -0.1115
 7887W        W24071  17.358  12.706   4.142  0.0788  0.3799 -0.0002
 7888W        W24072   4.756  12.371   1.956  0.0245 -0.0466 -0.1760
 7889W        W24073  16.552  11.503  11.542 -0.2863  0.0854 -0.0945
 7890W        W24074  10.894  10.902   5.652  0.0843  0.7796 -0.1608
 7891W        W24075  16.068  12.239  16.452 -0.0477 -0.2689  0.1323
 7892W        W24076   0.356  16.288   2.808  0.0594 -0.2853 -0.0750
 7893W        W24077   1.651  16.555   1.070 -0.2054 -0.2050  0.2931
 7894W        W24078   2.182   0.660  16.728  0.0571  0.1224  0.1567
 7895W        W24079   9.437  12.762   0.499  0.2067 -0.0067 -0.1872
 7896W        W24080   5.883  16.545  16.099 -0.0565 -0.0019  0.1725
 7897W        W24081   7.631  11.761  14.000 -0.0799 -0.0014  0.1349
 7898W        W24082   0.059  11.356   5.667 -0.0514  0.0509  0.0869
 7899W        W24083   1.627  15.710  16.752  0.0268  0.0240 -0.0692
 7900W        W24084   8.133   7.333   2.187  0.3849  0.3458 -0.0300
 7901W        W24085  14.667  14.397   1.206 -0.1490  0.2343 -0.0148
 7902W        W24086   9.024   5.542  14.767  0.2186 -0.0081 -0.0342
 7903W        W24087  13.139  10.122  16.357  0.0001 -0.0923  0.0383
 7904W        W24088  14.351  10.693  16.610 -0.0467 -0.3107 -0.3952
 7905W        W24089   3.001   7.258   3.527  0.2660 -0.1054 -0.1789
 7906W        W24090  10.922  14.023   3.245  0.0044 -0.3714 -0.0154
 7907W        W24091   4.359   0.495  15.827 -0.1965  0.1871 -0.0660
 7908W        W24092  12.387   9.786   1.105 -0.1038 -0.1302 -0.1096
 7909W        W24093   3.705  13.445  14.916 -0.1076 -0.0819 -0.0921
 7910W        W24094   1.305   8.682   0.810  0.4012  0.1402 -0.1797
 7911W        W24095   8.480   4.746  16.015 -0.3208 -0.1131 -0.2865
 7912W        W24096  10.696  11.272  12.520  0.0387 -0.0524 -0.0342
 7913W        W24097  12.581  15.534   5.109 -0.1588 -0.2475 -0.1189
 7914W        W24098  13.893  10.339  14.888  0.4009 -0.3626 -0.2681
 7915W        W24099   0.447   8.556  14.280 -0.1448 -0.0798  0.1323
 7916W        W24100   0.914  12.127  16.046  0.1784  0.1848  0.2635
 7917W        W24101   0.379  17.708   2.457  0.0710 -0.3688  0.2499
 7918W        W24102   2.792  15.575   1.517 -0.2581 -0.0511 -0.0026
 7919W        W24103   4.333  12.191  13.624 -0.4055 -0.1230  0.1001
 7920W        W24104   8.992   3.458   2.007 -0.2145  0.1355  0.0714
 7921W        W24105   4.055  14.452   3.857  0.0979  0.0071  0.0365
 7922W        W24106   0.168   2.587  12.820  0.1081 -0.2435  0.1253
 7923W        W24107  12.291  17.578   0.116  0.1926  0.1631 -0.0087
 7924W        W24108   3.941  13.902  14.770 -0.2089  0.1108  0.0878
 7925W        W24109   5.994  13.663  12.371 -0.1324  0.2595  0.1924
 7926W        W24110  13.416   8.343   0.191 -0.2883  0.0232  0.0891
 7927W        W24111  14.263   7.619   1.649  0.2921 -0.2256 -0.0550
 7928W        W24112  12.307   9.729  13.673 -0.1156  0.1263  0.0337
 7929W        W24113  15.445   8.499  14.784 -0.3407  0.0020  0.2766
 7930W        W24114  13.112  15.301   2.893 -0.0915 -0.0499  0.0187
 7931W        W24115   9.588  14.199  15.326 -0.2476  0.0480 -0.2222
 7932W        W24116  17.471   3.734   4.200 -0.5508 -0.1831  0.0547
 7933W        W24117  17.498   1.280  13.555  0.1699  0.1176 -0.1716
 7934W        W24118   1.590  16.504   0.612  0.0079  0.0299  0.0838
 7935W        W24119   6.585   6.390  13.044  0.0586 -0.2452  0.0908
 7936W        W24120   0.521   7.682  12.443 -0.0416  0.1382 -0.0279
 7937W        W24121  11.078   7.451   1.655 -0.1525 -0.0555 -0.1408
 7938W        W24122   3.317  10.651  15.504  0.1623  0.1269 -0.2257
 7939W        W24123   0.876   4.311   5.590 -0.0842 -0.0862 -0.0738
 7940W        W24124  17.133   5.576   6.460 -0.1783 -0.1433 -0.2166
 7941W        W24125   8.645  14.417   0.157  0.2833  0.1575 -0.0665
 7942W        W24126   2.749  15.544  12.999 -0.1596 -0.2586 -0.0122
 7943W        W24127  10.816  14.019   5.214 -0.1940  0.1308 -0.3067
 7944W        W24128  13.786  14.051   2.637  0.0182  0.1094 -0.1975
 7945W        W24129   6.631  14.205   3.072  0.0014 -0.2694  0.0397
 7946W        W24130  15.706   0.346   4.988 -0.1043 -0.0947 -0.0639
 7947W        W24131   9.268   8.425  12.577 -0.2108 -0.2743  0.1720
 7948W        W24132  10.560  11.239  14.062  0.4377  0.0763 -0.3440
 7949W        W24133   7.722   8.802   1.772 -0.4316  0.1279 -0.1642
 7950W        W24134   0.703  15.903  11.739  0.2929 -0.1634 -0.0558
 7951W        W24135   4.023  11.017   1.915  0.1077 -0.0806  0.1071
 7952W        W24136   7.238  10.087  15.785 -0.1439  0.1432  0.0853
 7953W        W24137  16.154  10.833   2.813  0.1608 -0.3513 -0.0563
 7954W        W24138   6.099  11.162   4.436  0.0425 -0.1122 -0.0136
 7955W        W24139   8.157  15.473   2.399 -0.1382  0.1903 -0.1295
 7956W        W24140   2.138  14.908   3.475  0.0441 -0.2935  0.0030
 7957W        W24141   6.341   2.868   5.184  0.0792 -0.0376 -0.1598
 7958W        W24142   3.523   0.240  12.144  0.0830  0.3128 -0.2234
 7959W        W24143  15.581  13.100   2.230  0.1000 -0.0712 -0.1363
 7960W        W24144   4.244   0.615  14.425  0.3434 -0.2192 -0.3455
 7961W        W24145   0.767   1.251  12.916  0.0492  0.0190 -0.1199
 7962W        W24146   1.119   9.293  12.931  0.0330 -0.0326  0.1656
 7963W        W24147  10.124   9.346   2.543 -0.3821 -0.1120 -0.0773
 7964W        W24148   5.594  17.462  14.662  0.2626  0.2370 -0.3268
 7965W        W24149   7.327   7.282  14.541  0.3043  0.0876 -0.3502
 7966W        W24150   5.665   4.883   1.658 -0.0288 -0.0795  0.2667
 7967W        W24151  13.570   5.274  16.549  0.0965  0.0319  0.3203
 7968W        W24152  11.952   2.689   2.023 -0.2129  0.1336  0.0506
 7969W        W24153   8.091  15.857  16.582  0.0165 -0.0424 -0.1681
 7970W        W24154  16.633  14.510  13.627  0.1801 -0.5000 -0.1915
 7971W        W24155  11.713   2.846  16.545 -0.2397  0.0218  0.3198
 7972W        W24156   5.394  10.068  11.960 -0.1225  0.0098 -0.0519
 7973W        W24157   2.752  17.169  16.383  0.2377 -0.0392 -0.1349
 7974W        W24158  10.520   2.239  13.654  0.0557 -0.1494  0.0603
 7975W        W24159   1.617  10.751   4.546 -0.1848 -0.1380  0.0656
 7976W        W24160  15.335  12.365  14.428 -0.0334  0.4440  0.0724
 7977W        W24161  11.861  17.591   3.305  0.1378 -0.2260  0.0391
 7978W        W24162  10.909   0.022   2.864  0.0943 -0.3021  0.3249
 7979W        W24163  14.036  10.329  16.221 -0.0925 -0.0645  0.0391
 7980W        W24164   8.082   6.778   3.368  0.0719  0.2070 -0.2431
 7981W        W24165  16.164  14.230  12.236  0.0075 -0.1125 -0.0742
 7982W        W24166  15.113   5.883   0.354 -0.4339  0.1211  0.0445
 7983W        W24167  13.502  12.270   0.193 -0.0040 -0.1348  0.0759
 7984W        W24168   9.501   0.624   4.196  0.2596  0.0577 -0.1366
 7985W        W24169   8.395  13.167  14.162  0.1208 -0.0492 -0.1048
 7986W        W24170   7.687   0.737   1.977 -0.1031  0.3699 -0.1825
 7987W        W24171   2.624   4.600   4.918  0.1898  0.1410  0.1643
 7988W        W24172   2.130   9.570  13.424  0.0554  0.0301 -0.2603
 7989W        W24173   8.761  11.636   5.750 -0.0155  0.2579 -0.0171
 7990W        W24174   1.050  11.341   2.734 -0.2002 -0.0876  0.1770
 7991W        W24175   8.140   9.572   0.325 -0.0632  0.1735 -0.0217
 7992W        W24176  14.575   2.552   4.843  0.2400  0.2782  0.0343
 7993W        W24177   5.600   9.115   3.315 -0.0693 -0.1231  0.1845
 7994W        W24178   5.596   8.677  12.363 -0.1360 -0.0929  0.1668
 7995W        W24179   7.229   4.832   5.213 -0.0891  0.1176 -0.0108
 7996W        W24180  13.169  15.033  14.458 -0.0450  0.2553 -0.1254
 7997W        W24181  12.339  13.162  15.515  0.1698 -0.1093  0.1753
 7998W        W24182   8.858   6.127   3.269  0.1062  0.0081  0.3241
 7999W        W24183   6.097  12.135  14.864  0.0998 -0.2012  0.0381
 8000W        W24184   5.482   8.645   0.983  0.0113 -0.0661  0.1255
 8001W        W24185   1.814   5.692   2.361  0.1211 -0.0682 -0.1112
 8002W        W24186   9.729  17.677   1.505 -0.0300 -0.4567 -0.0113
 8003W        W24187   9.835   1.047  11.847  0.0371 -0.0574 -0.0307
 8004W        W24188  15.631  17.506   1.684  0.0299 -0.1742  0.1456
 8005W        W24189   7.356   2.825  12.353 -0.2775 -0.0817 -0.1416
 8006W        W24190  14.966   7.758   0.355 -0.4172  0.2632  0.0216
 8007W        W24191   8.178  15.729   4.003 -0.1931  0.1944  0.1504
 8008W        W24192   8.632  16.802  14.607 -0.1833  0.1323 -0.0875
 8009W        W24193   3.625   9.045  14.463  0.2474 -0.0562  0.1795
 8010W        W24194  14.592   8.422   2.947  0.0472 -0.1630 -0.4577
 8011W        W24195  13.243  12.347  12.506 -0.1264 -0.1174 -0.1157
 8012W        W24196  16.656  12.036  14.239  0.2013 -0.3660 -0.3168
 8013W        W24197  16.614  15.597  16.202  0.1593 -0.0286  0.1216
 8014W        W24198   7.592  17.378  15.705 -0.0710 -0.1435 -0.3270
 8015W        W24199   4.974   6.884   1.578 -0.2263 -0.1967  0.1213
 8016W        W24200  16.172  10.046  14.188  0.0542 -0.3284 -0.2742
 8017W        W24201  12.974  15.588  14.217 -0.1050 -0.1990  0.1745
 8018W        W24202  16.571   9.967  16.771 -0.0853  0.0435 -0.1743
 8019W        W24203   3.753   9.091  12.890  0.2087  0.1632 -0.0097
 8020W        W24204   2.658  15.444  13.631  0.2932 -0.0944 -0.2181
 8021W        W24205   3.918  11.376   0.590 -0.0468 -0.1479  0.1495
 8022W        W24206  10.737  14.744   4.016 -0.3746 -0.1403 -0.0713
 8023W        W24207  16.659   1.069   5.087  0.0890  0.1709 -0.4799
 8024W        W24208   2.611  14.915   0.499 -0.1368 -0.0327  0.1614
 8025W        W24209   5.403  10.790  14.104  0.0042  0.0738  0.0361
 8026W        W24210  17.206   1.014   3.697  0.3146 -0.2737  0.1739
 8027W        W24211   2.191  11.882  14.590 -0.0658 -0.0368 -0.3234
 8028W        W24212   6.714   7.743   6.049 -0.0522  0.0249  0.1086
 8029W        W24213   9.872  17.018  10.994 -0.1745 -0.2340 -0.0038
 8030W        W24214   6.219  16.276   1.403  0.0524 -0.1132  0.0243
 8031W        W24215   3.565  15.750  11.804 -0.0435  0.1883 -0.3068
 8032W        W24216  17.149  12.880  14.976 -0.0829  0.1188 -0.1697
 8033W        W24217  16.976  11.057  11.829 -0.0204 -0.1004  0.1737
 8034W        W24218  12.761  17.631   5.429  0.1170 -0.0465 -0.1153
 8035W        W24219   0.048  11.476   5.169 -0.4348 -0.0217  0.2172
 8036W        W24220  16.059  15.660  13.206 -0.2017  0.2739  0.0859
 8037W        W24221  16.628   6.739  13.128  0.2360  0.0131 -0.0752
 8038W        W24222  12.306   4.983   3.913 -0.1910  0.1196 -0.0123
 8039W        W24223  15.998   4.982   1.612 -0.3170 -0.0427  0.2672
 8040W        W24224  12.598   0.724   0.628 -0.0177  0.3538 -0.1682
 8041W        W24225   9.305   7.456   5.795  0.1947 -0.1499  0.4637
 8042W        W24226  12.995  12.560  14.534 -0.2624  0.1345  0.0637
 8043W        W24227   4.525   2.235   2.464 -0.1575  0.0180  0.0277
 8044W        W24228   5.047   1.954  14.192 -0.2642 -0.1161  0.1455
 8045W        W24229   4.122  11.729   5.229 -0.0196  0.1180  0.1826
 8046W        W24230  10.258  17.736   1.593  0.3176 -0.1174  0.1054
 8047W        W24231   3.340   3.504   2.509 -0.0763  0.0035  0.1455
 8048W        W24232   2.772  16.833  11.664  0.0235 -0.1837 -0.1883
 8049W        W24233  15.540  12.654  12.330 -0.2671 -0.2821  0.0514
 8050W        W24234  11.204  10.222   4.225 -0.1866  0.1520  0.1416
 8051W        W24235   3.932  17.330  13.061  0.0206  0.1530  0.2553
 8052W        W24236   3.141   8.328  14.898  0.1165  0.4415 -0.3029
 8053W        W24237   5.998  14.192  15.876 -0.0104  0.1679 -0.1084
 8054W        W24238   8.112  16.298   0.004  0.0065  0.1020 -0.0375
 8055W        W24239   0.674   3.451  16.298  0.2152 -0.1458  0.1554
 8056W        W24240  14.015   7.777  15.897  0.1065  0.1634  0.0254
 8057W        W24241  15.572   0.035  15.190  0.4443  0.2153  0.1096
 8058W        W24242   6.359   7.351  15.236 -0.1625  0.2188  0.0868
 8059W        W24243  13.798   7.323   1.649  0.1394 -0.1181  0.0862
 8060W        W24244   2.097  14.249   1.590  0.1006 -0.0349 -0.1960
 8061W        W24245  16.651   5.443   4.494  0.0805  0.0295  0.4063
 8062W        W24246  12.080  14.991   2.275  0.0357  0.0732  0.1062
 8063W        W24247   4.989  11.656   5.007 -0.2025  0.0336 -0.3618
 8064W        W24248   8.599   6.494   0.868 -0.0211  0.1807  0.1504
 8065W        W24249  15.172  15.218  14.710  0.3740 -0.2362 -0.1053
 8066W        W24250   7.982   1.762  16.355 -0.4185  0.2268  0.0512
 8067W        W24251   1.596  16.881   4.887 -0.2014 -0.1067  0.1418
 8068W        W24252  12.598  10.123   3.930 -0.1550  0.2548  0.0343
 8069W        W24253  12.923  12.253  13.641  0.2732 -0.1370 -0.0024
 8070W        W24254   5.367  12.328   0.862 -0.1494 -0.1634 -0.0582
 8071W        W24255  11.735   6.112  14.325 -0.0104 -0.1779  0.2009
 8072W        W24256   4.029  12.659  16.726 -0.1872 -0.1800 -0.0793
 8073W        W24257  10.879   6.508  14.836  0.1393 -0.3806  0.0713
 8074W        W24258   1.398   0.276  14.251 -0.2515  0.0167 -0.2086
 8075W        W24259  13.587  17.528  13.247  0.0048  0.0808  0.1391
 8076W        W24260  13.056  12.558   0.034  0.1207  0.0977  0.0824
 8077W        W24261   0.013   5.038  13.854 -0.0584 -0.1042 -0.0527
 8078W        W24262   9.965   0.685   4.372 -0.3993 -0.0067 -0.1448
 8079W        W24263   1.513  16.665  12.854 -0.0544  0.0574 -0.0209
 8080W        W24264  15.630  10.822  12.935 -0.1078 -0.3607  0.2743
 8081W        W24265   5.454  17.412  12.686  0.0333 -0.0981  0.0175
 8082W        W24266   9.952  10.915  16.851 -0.4111  0.0047 -0.2236
 8083W        W24267   0.310  17.671   1.559  0.0545  0.0879 -0.0321
 8084W        W24268  17.619   5.313   1.395 -0.1908  0.1477 -0.0812
 8085W        W24269   7.049   1.081  12.063  0.0591  0.1675 -0.0460
 8086W        W24270   3.260   6.602  13.615 -0.2653  0.2639  0.1411
 8087W        W24271  10.568   0.729   2.180  0.2954  0.0124  0.1371
 8088W        W24272  10.025   1.897   2.894 -0.0560  0.0816  0.0451
 8089W        W24273   6.775  12.712  12.884  0.1185  0.2237 -0.3505
 8090W        W24274  16.588  14.977   0.232  0.0861  0.1952  0.1607
 8091W        W24275   5.788   4.126   3.661 -0.1760 -0.0680 -0.0282
 8092W        W24276  13.027  15.989  16.700  0.1099 -0.0258  0.3072
 8093W        W24277   1.638  10.436   2.786 -0.2608 -0.2172 -0.0001
 8094W        W24278   4.664  14.848   2.506  0.1898 -0.2248  0.1976
 8095W        W24279  10.280   3.270  15.624  0.0889 -0.1799  0.1291
 8096W        W24280   5.005  15.955  11.728  0.0471 -0.3651  0.1633
 8097W        W24281  12.640  13.393  14.490 -0.0163 -0.0596  0.2876
 8098W        W24282   4.785   9.170  15.636 -0.1525 -0.0415  0.0128
 8099W        W24283   2.759   0.747   4.393  0.2395 -0.0070  0.0139
 8100W        W24284   9.903  17.242  15.658 -0.1605 -0.1724 -0.3537
 8101W        W24285   7.923  12.537  13.440  0.1080 -0.1157  0.0743
 8102W        W24286   3.100  14.898  13.165  0.1428  0.0222 -0.1802
 8103W        W24287   9.310   6.982  14.247  0.1897  0.0396 -0.0577
 8104W        W24288  15.466  10.686   2.694  0.1119 -0.1295  0.1544
 8105W        W24289   1.252  11.123   2.317  0.0141 -0.0535  0.2218
 8106W        W24290  16.720   5.121  14.778  0.0288 -0.2353 -0.1330
 8107W        W24291  17.038   0.420   2.850  0.3228 -0.0551  0.1148
 8108W        W24292   0.936   8.151   4.793 -0.2036 -0.0616 -0.0020
 8109W        W24293   9.491  11.565   4.620 -0.0755 -0.1947 -0.1175
 8110W        W24294   1.239  13.315  13.308 -0.1328  0.3512  0.1261
 8111W        W24295  15.532   1.382   3.272  0.1617 -0.1604  0.0398
 8112W        W24296  16.849   9.161  16.365  0.0434  0.1735 -0.1893
 8113W        W24297  15.332  12.893  16.471  0.1890  0.2769  0.3003
 8114W        W24298   0.738  13.884  16.302 -0.2854  0.0621  0.1405
 8115W        W24299   5.679  13.496  14.496 -0.4447 -0.1461  0.1112
 8116W        W24300   6.323  10.766  16.506  0.3027  0.2546 -0.0461
 8117W        W24301  14.452   2.778   0.179  0.2251  0.0642 -0.0837
 8118W        W24302   1.019  11.204   1.235 -0.0485  0.0643 -0.2586
 8119W        W24303  11.793  15.415   2.454 -0.1569 -0.0164  0.5023
 8120W        W24304  16.343   1.471  12.203  0.0189 -0.0579 -0.0473
 8121W        W24305   3.552  12.384  10.946  0.2347  0.0447 -0.0772
 8122W        W24306   8.257  13.769  16.014 -0.0112  0.1662 -0.0422
 8123W        W24307   5.828  10.975   3.813  0.0402  0.1563  0.2338
 8124W        W24308  10.568   3.620   5.545 -0.1766 -0.1264  0.3113
 8125W        W24309  11.060   4.951  11.864 -0.2177  0.0812  0.0876
 8126W        W24310  10.998   8.428   6.117 -0.1522  0.2404  0.2971
 8127W        W24311  10.418   9.061  11.383  0.2078 -0.2184 -0.4765
 8128W        W24312  15.880  10.914  16.381 -0.0654 -0.0509  0.0450
 8129W        W24313  17.465   8.177  14.227  0.0283 -0.0036 -0.1329
 8130W        W24314   4.606   7.346   2.447  0.0763  0.2663 -0.1906
 8131W        W24315   8.147   7.671  12.230  0.0265  0.0433  0.3181
 8132W        W24316   3.826   3.874  13.896  0.2599  0.0781  0.0352
 8133W        W24317   7.947   6.058   5.368  0.2224 -0.1858 -0.1936
 8134W        W24318  12.587  11.949   0.598  0.0103  0.0993 -0.0524
 8135W        W24319  12.127  11.487   1.193 -0.1355  0.1877  0.0051
 8136W        W24320   5.022   9.280   0.485  0.0208  0.0833 -0.0099
 8137W        W24321   2.542   2.638   2.759  0.1182  0.0541  0.1444
 8138W        W24322   2.569  15.550   5.764 -0.0415 -0.1905  0.0917
 8139W        W24323   3.037   3.048   2.982  0.0264  0.2081  0.0025
 8140W        W24324   4.842   9.272   1.607  0.2710 -0.1700  0.0613
 8141W        W24325  17.177   5.024  15.893  0.4121 -0.3370  0.0033
 8142W        W24326   8.065  10.187   4.930 -0.1767 -0.0563 -0.1755
 8143W        W24327  11.388  16.295  14.004 -0.0399 -0.0039 -0.0665
 8144W        W24328  15.467  16.189  15.658 -0.0363  0.1807  0.0818
 8145W        W24329   1.001  10.454   0.364  0.1428 -0.1240  0.0583
 8146W        W24330   9.678  17.289   2.351  0.2024  0.0931  0.1923
 8147W        W24331   4.641   8.029   5.073 -0.3027  0.3011  0.0334
 8148W        W24332   9.870  14.695   3.611 -0.0939 -0.1107  0.0701
 8149W        W24333  13.528   9.483  12.021  0.2818 -0.1587  0.3828
 8150W        W24334  14.357   1.408   3.985  0.2235  0.1342 -0.3251
 8151W        W24335  11.457  14.760  15.688  0.2318  0.0093  0.0108
 8152W        W24336   9.897  15.126  16.326 -0.2099  0.1582  0.0395
 8153W        W24337   9.616   0.242   1.256  0.1605  0.1940  0.0401
 8154W        W24338   5.151  10.120   2.535 -0.1481  0.0441 -0.0942
 8155W        W24339  14.340   8.491   2.417 -0.0617 -0.1267  0.0921
 8156W        W24340  12.877   3.217   2.072  0.0916 -0.0703  0.1032
 8157W        W24341  13.877   7.140   6.443  0.1181 -0.0592  0.0169
 8158W        W24342   8.595  10.238  15.541  0.3754 -0.1730  0.0438
 8159W        W24343   5.084  17.367  13.701 -0.2392  0.1527 -0.2644
 8160W        W24344   3.076   2.809  14.703  0.2155  0.1312 -0.4758
 8161W        W24345   7.094  15.892  11.364  0.0958 -0.0845  0.0570
 8162W        W24346   0.727  12.571   3.512  0.1806 -0.0095  0.2748
 8163W        W24347   7.645   6.650   3.728  0.0728  0.1145 -0.1119
 8164W        W24348   5.047   0.919   0.706 -0.0349 -0.0152  0.2217
 8165W        W24349   4.074  13.304   3.696  0.2535 -0.0666  0.2371
 8166W        W24350  16.745   6.900   5.565 -0.2736  0.1036  0.1253
 8167W        W24351  16.728  11.440   2.169  0.2200  0.0082 -0.1147
 8168W        W24352   8.928   4.397  14.891 -0.0240 -0.0569  0.0366
 8169W        W24353  10.741  16.257  15.977  0.2354  0.2976  0.1280
 8170W        W24354   5.334   2.956   1.969 -0.3318  0.0659  0.0584
 8171W        W24355   2.942  13.108   0.509  0.2389 -0.0105  0.1223
 8172W        W24356   2.079   2.593  13.366 -0.4150 -0.3066 -0.0231
 8173W        W24357  15.452  16.700  16.676  0.1245  0.2946  0.1249
 8174W        W24358   7.944   1.450   0.404  0.1740  0.1389 -0.2814
 8175W        W24359  12.690   4.850  14.398  0.1697 -0.1023  0.0897
 8176W        W24360   7.595   2.111  16.264  0.0319  0.0394 -0.0620
 8177W        W24361   3.793  15.620   3.039 -0.0096  0.0078 -0.0811
 8178W        W24362  10.530   4.081  12.788  0.0698 -0.2009 -0.2008
 8179W        W24363   2.325   7.498   1.684 -0.1741  0.0592  0.1010
 8180W        W24364   0.732  16.560   5.611 -0.0872 -0.2758 -0.0378
 8181W        W24365   0.844   8.300   0.770  0.2054 -0.3709  0.2689
 8182W        W24366   9.972  13.661   4.081  0.0955 -0.0844 -0.1492
 8183W        W24367   2.039   7.041   3.093  0.4324  0.1367  0.0557
 8184W        W24368  10.425   3.406   0.723  0.2712 -0.2169  0.0658
 8185W        W24369  17.203  11.176  14.064  0.3272  0.1472 -0.0261
 8186W        W24370   0.983   5.237   3.223  0.0908 -0.0472 -0.3960
 8187W        W24371   2.696   4.854   6.220 -0.3003 -0.2005 -0.1038
 8188W        W24372  14.388   4.576   4.085 -0.1964  0.2102  0.3851
 8189W        W24373   0.316   7.127  16.496  0.1834  0.0088 -0.1123
 8190W        W24374   0.583  12.133   0.095 -0.2931  0.0614  0.1928
 8191W        W24375   1.660  14.971   2.784  0.1404  0.0853  0.2993
 8192W        W24376   9.590  11.004   1.539  0.0114 -0.1346 -0.1298
 8193W        W24377   6.004   7.482   3.550  0.2444 -0.0795 -0.1657
 8194W        W24378   6.298   4.662   3.030  0.3197 -0.1714  0.0872
 8195W        W24379   2.815  12.223  15.271 -0.2046 -0.1036  0.2201
 8196W        W24380  16.739  10.536  14.585 -0.1200 -0.0750 -0.2721
 8197W        W24381  12.693  15.983  15.704 -0.0327  0.0191  0.2486
 8198W        W24382   3.461  14.989  12.107 -0.2486 -0.0600  0.0221
 8199W        W24383   3.469  14.552  13.330  0.0985  0.3213 -0.1954
 8200W        W24384   8.249   4.147  14.971 -0.1341 -0.1564  0.1128
 8201W        W24385  10.957  16.871   2.419  0.0414  0.1453 -0.0114
 8202W        W24386   7.681  12.168  14.427  0.3895 -0.1972 -0.3079
 8203W        W24387   0.708  10.437   1.930 -0.3329  0.1125  0.4113
 8204W        W24388   0.681   5.637  13.209  0.1134  0.3937 -0.1469
 8205W        W24389   2.758   1.546  14.343  0.1026 -0.0737 -0.0942
 8206W        W24390  15.195   2.443  16.088 -0.0156  0.0607 -0.1612
 8207W        W24391  16.571   2.110   5.690  0.0480  0.0632  0.1287
 8208W        W24392   4.019   6.552  12.928  0.0939  0.1187 -0.2115
 8209W        W24393  12.830   4.825   4.240  0.0293  0.0093  0.0019
 8210W        W24394   1.714   3.053   6.225  0.1220 -0.1556  0.4732
 8211W        W24395   7.530   1.638   1.242 -0.3487 -0.1935 -0.2286
 8212W        W24396   1.524   4.418   0.663  0.2114  0.2615  0.2312
 8213W        W24397   6.662   8.817  15.204  0.4047 -0.0009  0.0361
 8214W        W24398  15.264  15.333   2.712 -0.1722  0.0017  0.0228
 8215W        W24399  14.274  12.895   0.323  0.1206 -0.1228 -0.4341
 8216W        W24400   6.692  12.516  15.862  0.1652 -0.0843 -0.1053
 8217W        W24401   8.316   4.251   3.433 -0.1706 -0.2444 -0.4075
 8218W        W24402  14.826   5.857  11.910 -0.3377 -0.3920  0.1139
 8219W        W24403   1.960  12.506   2.470 -0.0325 -0.1267  0.0261
 8220W        W24404  14.611   8.930   3.198 -0.1100  0.2332  0.0665
 8221W        W24405   4.702  14.041  11.680 -0.1528 -0.0799 -0.0084
 8222W        W24406   5.340   0.462   1.206 -0.0094 -0.1930 -0.3383
 8223W        W24407  10.148  14.694  14.150  0.1154  0.0182 -0.0509
 8224W        W24408   1.724  12.971   3.201 -0.0284 -0.1726 -0.0761
 8225W        W24409   8.145   5.367  16.162 -0.1466 -0.0605  0.0386
 8226W        W24410  16.041  16.409   3.221  0.3240 -0.1363 -0.0563
 8227W        W24411  11.697  16.849   1.724  0.2146  0.0421  0.0903
 8228W        W24412  12.547  16.218   4.499  0.3270 -0.1236  0.1479
 8229W        W24413   9.849  17.020   1.113 -0.1473 -0.0272 -0.1566
 8230W        W24414  10.025  14.490   0.250  0.0985  0.1321 -0.2760
 8231W        W24415  12.895   6.138  13.784  0.1174 -0.1326  0.1379
 8232W        W24416  12.193  14.157  14.332 -0.0485  0.2051  0.2979
 8233W        W24417  14.417  12.120   3.306 -0.0402 -0.1591 -0.0360
 8234W        W24418  10.741   2.281  16.766  0.2356 -0.1026  0.0704
 8235W        W24419   6.696  15.092   3.148  0.2959  0.0875 -0.2364
 8236W        W24420  17.166   2.266   3.584  0.0276 -0.2310  0.0176
 8237W        W24421  10.130   5.979  13.144  0.2958  0.1248 -0.2794
 8238W        W24422  13.407   6.312   0.276  0.0134  0.0471  0.5113
 8239W        W24423   6.981   1.094   0.203 -0.0434 -0.0153  0.0385
 8240W        W24424   5.034  12.815  16.564  0.0995  0.1536 -0.1329
 8241W        W24425  11.373  11.429   4.256  0.0417  0.1787  0.1205
 8242W        W24426   1.666  17.032   3.827 -0.0586 -0.2287 -0.2176
 8243W        W24427  11.398   9.921   2.034  0.2125  0.1702  0.3305
 8244W        W24428  15.398   4.254   5.106  0.2095 -0.1615  0.0446
 8245W        W24429  16.955  12.363  15.784 -0.0890  0.1922 -0.0004
 8246W        W24430  14.469  14.167  14.242 -0.1849 -0.2891  0.2134
 8247W        W24431  12.952  13.839   3.326 -0.1132 -0.2401 -0.0010
 8248W        W24432   5.672  15.876   2.478  0.0835  0.3639 -0.0491
 8249W        W24433   4.941  13.311  11.397 -0.3345  0.3118 -0.0900
 8250W        W24434   3.601   1.117  14.521  0.4205  0.1194 -0.1775
 8251W        W24435   4.819  14.224  11.180 -0.1785 -0.0933 -0.2007
 8252W        W24436  13.483  14.059   6.411 -0.4518 -0.0421 -0.1630
 8253W        W24437   2.954   2.317   1.188  0.4036 -0.1156 -0.0140
 8254W        W24438   9.909   2.846  13.110 -0.0410 -0.0520 -0.1670
 8255W        W24439   2.078  11.383  14.571  0.1881 -0.1320  0.3083
 8256W        W24440  11.058  15.587  14.636  0.1095 -0.2756 -0.1832
 8257W        W24441  17.349   7.723   2.620  0.0709  0.0390  0.1564
 8258W        W24442   4.754   4.420  16.662 -0.0006 -0.1939  0.0640
 8259W        W24443   3.439   9.636  15.344 -0.4074  0.0241 -0.0305
 8260W        W24444   5.837  17.334   0.114 -0.0319 -0.0538 -0.0383
 8261W        W24445  10.565   6.604  13.078  0.2089 -0.3828 -0.0146
 8262W        W24446  12.358   4.994   4.424  0.3574  0.3086 -0.2545
 8263W        W24447  15.481   2.831  16.106  0.0913  0.1572  0.0388
 8264W        W24448  10.877  10.723   0.780 -0.1448  0.0683 -0.1847
 8265W        W24449   6.209  10.924  12.573  0.2268  0.1092  0.2146
 8266W        W24450  14.864   5.521   4.566  0.1101  0.0517  0.2237
 8267W        W24451   9.290   5.263   1.528 -0.1902 -0.1868 -0.1613
 8268W        W24452  11.546  16.405   5.308  0.3879 -0.0134  0.6348
 8269W        W24453  17.053  10.063  16.227 -0.3833  0.3501  0.0118
 8270W        W24454   6.970   5.032  14.457  0.3606 -0.1637  0.0778
 8271W        W24455   8.147  15.137  12.754 -0.0051 -0.0274  0.0251
 8272W        W24456   9.645  14.411   5.496 -0.3924 -0.1916  0.1119
 8273W        W24457  16.103   9.076   4.025  0.0220  0.1927  0.0742
 8274W        W24458  12.372   5.020  11.179  0.3400 -0.2417  0.0806
 8275W        W24459  14.991   0.272  13.932 -0.2751 -0.4606 -0.0842
 8276W        W24460   9.214  11.237  16.755  0.0182 -0.1075  0.0230
 8277W        W24461   3.173   8.228   5.939  0.2211 -0.0817  0.2143
 8278W        W24462   8.800  16.131   0.732 -0.0649  0.0314  0.2537
 8279W        W24463   2.088  11.204  15.356 -0.2815  0.0409 -0.0858
 8280W        W24464  10.111   9.586  12.314  0.0265 -0.1348 -0.0836
 8281W        W24465   8.590  11.593  11.850  0.4208  0.1499  0.0018
 8282W        W24466  13.908   6.142  16.826 -0.0290  0.1185 -0.0148
 8283W        W24467   9.288  11.787  11.241  0.3967  0.2011 -0.0618
 8284W        W24468  13.744   8.651  15.262  0.3840 -0.0505  0.0450
 8285W        W24469   0.003   5.037  13.369  0.3087  0.2184  0.0863
 8286W        W24470  14.055   5.523  15.383  0.1367 -0.1947  0.0534
 8287W        W24471  17.605   0.808   4.045  0.2094 -0.1414  0.1012
 8288W        W24472  11.923   4.970   2.986  0.0331  0.1501 -0.1864
 8289W        W24473   0.554  16.744  11.170 -0.0464  0.2076 -0.3306
 8290W        W24474  11.601   2.171   2.672 -0.2980 -0.1239 -0.2595
 8291W        W24475   0.939   9.797  13.002  0.2104 -0.1834  0.2775
 8292W        W24476   9.664  13.046   4.159 -0.1126  0.1410  0.0578
 8293W        W24477   3.581   7.120  15.222 -0.0323  0.1140  0.0504
 8294W        W24478   3.949  12.307   3.210 -0.0188  0.2296  0.1933
 8295W        W24479   5.663  12.055  15.270 -0.0078  0.0720 -0.2429
 8296W        W24480  15.639  14.983   0.621 -0.0233 -0.1550  0.2130
 8297W        W24481   1.432  17.239  15.433  0.0495  0.0425 -0.0816
 8298W        W24482   1.608  13.401  11.811 -0.0498  0.0504 -0.0246
 8299W        W24483   0.293   0.422  12.905 -0.1881 -0.1015 -0.4444
 8300W        W24484  16.665   9.736   5.087 -0.3087  0.3155  0.0018
 8301W        W24485   1.586   7.993   1.420  0.0608  0.1633 -0.0288
 8302W        W24486  11.170   2.343   0.099  0.0894  0.0737 -0.1829
 8303W        W24487  11.360  14.913   1.352  0.2861 -0.1822 -0.0859
 8304W        W24488   6.654   9.916  14.219  0.0613  0.0590 -0.2444
 8305W        W24489  13.714  15.612  15.526  0.1276 -0.0490  0.0783
 8306W        W24490   8.689   3.999  15.183  0.1569 -0.2047 -0.0082
 8307W        W24491   0.153  10.269  12.442 -0.0660  0.0600  0.1639
 8308W        W24492   5.593  16.184   3.694  0.0468  0.0813  0.0573
 8309W        W24493  14.453  17.193  15.653 -0.1719 -0.0332 -0.4002
 8310W        W24494  14.072  13.513  14.369 -0.2192 -0.0543  0.2375
 8311W        W24495   1.510   4.999   1.462  0.1975  0.0696  0.0574
 8312W        W24496  15.199  12.894   0.469 -0.0133  0.2438  0.0164
 8313W        W24497  15.573   6.282  15.412 -0.1678  0.0382  0.1105
 8314W        W24498   3.841   1.331  16.378 -0.1766 -0.0455 -0.1261
 8315W        W24499   5.174   9.736   0.639 -0.2377 -0.1239  0.2567
 8316W        W24500  17.631   0.991   5.845  0.0365  0.0532  0.0474
 8317W        W24501   7.655  15.431  16.729  0.0212 -0.1158 -0.0251
 8318W        W24502   4.541   7.452   0.147  0.2083 -0.2085  0.0706
 8319W        W24503   3.840   1.924  12.883 -0.1353  0.1809  0.2274
 8320W        W24504   0.932  12.909   1.019  0.0048 -0.1243 -0.2262
 8321W        W24505  14.169  12.810   0.917 -0.1076 -0.2181 -0.0363
 8322W        W24506  13.555  12.776   6.155 -0.1276  0.1019 -0.0042
 8323W        W24507   1.546   4.128  16.222 -0.0370 -0.1269 -0.0927
 8324W        W24508   5.306   8.979  12.629 -0.0518 -0.3010 -0.2533
 8325W        W24509   5.628  10.224  16.674  0.5157 -0.2419  0.0169
 8326W        W24510   8.767   8.885  11.834 -0.0754 -0.0126  0.3787
 8327W        W24511   2.555   2.949   3.654  0.1246  0.1076 -0.0099
 8328W        W24512   0.802   2.805  15.451 -0.0070  0.0201  0.2149
 8329W        W24513   4.231   7.444  15.687  0.0375  0.0085 -0.2301
 8330W        W24514  12.456   7.429  15.346  0.1222  0.0383 -0.1561
 8331W        W24515   6.385   3.880   3.659 -0.1535 -0.0193  0.0879
 8332W        W24516  17.875  17.749   4.814 -0.2433 -0.0918 -0.0077
 8333W        W24517   3.376  10.936   3.707 -0.3351  0.3694  0.0001
 8334W        W24518   5.795  10.482  14.102 -0.0637  0.5386  0.2170
 8335W        W24519   7.471  16.398  15.303  0.0774  0.0558 -0.0007
 8336W        W24520  15.119  17.475   3.985  0.1395 -0.0824 -0.0719
 8337W        W24521   5.249   0.128  13.451 -0.0207 -0.0739 -0.3399
 8338W        W24522   2.724   0.772   4.943  0.0712  0.5751  0.0447
 8339W        W24523   6.639  10.077  12.210 -0.1886  0.2062 -0.0016
 8340W        W24524   6.906   2.828  12.619 -0.4536  0.0699 -0.1677
 8341W        W24525   1.434   6.911   0.774 -0.1164 -0.0083 -0.0737
 8342W        W24526   7.937   7.903   2.182  0.2148 -0.0564  0.2154
 8343W        W24527   3.148  15.101  16.006  0.1273 -0.1857  0.0551
 8344W        W24528  10.255  16.773  15.785 -0.0284 -0.2768  0.4000
 8345W        W24529   9.486  10.909   0.532  0.0590  0.0251  0.4866
 8346W        W24530  12.167   2.981  13.875 -0.0843 -0.0837 -0.1283
 8347W        W24531   4.570   7.034  14.841 -0.2497 -0.1807 -0.0056
 8348W        W24532   1.783  13.073  14.678  0.0150  0.1388  0.0075
 8349W        W24533  17.008  13.502   4.345 -0.0609  0.0652  0.1133
 8350W        W24534  15.089   4.029   1.364 -0.0152  0.1596 -0.4830
 8351W        W24535   3.614   8.587   0.039 -0.1168 -0.0017  0.1277
 8352W        W24536   3.587  15.116   3.975  0.0528  0.0961 -0.0671
 8353W        W24537  12.806   3.205   4.340  0.0308  0.0836 -0.3503
 8354W        W24538   1.620   2.705   0.697 -0.0610 -0.2726 -0.0110
 8355W        W24539  12.348   4.251  11.747 -0.0151 -0.1436  0.2138
 8356W        W24540  17.240   1.826   0.487 -0.2516 -0.1969  0.0498
 8357W        W24541  15.300  17.857   5.640  0.0154 -0.0914  0.2240
 8358W        W24542   8.119  14.253   3.189 -0.1558 -0.3900  0.4688
 8359W        W24543   1.606   5.544   4.305 -0.1677  0.0362 -0.0746
 8360W        W24544   7.835   1.511   2.615  0.1557  0.2765  0.0775
 8361W        W24545  10.353  15.658   2.330  0.2033 -0.1733 -0.1286
 8362W        W24546  15.095   2.422   3.934 -0.2342 -0.2818  0.2487
 8363W        W24547  15.247   8.236  12.114  0.1684  0.2163 -0.0389
 8364W        W24548   1.622   9.819   1.427 -0.3284  0.1628 -0.1494
 8365W        W24549   3.669   0.837   3.469 -0.0614  0.1154 -0.0081
 8366W        W24550   1.429  11.376   1.476 -0.0904 -0.0119 -0.0436
 8367W        W24551   0.675   5.845  12.303  0.2028 -0.1124  0.2427
 8368W        W24552  14.115   7.015  11.746 -0.2085  0.0255 -0.4241
 8369W        W24553   8.710  16.462  12.659  0.2500  0.0967  0.0347
 8370W        W24554   5.893  13.043  14.579  0.0151  0.2358  0.0231
 8371W        W24555   0.033   6.023   2.503 -0.0500 -0.4278 -0.0926
 8372W        W24556   4.007   6.894   0.146  0.1058 -0.1471  0.0671
 8373W        W24557   1.863   4.449   5.359  0.0141  0.1297 -0.1286
 8374W        W24558   5.340  16.023  15.782 -0.0261 -0.0332  0.3659
 8375W        W24559   1.750  12.258  14.725  0.3417  0.0465  0.0056
 8376W        W24560   9.603   7.995  13.417  0.0140  0.0360 -0.0220
 8377W        W24561  16.236  11.651   2.171 -0.1690  0.0035  0.2326
 8378W        W24562   0.578   4.473   0.284 -0.2115 -0.1265  0.2264
 8379W        W24563   8.374  16.196  15.826 -0.1230 -0.2796 -0.2064
 8380W        W24564   0.088  17.180  13.525  0.1559  0.0278 -0.2029
 8381W        W24565  11.834   4.096  14.462  0.3210  0.0372 -0.2281
 8382W        W24566  12.990   5.171   1.772 -0.2747  0.0201 -0.0121
 8383W        W24567  13.652  16.315   0.819  0.0549  0.1922  0.1093
 8384W        W24568  10.351  11.882  12.054 -0.0915  0.2644 -0.1304
 8385W        W24569  10.637  12.741  12.630  0.1341  0.2196 -0.1746
 8386W        W24570  17.049   2.224  12.902  0.0373 -0.0025  0.0601
 8387W        W24571   7.288  14.406   5.586 -0.3384  0.0710  0.0439
 8388W        W24572  15.798   6.696   4.294 -0.0483 -0.3155  0.2348
 8389W        W24573   4.301   1.716   4.904 -0.0122 -0.1137 -0.0162
 8390W        W24574  13.081  15.799   3.087  0.1975 -0.1942  0.1179
 8391W        W24575   8.813  14.494   5.134  0.3971 -0.0272  0.3912
 8392W        W24576   9.300  10.176  13.281 -0.0848  0.0235  0.3495
 8393W        W24577   3.192  10.946   4.258  0.1380 -0.0368  0.1059
 8394W        W24578  10.316  14.289  11.484 -0.1067  0.1007  0.0950
 8395W        W24579   6.248  11.002   0.038  0.2524 -0.0487  0.3617
 8396W        W24580   7.170   3.847   0.248  0.0650 -0.0623  0.0421
 8397W        W24581   1.633   1.376  15.678  0.2661  0.0308 -0.0711
 8398W        W24582   8.576   6.375  15.313  0.2017  0.1192  0.0995
 8399W        W24583   5.101   3.120  12.890 -0.3515  0.1109  0.2615
 8400W        W24584   7.838   5.510   0.110 -0.4024 -0.2297  0.1148
 8401W        W24585  12.888  14.485   3.081 -0.2405  0.2756 -0.1482
 8402W        W24586  14.773  10.977   2.425  0.0650  0.1515 -0.1003
 8403W        W24587   3.773   2.129  13.426 -0.0030 -0.0187 -0.0256
 8404W        W24588  15.649   8.392  14.291 -0.2235  0.1068 -0.2405
 8405W        W24589   4.213  15.936  13.014 -0.0451 -0.1401 -0.1818
 8406W        W24590  11.649  12.547   5.966  0.0739  0.2062  0.0489
 8407W        W24591  10.755   3.935  11.946 -0.1195 -0.0225 -0.0798
 8408W        W24592  15.822   4.194  15.050 -0.1392  0.1043  0.0105
 8409W        W24593   2.019   1.149  16.888  0.0611 -0.1239  0.0109
 8410W        W24594  13.663   1.936  14.075  0.1638 -0.2821 -0.0101
 8411W        W24595   7.660   3.365   5.219  0.2214 -0.0646 -0.0992
 8412W        W24596  14.369   4.044   4.094 -0.0891  0.1024  0.0627
 8413W        W24597   9.833   3.059   2.158  0.0507 -0.0825 -0.0187
 8414W        W24598   9.149   7.494   3.643  0.0835  0.0506  0.0834
 8415W        W24599  13.801   6.189   5.276  0.4219 -0.1129  0.1019
 8416W        W24600  16.711   8.181  15.934 -0.1001  0.0466  0.0072
 8417W        W24601   0.276   3.653   5.692  0.0053  0.0959  0.0780
 8418W        W24602   2.316   3.212  14.493 -0.1340  0.2834 -0.2193
 8419W        W24603   3.158   4.945  15.407 -0.0149 -0.0559  0.1117
 8420W        W24604   4.658   8.595  14.156 -0.1867  0.1324  0.0383
 8421W        W24605   3.504  14.222  12.574 -0.1114  0.0078  0.0921
 8422W        W24606  13.937   0.951  15.563 -0.1870  0.2669  0.1570
 8423W        W24607  17.440  16.414   3.272 -0.0843  0.0515 -0.2000
 8424W        W24608  11.687   3.821  15.482 -0.0334 -0.2467 -0.0455
 8425W        W24609  16.857   7.913  13.037  0.0541 -0.0377  0.4194
 8426W        W24610   1.249   8.141   2.570  0.2366 -0.2083 -0.0801
 8427W        W24611  15.879  10.764   4.170  0.1240 -0.0484  0.2458
 8428W        W24612   8.221   3.576  11.672 -0.1147 -0.0020 -0.3007
 8429W        W24613  11.911  11.255   5.030  0.0792  0.0993  0.0108
 8430W        W24614   4.771   6.222   3.636 -0.0264 -0.1457 -0.1581
 8431W        W24615   1.245   6.263  16.358  0.0610  0.2901  0.1281
 8432W        W24616   8.556   2.030   0.510  0.0420  0.0074  0.1834
 8433W        W24617  10.344   6.558   6.190  0.1909 -0.0301  0.0013
 8434W        W24618   5.256  13.691   3.946  0.3957 -0.0982  0.2784
 8435W        W24619  16.456   1.407  13.769  0.0505  0.1905  0.0148
 8436W        W24620  12.074   6.767  15.956 -0.1519 -0.0136  0.1855
 8437W        W24621   4.853   7.612   4.412  0.0712  0.0173  0.0676
 8438W        W24622   0.890  15.616  15.067  0.0316  0.3572  0.3157
 8439W        W24623   5.490   5.987  13.521  0.2934  0.0106 -0.2759
 8440W        W24624  15.107  16.637  13.793 -0.1745 -0.1398 -0.0821
 8441W        W24625   3.029   0.983  12.334 -0.3186  0.3995 -0.2507
 8442W        W24626   3.024   8.755   2.563  0.0281  0.0956 -0.2719
 8443W        W24627   3.639   1.810  16.496  0.1319 -0.0192  0.0386
 8444W        W24628   0.774   0.434   4.529 -0.2204  0.0170  0.0383
 8445W        W24629  15.495   4.609  12.163  0.0504  0.2218 -0.2476
 8446W        W24630   2.251  11.474  11.571  0.0332 -0.5967 -0.2155
 8447W        W24631   4.290  10.022  13.126  0.2984  0.0691  0.2265
 8448W        W24632  10.167  11.927   3.375 -0.1814 -0.0545 -0.2549
 8449W        W24633   1.859  16.361  11.153  0.2202  0.1432 -0.1247
 8450W        W24634   7.353  12.346   4.403 -0.1613  0.0511  0.0778
 8451W        W24635  12.928   9.122  13.935 -0.0165 -0.1050  0.0900
 8452W        W24636  12.062  14.181   3.189 -0.0541 -0.1143  0.2262
 8453W        W24637  10.475  15.231   0.812  0.0553  0.1109 -0.2171
 8454W        W24638   7.285   8.945   4.029 -0.0047 -0.1496 -0.1258
 8455W        W24639  16.851  14.586   3.562  0.1549  0.1319 -0.2948
 8456W        W24640  11.135  16.384  15.729 -0.0883  0.0127  0.2178
 8457W        W24641   4.266   7.814  12.965  0.0556  0.0000 -0.0770
 8458W        W24642  15.724   1.974   1.612  0.1620 -0.1181  0.1787
 8459W        W24643   7.062  14.391  11.391  0.0421 -0.1004  0.1167
 8460W        W24644  13.355  17.489   0.313 -0.0406  0.0880 -0.1464
 8461W        W24645   9.486   2.812  14.955 -0.1159 -0.2747 -0.1316
 8462W        W24646  13.977   5.517  16.586 -0.2777 -0.0972 -0.2570
 8463W        W24647  14.120  16.711  13.465 -0.1002 -0.1616  0.0676
 8464W        W24648   0.686  12.438   0.939  0.1916 -0.0684 -0.1800
 8465W        W24649   9.036  15.774  13.586  0.0110  0.1814 -0.2776
 8466W        W24650   8.838   6.626  16.572 -0.2326  0.1427  0.1511
 8467W        W24651  15.552   5.386   3.929 -0.0428 -0.2876  0.1631
 8468W        W24652   0.362   1.480   5.387 -0.1263  0.1125 -0.3014
 8469W        W24653   9.661   0.355   2.860 -0.0852 -0.0398 -0.0744
 8470W        W24654  15.580  10.572   0.297  0.2140 -0.0088  0.0878
 8471W        W24655  11.180  14.812  16.136  0.1179 -0.2333  0.0330
 8472W        W24656  16.269   3.366   4.542 -0.0716  0.2584  0.2544
 8473W        W24657   3.549   5.042  15.699 -0.6212  0.2002 -0.0971
 8474W        W24658  16.176  17.189   4.270 -0.1955  0.3288  0.1325
 8475W        W24659   0.520  17.592   0.403  0.1670 -0.1899 -0.2551
 8476W        W24660   8.867   0.424   5.680 -0.1915 -0.1692  0.2336
 8477W        W24661   9.677  10.522   3.060 -0.1602  0.2520 -0.0986
 8478W        W24662   7.562  15.544  13.548 -0.0442 -0.3686 -0.0209
 8479W        W24663   9.624   4.048  16.199  0.2918 -0.1387  0.0083
 8480W        W24664  16.874   0.642  15.060 -0.3163 -0.1136 -0.0197
 8481W        W24665   0.736  16.140  13.630 -0.2056 -0.4578 -0.0367
 8482W        W24666   5.882  12.521  16.429 -0.0379 -0.0946  0.0636
 8483W        W24667   1.502   4.761  11.716  0.0779 -0.0178  0.0969
 8484W        W24668  15.709  16.025   3.308 -0.1108 -0.1796 -0.0771
 8485W        W24669   0.547   6.172   1.775 -0.3082  0.0926  0.2603
 8486W        W24670  14.386   1.401   2.522  0.1761  0.2968 -0.1273
 8487W        W24671   2.380   6.004   2.005  0.0334 -0.1418  0.1367
 8488W        W24672  12.044  13.444  12.725 -0.0177 -0.1555 -0.1241
 8489W        W24673  15.777  15.694  12.279  0.2002 -0.2752 -0.3471
 8490W        W24674   7.955   7.295  12.479 -0.1321 -0.3692  0.3277
 8491W        W24675   8.848   8.027   1.149  0.1707  0.2455  0.2009
 8492W        W24676  11.214  12.036  16.582  0.0007  0.0041 -0.3374
 8493W        W24677   9.783   7.262   4.036 -0.2104 -0.1750 -0.1044
 8494W        W24678  15.634   4.646  15.379 -0.3325  0.0308  0.0860
 8495W        W24679   3.478   6.696  16.430  0.2982  0.0506  0.1800
 8496W        W24680  16.754  14.189  15.789  0.0216 -0.0867 -0.2417
 8497W        W24681   3.266   6.502   6.186 -0.2094 -0.0944  0.2050
 8498W        W24682  10.000   3.759  15.496 -0.0026 -0.1208 -0.1087
 8499W        W24683   6.884   4.951  15.697 -0.0583 -0.0091  0.3029
 8500W        W24684   1.223   5.545   3.802  0.1372  0.0181  0.2444
 8501W        W24685   4.473   5.818  15.151 -0.0458  0.3470  0.0477
 8502W        W24686  15.809   2.781  13.264 -0.0184 -0.2362 -0.0088
 8503W        W24687  14.600   1.042   1.447 -0.2230  0.0208  0.6042
 8504W        W24688   2.242  10.275   0.057  0.3075  0.2306  0.4256
 8505W        W24689  10.656  14.423  15.409  0.0689 -0.3928 -0.0629
 8506W        W24690  10.636   5.150   2.017  0.0549 -0.0036 -0.4087
 8507W        W24691  13.129   3.820   4.036 -0.3709  0.1020  0.0620
 8508W        W24692  15.224  13.723  12.499  0.2076  0.2166  0.0932
 8509W        W24693   3.102  16.853  16.164  0.1669  0.1493 -0.1819
 8510W        W24694   9.986   9.311  14.673 -0.2702  0.0345  0.0624
 8511W        W24695  14.134   8.377  15.870  0.0723 -0.0388  0.1467
 8512W        W24696   2.240  14.517  11.684  0.2160  0.1171 -0.0409
 8513W        W24697   2.055   1.147  16.106  0.2029  0.0620  0.0938
 8514W        W24698  11.794  15.481  16.241 -0.1468  0.4444 -0.2348
 8515W        W24699   9.041  10.657   0.700  0.1400 -0.1305  0.4898
 8516W        W24700   7.397  14.492  11.948 -0.0408 -0.1855  0.0912
 8517W        W24701  17.700  11.846   5.500  0.1398 -0.3699  0.1411
 8518W        W24702   7.607   5.885  16.845  0.2272  0.1360 -0.1534
 8519W        W24703   2.012   1.056   2.123 -0.0395  0.0929 -0.0921
 8520W        W24704  17.011   1.050   2.219 -0.1772  0.2481  0.0998
 8521W        W24705   1.545  14.276   3.775 -0.0133 -0.0096  0.0246
 8522W        W24706  11.710   8.376  13.786  0.1459  0.0661  0.1232
 8523W        W24707  17.557  17.109   3.729  0.0083  0.1249  0.2943
 8524W        W24708  10.516   9.123  14.649 -0.2546 -0.1618 -0.1090
 8525W        W24709   1.761   6.962  14.304  0.2040  0.1335  0.0507
 8526W        W24710   3.799   1.531  14.240 -0.0270  0.0450  0.1869
 8527W        W24711  17.623   4.912   2.443  0.0549  0.3220  0.2546
 8528W        W24712  17.218   2.556   2.246  0.1695 -0.0086  0.0564
 8529W        W24713  13.483  17.769  15.757  0.4235  0.0078  0.0352
 8530W        W24714   4.284  16.573   2.115 -0.0591 -0.1255  0.0372
 8531W        W24715   3.283   8.497  12.428 -0.2848  0.0768  0.1033
 8532W        W24716   5.371  13.108   0.510 -0.1133 -0.0467  0.0508
 8533W        W24717  17.798   1.154   3.723  0.0570 -0.0812 -0.2685
 8534W        W24718   7.558  13.277   3.348  0.1573 -0.1999 -0.1165
 8535W        W24719   1.914   0.390  13.607 -0.0732  0.5861  0.1172
 8536W        W24720   0.355  10.540   2.307  0.2082  0.0724 -0.1384
 8537W        W24721   3.721  10.618  14.723  0.1396  0.0449  0.1573
 8538W        W24722  12.529   3.648  12.290 -0.2344 -0.0086  0.0215
 8539W        W24723   0.178   6.490   1.405 -0.1221 -0.0629  0.2432
 8540W        W24724   9.615   1.979   5.742  0.2119 -0.0140 -0.1143
 8541W        W24725   1.489   0.890   3.732  0.0308 -0.0776  0.0173
 8542W        W24726   6.780   2.346  16.278 -0.0632  0.1742 -0.1522
 8543W        W24727  16.660   6.586  16.545 -0.1321  0.1963 -0.1742
 8544W        W24728   4.797  17.321   3.636  0.1596 -0.2778  0.1852
 8545W        W24729   5.104   6.504   4.798  0.0419  0.0377  0.1073
 8546W        W24730   8.627  15.368   0.072 -0.0744 -0.0324 -0.1552
 8547W        W24731  10.766  16.395  13.924  0.2166  0.0735 -0.2079
 8548W        W24732   5.151   7.807   2.882  0.0124  0.0141 -0.0811
 8549W        W24733  16.643  13.813   4.645 -0.1094  0.0630 -0.0041
 8550W        W24734   3.705   9.318   0.461  0.0998 -0.0135  0.1487
 8551W        W24735   8.752   4.420  11.723 -0.3342 -0.0473  0.2942
 8552W        W24736   1.760  15.362  13.427  0.2761  0.0990  0.2275
 8553W        W24737   4.752  10.914  11.366 -0.5797  0.1661  0.1889
 8554W        W24738   3.439  13.287  11.481 -0.0227  0.0576 -0.4301
 8555W        W24739  15.767  14.941  11.531  0.1675  0.1319  0.1516
 8556W        W24740   9.859  11.381   1.270  0.2498  0.0774 -0.0698
 8557W        W24741   8.485  14.295   1.713  0.1915 -0.3153  0.2770
 8558W        W24742   5.202  11.136  15.033  0.1076 -0.1507  0.1349
 8559W        W24743  15.520  10.463   1.764 -0.0735  0.3581  0.0115
 8560W        W24744   4.784   2.573   5.853  0.0915 -0.0792 -0.1391
 8561W        W24745   8.140   5.585   5.319  0.0498 -0.2103 -0.0126
 8562W        W24746  14.293  12.725   4.117  0.3942 -0.3240 -0.0787
 8563W        W24747  14.799  14.168   4.976 -0.1174 -0.1474  0.2085
 8564W        W24748  15.426  12.628   2.233 -0.1895 -0.0618  0.0253
 8565W        W24749  16.835   2.956  14.976 -0.0854 -0.0299  0.1186
 8566W        W24750   6.659  13.851  13.038 -0.2367 -0.2880  0.2685
 8567W        W24751   3.170   4.706  14.914 -0.2550  0.0954  0.2196
 8568W        W24752   6.302   2.037   0.125  0.0417  0.2370  0.0233
 8569W        W24753  14.590   5.544  13.072  0.0119  0.0573 -0.2104
 8570W        W24754   0.237   6.225  14.326 -0.2743  0.0237 -0.1857
 8571W        W24755   2.561  14.906   0.994 -0.1883  0.2443  0.0613
 8572W        W24756  12.749   0.989  16.299 -0.0858  0.0816 -0.1306
 8573W        W24757   1.855  10.546   4.944  0.0946 -0.2585  0.1460
 8574W        W24758  14.023   8.073  12.341  0.0868 -0.0907  0.0558
 8575W        W24759   6.274  17.687  16.695 -0.1830 -0.1224  0.1775
 8576W        W24760   9.955  12.653   1.381 -0.0074  0.0983 -0.0034
 8577W        W24761  13.262   8.512  11.856  0.1275  0.0960  0.0904
 8578W        W24762   3.447   8.876   0.570 -0.0759 -0.0334  0.2145
 8579W        W24763   7.030   6.295   2.927  0.0464  0.2164 -0.3497
 8580W        W24764   4.325   1.292  15.127 -0.0647  0.0695  0.2106
 8581W        W24765  10.413  11.805   0.320  0.1270 -0.0562 -0.3141
 8582W        W24766  11.224   1.032  16.752 -0.1447  0.0041  0.1433
 8583W        W24767   9.797  10.703   5.622 -0.1352  0.0472  0.0834
 8584W        W24768  11.467   2.828  13.879 -0.1207  0.3920  0.1209
 8585W        W24769  17.400  16.968  11.807 -0.3861  0.2486 -0.1220
 8586W        W24770  17.582   0.719   3.558  0.1533  0.3126  0.1622
 8587W        W24771  13.346  11.514   5.323  0.1550  0.0737  0.2160
 8588W        W24772   2.485   3.010  15.548 -0.4061  0.2484  0.3119
 8589W        W24773   1.815   6.557  13.181 -0.1251  0.0936 -0.2718
 8590W        W24774   4.916   9.331   5.963  0.1531 -0.1752  0.0201
 8591W        W24775   1.127  10.671   4.529  0.0762 -0.0212 -0.1138
 8592W        W24776   3.751   7.415  12.576  0.0286 -0.2450 -0.1898
 8593W        W24777  17.408   9.768  15.001  0.0143 -0.1032  0.0888
 8594W        W24778  14.371   6.250   0.909 -0.1864  0.1506  0.1955
 8595W        W24779   3.089  12.306  13.894  0.1205 -0.1443 -0.0513
 8596W        W24780   5.368  13.621  11.749 -0.1877  0.1418  0.1884
 8597W        W24781   9.386   7.850  14.992 -0.0109 -0.1051  0.0861
 8598W        W24782  11.678  11.693   5.075  0.0785  0.2111  0.1141
 8599W        W24783  16.210  11.689  11.986  0.0196  0.0832 -0.0142
 8600W        W24784  10.431  14.039   3.299 -0.3597 -0.0530 -0.0809
 8601W        W24785   3.700  17.664  15.842  0.0608 -0.0544  0.0917
 8602W        W24786  12.423   6.225   4.003  0.0911 -0.1905 -0.1251
 8603W        W24787  14.216  10.658   1.018 -0.0823  0.1610  0.1016
 8604W        W24788   0.031  10.638   2.731 -0.1106  0.1662 -0.0069
 8605W        W24789  13.928  10.857  14.791  0.0206  0.0024 -0.1236
 8606W        W24790  14.487   6.753   4.799 -0.1162 -0.0055 -0.0732
 8607W        W24791  16.081   2.181  16.642  0.0023  0.0930 -0.3517
 8608W        W24792  15.427  14.823   5.603  0.0649 -0.2755 -0.2399
 8609W        W24793  10.204  11.505  15.213  0.1151 -0.1782  0.0440
 8610W        W24794  15.915  10.803   1.097 -0.1992  0.1718 -0.0161
 8611W        W24795   9.379   6.838  13.684 -0.1252  0.0490 -0.0365
 8612W        W24796   5.273  13.411  16.915  0.0327  0.1224 -0.0916
 8613W        W24797   0.248   1.173   1.249  0.0556 -0.1105  0.0488
 8614W        W24798   0.593  17.757   2.901 -0.2891 -0.2441  0.3553
 8615W        W24799  11.969  16.187   4.558  0.3383 -0.1474 -0.0294
 8616W        W24800   2.125   0.505   1.352 -0.0372  0.2229  0.0089
 8617W        W24801  14.283   9.241  13.294 -0.0530 -0.2345  0.0539
 8618W        W24802   2.191   1.316  15.642  0.0395 -0.1157 -0.1571
 8619W        W24803   7.815  16.975   5.567 -0.0116 -0.1561 -0.0424
 8620W        W24804  15.161   3.177   5.665 -0.0503 -0.0690  0.0994
 8621W        W24805  15.108  17.430   5.471  0.1889 -0.0969 -0.1505
 8622W        W24806  12.626   3.758   0.358  0.0183  0.0369 -0.0430
 8623W        W24807   7.949   8.600   1.208 -0.0332 -0.0565 -0.0373
 8624W        W24808   5.333   2.955  13.310  0.2716 -0.3187 -0.0988
 8625W        W24809  14.449   5.365   2.784  0.1185 -0.1246 -0.2106
 8626W        W24810  12.601   9.487   0.670  0.0771 -0.0413 -0.2041
 8627W        W24811  12.247  11.639  14.983  0.1903 -0.2016  0.1176
 8628W        W24812  15.149  10.788  14.690  0.0030 -0.2673  0.1865
 8629W        W24813  15.006   3.987  15.840  0.2110  0.3724 -0.0394
 8630W        W24814   2.720   7.656  15.652  0.2516  0.1418 -0.2866
 8631W        W24815   2.862   9.220   5.253 -0.1188 -0.2792  0.1795
 8632W        W24816  17.131   4.685   1.648 -0.0619 -0.0058 -0.2069
 8633W        W24817   4.786   1.797  14.646 -0.3352 -0.0126  0.3442
 8634W        W24818   2.544   7.132   0.967  0.3040  0.3177 -0.1050
 8635W        W24819  16.396  13.010  12.577  0.0136 -0.0286 -0.3180
 8636W        W24820   6.531  17.216  12.935  0.0780 -0.0597  0.3321
 8637W        W24821  11.088  13.461  15.834 -0.1127 -0.0621 -0.0760
 8638W        W24822  11.368   9.764   5.060  0.0524  0.0206 -0.1443
 8639W        W24823   7.032   0.483  12.378 -0.2573  0.0878 -0.0750
 8640W        W24824   5.393   5.040   5.060 -0.0825  0.1189  0.2960
 8641W        W24825  17.548  17.404   0.114  0.1981  0.2122  0.1009
 8642W        W24826  17.051  11.146  15.156  0.1420 -0.1418  0.1635
 8643W        W24827  11.691   6.234  14.816 -0.1367  0.1280  0.0330
 8644W        W24828  11.510  16.110   0.972  0.1680 -0.1238  0.0085
 8645W        W24829   1.541   9.950  11.882  0.0032  0.2415  0.1783
 8646W        W24830   9.181   0.848   6.364  0.0249  0.1039  0.1360
 8647W        W24831   5.777   5.900   5.083  0.0333 -0.1820 -0.3552
 8648W        W24832  15.056  16.202   4.554 -0.1954  0.0561  0.2583
 8649W        W24833   6.822  10.254   5.297  0.0396 -0.1276 -0.0021
 8650W        W24834   7.029  14.469  14.932 -0.0869  0.1090  0.0019
 8651W        W24835   9.772  13.536   0.052 -0.1423 -0.0245  0.5324
 8652W        W24836   9.683  12.566  11.619  0.0794 -0.0686  0.0204
 8653W        W24837   7.488  16.324   4.991  0.2630 -0.0535  0.1410
 8654W        W24838  11.763   3.281  12.682  0.0821 -0.3354  0.0531
 8655W        W24839   3.881  14.791  13.406  0.2292  0.1364  0.2554
 8656W        W24840  15.256  14.133   4.187  0.0343  0.2059  0.4734
 8657W        W24841  13.872  12.686   3.195 -0.2360  0.0100  0.0876
 8658W        W24842  17.821   7.732   5.693 -0.2139  0.3195  0.1181
 8659W        W24843   2.833   6.707  12.824  0.2412 -0.0965 -0.2283
 8660W        W24844   6.453  13.878   4.936 -0.0222  0.0842 -0.0952
 8661W        W24845  16.684   0.666   3.065 -0.0565 -0.0052  0.0836
 8662W        W24846   3.452   7.164  16.131  0.0120 -0.2207 -0.0783
 8663W        W24847  17.068  15.754   2.010 -0.3764 -0.0264  0.0376
 8664W        W24848  13.102   0.540   5.998  0.1526 -0.0035 -0.1689
 8665W        W24849   0.026   3.892  14.807  0.0723 -0.1778 -0.0263
 8666W        W24850   2.539   9.698  16.168 -0.1302 -0.1870  0.1142
 8667W        W24851   9.818  15.367  11.637  0.4425  0.0891  0.1303
 8668W        W24852   6.624  11.559  14.437  0.0820  0.4040  0.0738
 8669W        W24853  16.375   5.583   2.526 -0.2468 -0.1855  0.3057
 8670W        W24854   9.661   5.560   5.847 -0.1075  0.1144  0.3190
 8671W        W24855  10.230   6.470  12.618 -0.0503 -0.0371  0.0976
 8672W        W24856   1.079  13.391   0.277  0.0717  0.2958  0.1528
 8673W        W24857  17.222  15.179   2.741 -0.1380  0.1042  0.0967
 8674W        W24858   4.944   9.829   1.089 -0.0672 -0.5310  0.1667
 8675W        W24859  14.102  13.563   4.944 -0.3069 -0.0534 -0.4987
 8676W        W24860  10.550  15.217  13.900 -0.1319 -0.0252 -0.1890
 8677W        W24861  12.214  17.502   4.476  0.2969  0.1533 -0.1408
 8678W        W24862   4.437   3.677   4.634 -0.2052  0.0355 -0.3072
 8679W        W24863  11.923   8.638  13.080 -0.0655  0.1681 -0.0450
 8680W        W24864  17.283  15.636  16.320  0.0438  0.3609  0.2882
 8681W        W24865   0.908   8.998   5.339  0.1509  0.1776 -0.1508
 8682W        W24866   8.590   5.584  11.479  0.2818 -0.0838 -0.0976
 8683W        W24867   5.480   4.265  14.992  0.1970  0.1835 -0.1072
 8684W        W24868   5.203  16.273  12.852 -0.0239  0.2564  0.1425
 8685W        W24869  14.094  10.671   3.965  0.0711  0.4114  0.2241
 8686W        W24870  13.568  14.685  16.464 -0.1221  0.1226 -0.1086
 8687W        W24871  16.202  11.515   6.335 -0.0303  0.0505  0.1911
 8688W        W24872   4.843   2.823  13.593  0.2950  0.0499  0.1646
 8689W        W24873   9.400  13.955   1.808 -0.0793  0.2812  0.0745
 8690W        W24874   6.295   8.825  16.010  0.0154  0.1041  0.3814
 8691W        W24875   2.407  12.146   4.787 -0.3797  0.0731  0.1677
 8692W        W24876   3.150   4.972   0.849  0.1471 -0.0587 -0.0659
 8693W        W24877  17.249  12.135  14.109 -0.1478 -0.0716 -0.0222
 8694W        W24878   6.346  15.936  15.821 -0.0564 -0.1004  0.1401
 8695W        W24879   1.467   0.847   2.335  0.1915 -0.0305 -0.0910
 8696W        W24880   9.084   6.329  15.245 -0.0825  0.0880  0.2347
 8697W        W24881   1.890  14.564  13.945  0.2282  0.1096 -0.0533
 8698W        W24882  17.497   2.966  13.211  0.1574 -0.2741 -0.0406
 8699W        W24883  10.347   2.854   6.238 -0.1331  0.0148 -0.1192
 8700W        W24884   7.260   0.159   3.427  0.1308  0.2253 -0.1565
 8701W        W24885  10.745  11.924  16.844  0.0334  0.0967 -0.3856
 8702W        W24886  12.172   8.794  16.568  0.4730 -0.0832  0.2008
 8703W        W24887   3.674  13.375   2.093  0.0551 -0.1460  0.0357
 8704W        W24888   7.964  15.421  16.305  0.0211 -0.1464 -0.0082
 8705W        W24889  14.263   1.418   1.513  0.2004 -0.1960  0.1528
 8706W        W24890  11.101   7.311  15.720 -0.1927  0.3787  0.0750
 8707W        W24891   5.572  13.974  11.364 -0.0107 -0.1100  0.0837
 8708W        W24892  13.765   9.350  12.487 -0.2358  0.2363  0.1184
 8709W        W24893   5.667   9.825   0.033 -0.1087 -0.2546  0.0287
 8710W        W24894   1.144  10.817   2.755  0.0290  0.1950 -0.0288
 8711W        W24895  16.019  15.723   0.386  0.1702 -0.7023  0.0105
 8712W        W24896  16.136   0.634  16.311  0.1693 -0.0056 -0.4415
 8713W        W24897  12.860  16.807  15.592  0.0792  0.0764  0.1531
 8714W        W24898  16.324   8.893  16.566  0.1705  0.1407 -0.0764
 8715W        W24899  13.135   1.360   1.082  0.0468  0.0156 -0.2066
 8716W        W24900  14.452   0.958   4.190 -0.0333  0.1650  0.0938
 8717W        W24901   9.811  10.019  16.349 -0.0256  0.1355 -0.1050
 8718W        W24902   9.503   8.812  16.922  0.2954 -0.1887 -0.0653
 8719W        W24903  16.951  13.951   4.118 -0.1779  0.0927 -0.4039
 8720W        W24904  14.642   2.536   0.618  0.0179 -0.3586  0.2822
 8721W        W24905  12.220  10.752   0.141  0.1502 -0.2356  0.2444
 8722W        W24906   4.699   7.717  16.585  0.0632 -0.0083  0.2000
 8723W        W24907  17.503   1.869  16.446 -0.0203  0.1745 -0.1474
 8724W        W24908  10.855  10.998   0.372 -0.0194  0.1383 -0.1022
 8725W        W24909   4.564  16.175  11.590 -0.1803  0.1598  0.0461
 8726W        W24910  11.916   2.127   2.284  0.0458  0.1495 -0.1166
 8727W        W24911  17.548   3.072   5.654  0.2719 -0.3493 -0.1869
 8728W        W24912   1.641   8.027  15.661  0.0976  0.0699 -0.0316
 8729W        W24913   5.698   5.745  12.578 -0.2523 -0.0586 -0.0637
 8730W        W24914  17.310   2.515  12.608 -0.0389 -0.2108  0.2118
 8731W        W24915   2.428   5.661  15.196  0.0990  0.0265  0.4309
 8732W        W24916   8.838   0.525   0.705 -0.1261 -0.2931 -0.4300
 8733W        W24917  12.007  10.149   0.342 -0.0980 -0.1412 -0.0466
 8734W        W24918   3.182   3.890  15.242 -0.1010  0.1353  0.4409
 8735W        W24919   7.037   8.981   5.009 -0.2216 -0.1184 -0.0895
 8736W        W24920  10.904  10.103  16.181 -0.1212  0.2763  0.2844
 8737W        W24921   9.082  12.258   4.500 -0.1112  0.1560 -0.1626
 8738W        W24922  16.353   6.241  14.749 -0.0157  0.1869  0.0670
 8739W        W24923   7.061   0.007  16.628  0.0869 -0.0257  0.0460
 8740W        W24924  13.667  11.709  14.481  0.2657 -0.0128 -0.1027
 8741W        W24925   8.720  11.448  12.862  0.1320 -0.2286 -0.4734
 8742W        W24926  11.978   6.046  13.423  0.1360 -0.1968 -0.0610
 8743W        W24927   5.687  14.411   0.739  0.3243  0.0389  0.0650
 8744W        W24928   0.893  17.382   0.688 -0.0935  0.0359 -0.1778
 8745W        W24929  14.394  11.535  12.374 -0.0040  0.2077 -0.1525
 8746W        W24930   1.206   5.405   1.548  0.0615  0.1185  0.0057
 8747W        W24931  12.301   7.407   1.449 -0.2260  0.2312  0.3232
 8748W        W24932   6.404   3.375   3.345  0.2092  0.0396  0.3188
 8749W        W24933  15.786  13.953  12.627  0.0029  0.0723 -0.1920
 8750W        W24934   2.951   0.985  12.836  0.0256  0.0542  0.0347
 8751W        W24935   1.196   7.159  14.638 -0.1393 -0.0014  0.1132
 8752W        W24936   6.695  12.865  14.084 -0.0716  0.1669  0.1403
 8753W        W24937  10.089  12.642  16.770 -0.1374 -0.1581 -0.0403
 8754W        W24938  12.008  14.247   1.749  0.0498 -0.1219  0.2105
 8755W        W24939  16.340   3.891   5.893 -0.3773 -0.0597 -0.1942
 8756W        W24940  17.026  15.568   4.169 -0.2849  0.3205  0.0598
 8757W        W24941  17.033   4.636  16.821  0.0633 -0.0415  0.2061
 8758W        W24942  13.013  16.334   3.687 -0.3645 -0.2698  0.1721
 8759W        W24943   8.024  14.712   3.030  0.1935  0.2517  0.2269
 8760W        W24944  13.848   4.136  15.834 -0.0591  0.0350 -0.3140
 8761W        W24945   5.608  13.396  15.414  0.2574  0.0784  0.0040
 8762W        W24946   6.875  11.743  16.933 -0.2570  0.1227  0.0034
 8763W        W24947  10.636   7.431  12.928  0.2177  0.2029  0.1296
 8764W        W24948   5.578  14.965   4.147  0.0554 -0.2807  0.3631
 8765W        W24949   9.508   2.324   4.149 -0.1908 -0.3236 -0.0302
 8766W        W24950  15.375  12.256  12.542 -0.1051  0.1684 -0.0663
 8767W        W24951   1.094   1.932  14.400 -0.0687  0.1792 -0.0384
 8768W        W24952   8.378   4.015   5.149 -0.0332 -0.2092  0.1670
 8769W        W24953   1.273   5.097  15.366 -0.0256  0.1778 -0.2573
 8770W        W24954  11.439   4.329   5.370  0.0168  0.1734  0.0020
 8771W        W24955  12.149   2.757   5.228 -0.0394  0.0447  0.2623
 8772W        W24956  10.267   9.491   1.727  0.1082  0.1028 -0.1534
 8773W        W24957  15.073  10.636   4.130 -0.1805 -0.1644  0.0865
 8774W        W24958   2.309   5.596   2.262 -0.1641 -0.1185  0.1300
 8775W        W24959   7.654   7.352  14.174 -0.2454  0.0296 -0.0286
 8776W        W24960  16.060  12.608   0.115  0.1241 -0.1718  0.0263
 8777W        W24961  14.833   4.408   5.780  0.0156  0.0672 -0.0709
 8778W        W24962   0.332   4.058   5.368  0.1906 -0.0453 -0.0685
 8779W        W24963   4.244  16.888   1.099  0.1145  0.2389 -0.1864
 8780W        W24964   1.966   1.324   0.825 -0.1035 -0.0233 -0.0555
 8781W        W24965   8.696   7.764  13.089  0.0598 -0.1143 -0.3006
 8782W        W24966  12.761  10.914  16.370 -0.1084  0.0024 -0.0630
 8783W        W24967  12.499  14.747  15.192 -0.1304 -0.1210  0.1460
 8784W        W24968   9.021  15.195   4.260 -0.1991 -0.1290 -0.1800
 8785W        W24969  11.752   2.215  15.026 -0.1935 -0.3479 -0.2912
 8786W        W24970   5.213   9.416   4.692 -0.0958  0.1267  0.2669
 8787W        W24971   1.790  14.118   0.554  0.0676  0.2253  0.1409
 8788W        W24972   3.185   7.424  12.258 -0.0159  0.1689 -0.1841
 8789W        W24973   1.169  13.702  11.679 -0.2673 -0.0251 -0.1219
 8790W        W24974   0.477   9.243   1.089 -0.1894 -0.0294  0.4640
 8791W        W24975  16.786   4.787   2.907 -0.1948  0.1795  0.1671
 8792W        W24976  16.852   7.545  12.635 -0.0117 -0.1396 -0.2862
 8793W        W24977   3.392   4.095   4.269 -0.1916 -0.1305 -0.0929
 8794W        W24978   5.618   0.363   0.781  0.0406 -0.3849 -0.0651
 8795W        W24979   4.981  17.866   3.579  0.2431  0.1579  0.0548
 8796W        W24980   5.702  12.925   3.682 -0.2880 -0.1016 -0.1418
 8797W        W24981   8.851   6.042   0.927  0.1916 -0.0504 -0.1041
 8798W        W24982   8.301  17.742   5.133  0.0720  0.3318  0.2925
 8799W        W24983  10.686  13.406   1.534 -0.3144 -0.1209 -0.0470
 8800W        W24984   8.170   6.454  14.234  0.3310 -0.2657  0.2690
 8801W        W24985   0.665   1.054   2.086 -0.0911 -0.1438 -0.0363
 8802W        W24986   0.835  15.049  16.677 -0.2846  0.1393 -0.3538
 8803W        W24987  13.255  17.681   3.561  0.0728  0.3066 -0.3305
 8804W        W24988   9.142   9.036  15.421 -0.3081  0.0860 -0.0279
 8805W        W24989  11.890  10.719  12.457 -0.0621 -0.2349  0.1498
 8806W        W24990  16.827   4.868   2.088 -0.0363 -0.0520 -0.4074
 8807W        W24991   4.591   2.275  15.305 -0.2042 -0.0412 -0.1871
 8808W        W24992   1.282  10.534   3.603  0.0803  0.4042  0.0716
 8809W        W24993  12.064  11.089   3.492 -0.1309  0.0376 -0.0771
 8810W        W24994   9.084  11.845   0.480  0.0237 -0.0839 -0.1495
 8811W        W24995   5.844   4.546   2.063  0.1559  0.2518  0.2989
 8812W        W24996   3.727  10.156  13.229 -0.1844  0.1314 -0.1261
 8813W        W24997  11.307   6.182  14.543  0.0864 -0.0613  0.1607
 8814W        W24998   2.386  15.770   3.671 -0.0607 -0.3352  0.0414
 8815W        W24999  13.795   9.028  16.870 -0.2659 -0.2372 -0.0010
 8816W        W25000   3.119  16.009   0.064  0.1531  0.0214 -0.2360
 8817W        W25001  12.687   3.108  12.446  0.1524 -0.2008 -0.0427
 8818W        W25002  14.290   7.984   4.853  0.0292  0.1482  0.2240
 8819W        W25003  13.625  10.524   4.181 -0.0778  0.0877 -0.2456
 8820W        W25004  17.295  14.353  11.192 -0.1201  0.4250  0.0482
 8821W        W25005  12.029  16.699  15.250  0.0148 -0.0448 -0.2413
 8822W        W25006   9.787   8.817   5.023 -0.1204  0.2323  0.1527
 8823W        W25007  12.465   8.976   0.636  0.0809  0.2136  0.0837
 8824W        W25008   3.979   0.994   0.873 -0.1217 -0.2267  0.0780
 8825W        W25009  13.101   9.683   5.209 -0.0922 -0.2814 -0.0441
 8826W        W25010  10.067   1.168  12.385  0.0883  0.0559 -0.0127
 8827W        W25011  15.165  14.493  15.158  0.0260  0.1049 -0.1400
 8828W        W25012   0.729  13.774   1.940 -0.0040  0.0421 -0.0591
 8829W        W25013   2.103   0.205  16.909  0.0548  0.4032 -0.0229
 8830W        W25014  17.102  17.604   0.846  0.0333  0.0243  0.1251
 8831W        W25015  10.744   3.521   3.277 -0.1544  0.1396 -0.0027
 8832W        W25016   2.088  10.152   2.863 -0.1657  0.0157  0.3890
 8833W        W25017   9.017  11.654   1.896 -0.2542 -0.1140 -0.0367
 8834W        W25018   2.502   5.176  16.331 -0.4077 -0.1134 -0.0219
 8835W        W25019   8.393  17.123   4.997 -0.0435 -0.2434  0.1119
 8836W        W25020   6.485   1.788   1.467 -0.2004  0.3617 -0.1547
 8837W        W25021   2.211   9.727   5.125 -0.4108  0.2399  0.1511
 8838W        W25022  12.018  15.699  15.044  0.3216 -0.1504 -0.0430
 8839W        W25023  10.319   7.650   4.568  0.0803  0.2527  0.0946
 8840W        W25024   6.861   5.502   0.371 -0.1843 -0.1543 -0.2601
 8841W        W25025   2.959  16.492   3.601 -0.0442  0.2813  0.1397
 8842W        W25026   8.743   3.955  12.574  0.1218  0.1098  0.0896
 8843W        W25027   0.585   8.655  16.253  0.0905 -0.2192 -0.0724
 8844W        W25028  14.877  12.046   1.899 -0.1540 -0.3172 -0.2663
 8845W        W25029   5.284   3.108   4.317 -0.0647  0.2479 -0.0877
 8846W        W25030  17.473   0.140  12.834 -0.0089  0.2832 -0.1075
 8847W        W25031  16.413  13.483  14.994  0.2792 -0.3582 -0.2846
 8848W        W25032   2.021  13.061  14.152  0.3178  0.1118 -0.5599
 8849W        W25033   8.043  11.677  16.092  0.0786 -0.1388  0.1117
 8850W        W25034   2.065  10.662  15.148 -0.2486  0.0485 -0.0863
 8851W        W25035  15.984   8.050  16.598 -0.2531  0.2245 -0.2161
 8852W        W25036   5.475   8.223   1.302 -0.1498 -0.2229 -0.1844
 8853W        W25037   5.565   8.711   4.243  0.0593 -0.0053  0.0638
 8854W        W25038   8.863   9.422  16.597  0.0633 -0.0457 -0.0481
 8855W        W25039   8.135  14.266   4.353 -0.0040  0.4033  0.0201
 8856W        W25040   8.543  14.542  15.177  0.1694  0.1477  0.0093
 8857W        W25041   1.939  13.565   5.347  0.1805 -0.0350 -0.1581
 8858W        W25042  17.206   2.716   3.798 -0.1305 -0.0489 -0.0421
 8859W        W25043  10.045   5.685  14.331 -0.0261 -0.2256  0.0875
 8860W        W25044  10.977   7.028   5.674 -0.0964 -0.0945  0.1349
 8861W        W25045  12.754   6.926  15.122 -0.0250  0.1476  0.1710
 8862W        W25046  13.636  12.046  12.458  0.1651  0.0307 -0.1457
 8863W        W25047  10.830   5.631   2.679 -0.0979  0.1410 -0.2144
 8864W        W25048   4.752   9.653  14.778 -0.0042 -0.0409  0.4721
 8865W        W25049   7.530  11.621   0.284 -0.0330 -0.1588  0.0675
 8866W        W25050   9.055  10.331  13.710 -0.0467 -0.2236  0.1120
 8867W        W25051   2.657   1.618   0.490 -0.2494  0.0349 -0.4786
 8868W        W25052   5.033   8.844   1.766 -0.2339  0.3919 -0.1237
 8869W        W25053   2.528   0.197   6.280 -0.0070 -0.1035  0.1269
 8870W        W25054   2.615   7.416   0.266  0.2056  0.0446  0.2885
 8871W        W25055  12.450   3.296   2.975 -0.0222  0.1637  0.1714
 8872W        W25056   1.483  11.736  11.801 -0.1473  0.0668  0.0659
 8873W        W25057   1.618  13.334   4.923  0.0775  0.2431  0.0537
 8874W        W25058   9.347  17.789   3.024 -0.0574 -0.0033  0.0049
 8875W        W25059   0.551   7.577  15.673 -0.1344  0.0807 -0.1902
 8876W        W25060   9.134   0.596  16.357  0.1964  0.1810 -0.0019
 8877W        W25061   7.521   3.790   3.800 -0.0273  0.1701 -0.1333
 8878W        W25062  17.804   9.334  12.257 -0.2335  0.3836 -0.2137
 8879W        W25063  16.856   3.723  16.681 -0.2130  0.2850  0.1422
 8880W        W25064  15.408   4.096  15.430 -0.1993 -0.0619  0.1431
 8881W        W25065  12.866  17.461  11.445 -0.6060 -0.1585 -0.0128
 8882W        W25066   4.828   9.367  13.872  0.0769  0.0321  0.0210
 8883W        W25067   7.898  16.180   2.612 -0.0468 -0.0985 -0.3750
 8884W        W25068  10.988   1.800   2.637  0.0789  0.0316 -0.1391
 8885W        W25069  10.861  14.044  16.274 -0.1147  0.1659  0.0493
 8886W        W25070  11.010   6.573  14.306 -0.0651  0.1053  0.0141
 8887W        W25071   7.460   2.863   0.451  0.1690  0.4290 -0.2976
 8888W        W25072  13.233   2.652  16.751 -0.1314  0.1245  0.0916
 8889W        W25073   5.055   7.723  13.680  0.4695  0.3872 -0.0356
 8890W        W25074   7.866  15.244   0.759  0.3322 -0.3509  0.1832
 8891W        W25075   2.357  10.910  13.847 -0.5022  0.1089 -0.0849
 8892W        W25076   8.497   5.187  11.765  0.2297  0.0590 -0.2304
 8893W        W25077  14.840  10.419  15.025  0.2824  0.0057  0.0880
 8894W        W25078  17.531  13.702   4.983 -0.1242 -0.0488 -0.1416
 8895W        W25079   8.905  10.503  14.194 -0.0158  0.4547  0.0438
 8896W        W25080  16.489  15.085  16.209 -0.1116  0.0257  0.3994
 8897W        W25081   4.131   5.201  16.914  0.0116  0.4846  0.2346
 8898W        W25082  13.083   8.230   6.663  0.1370  0.0680  0.1825
 8899W        W25083  17.050   8.777   6.325 -0.0212 -0.0883  0.2641
 8900W        W25084   6.422  13.253  12.280  0.0376 -0.4751  0.0610
 8901W        W25085  10.722   8.286   4.479  0.0571  0.1433  0.1775
 8902W        W25086   6.329   7.224   1.674  0.0164 -0.2081 -0.3464
 8903W        W25087   9.135  17.052  16.450 -0.1643  0.1152  0.0260
 8904W        W25088   5.811   8.604  16.523  0.1485 -0.1242 -0.0366
 8905W        W25089   9.646   8.497   0.902  0.1698 -0.0299 -0.0422
 8906W        W25090  16.239  12.140   2.232 -0.0816  0.0593 -0.3512
 8907W        W25091  11.197   8.071   4.319 -0.3105 -0.0270 -0.0709
 8908W        W25092   3.761   9.017   3.090  0.2889  0.1866 -0.0499
 8909W        W25093   0.682  11.317  15.256  0.0035 -0.0133 -0.0845
 8910W        W25094   0.914   4.139  15.642  0.0442  0.1071 -0.0673
 8911W        W25095   5.043  12.735  13.513 -0.2682  0.0193  0.0954
 8912W        W25096  13.429  10.289   5.831  0.1996 -0.0634 -0.2454
 8913W        W25097   5.564  17.145   5.569  0.1264  0.1133  0.0995
 8914W        W25098  14.287   6.938  15.246  0.2333 -0.1549 -0.1173
 8915W        W25099   7.866  14.273   0.799 -0.0299 -0.2849  0.0344
 8916W        W25100  17.464  12.083   4.376 -0.3462  0.1134  0.3436
 8917W        W25101  10.400  15.459  16.667 -0.1046 -0.0036  0.1509
 8918W        W25102  16.267   9.286  11.902  0.0658 -0.0599  0.2795
 8919W        W25103   0.473   8.479  12.262  0.2035 -0.2514  0.2019
 8920W        W25104   3.332  17.084  13.875 -0.1190 -0.0366  0.0281
 8921W        W25105  12.021  13.602   5.237  0.0547  0.2585 -0.0666
 8922W        W25106   1.335   7.374   0.870  0.1356  0.0604 -0.3139
 8923W        W25107   6.148   6.261   5.264 -0.0117  0.1815  0.1848
 8924W        W25108   4.629  10.124   3.347  0.3474 -0.1716 -0.0218
 8925W        W25109  10.021   2.312  15.700  0.4610 -0.4278 -0.1237
 8926W        W25110   5.140   1.112   3.541  0.1773 -0.3178  0.2272
 8927W        W25111   2.487  14.723  16.453  0.0389 -0.0873 -0.1817
 8928W        W25112   6.075   8.503   5.034  0.0993 -0.0982 -0.1691
 8929W        W25113   0.799  11.120  15.706 -0.0515 -0.1360 -0.1271
 8930W        W25114   8.845   8.885   2.904 -0.3484 -0.1052  0.3845
 8931W        W25115   9.479  17.009   0.736  0.0390  0.2545 -0.1899
 8932W        W25116   0.001   8.268  11.960  0.0455  0.1335 -0.0913
 8933W        W25117   5.468  16.779   3.853 -0.4170 -0.0164  0.0538
 8934W        W25118   6.955   1.793   5.215 -0.2424  0.0481 -0.2762
 8935W        W25119  16.705  12.270   4.252  0.2099  0.0192 -0.1642
 8936W        W25120   4.881   1.454  14.340 -0.3665  0.0352 -0.1391
 8937W        W25121  12.535   2.698  16.916  0.0704  0.0591  0.1536
 8938W        W25122  10.145   4.317   2.368 -0.1231  0.0261  0.3524
 8939W        W25123   7.511   9.120  14.710 -0.0011 -0.2433 -0.1045
 8940W        W25124   7.163  15.611   5.477  0.3230 -0.2775  0.0114
 8941W        W25125   9.492  15.196   1.495  0.0089  0.0985  0.0644
 8942W        W25126  15.229  15.826  16.530 -0.5139  0.3417 -0.0453
 8943W        W25127  16.527   8.556  13.226 -0.1733 -0.4248 -0.1261
 8944W        W25128  17.140  15.241  14.080  0.0311 -0.0725 -0.2571
 8945W        W25129   2.741   0.993   2.464  0.1705 -0.1230  0.1941
 8946W        W25130   0.850  16.152  15.191 -0.1543 -0.1119 -0.0399
 8947W        W25131   5.287   3.492   0.160  0.0659 -0.2600 -0.1397
 8948W        W25132   5.095  10.969  15.468 -0.3129 -0.1091 -0.2389
 8949W        W25133  15.326  17.324   2.464  0.2788 -0.0732  0.2849
 8950W        W25134   6.927  15.419   2.819  0.2004 -0.1334 -0.1353
 8951W        W25135   2.806   5.561   0.252  0.1117 -0.2324 -0.1587
 8952W        W25136   0.991   8.639   0.142 -0.0569  0.1890  0.1065
 8953W        W25137   6.051   6.057   3.006 -0.1962 -0.1287 -0.0770
 8954W        W25138   7.139   0.027  15.375  0.2921  0.0565  0.2396
 8955W        W25139  14.085   2.779  16.795 -0.0140 -0.0775 -0.2346
 8956W        W25140   4.231   5.025  15.169  0.3307  0.2489  0.3445
 8957W        W25141  16.950  12.746   0.186  0.1782 -0.2257 -0.3155
 8958W        W25142  14.714   1.799   4.039 -0.1404 -0.4117  0.0810
 8959W        W25143   7.185  12.370  15.167 -0.2983 -0.0037  0.1147
 8960W        W25144   0.039   9.060  15.017 -0.0901 -0.3560  0.0149
 8961W        W25145   6.947   8.674   3.802  0.0595 -0.2599  0.1214
 8962W        W25146  13.293   0.378   1.377  0.1480  0.2561 -0.0036
 8963W        W25147   4.886   3.807   5.705 -0.1475 -0.2293  0.2605
 8964W        W25148  10.647  11.482  12.991 -0.1246 -0.2500  0.4414
 8965W        W25149   6.079  15.793  14.403  0.1219 -0.0520  0.2171
 8966W        W25150  12.476  14.639  16.896 -0.2344 -0.0429 -0.1213
 8967W        W25151   9.246   2.753  13.464 -0.1326 -0.2036  0.4587
 8968W        W25152  17.688  10.845   5.684 -0.2391  0.3239 -0.3123
 8969W        W25153   6.508  12.969  13.277 -0.1725  0.0487  0.1720
 8970W        W25154  11.653   9.588  16.665  0.1461  0.3278  0.0992
 8971W        W25155   3.558   8.621  13.456  0.0180 -0.0785 -0.0607
 8972W        W25156   0.217   9.553   0.388  0.0922 -0.0346  0.1984
 8973W        W25157   6.497  14.753  13.038  0.0362  0.1978  0.3376
 8974W        W25158   6.474  14.732   0.768  0.0050  0.5859 -0.1649
 8975W        W25159   3.351   9.766  11.508 -0.1376  0.0752 -0.2159
 8976W        W25160   5.661  14.741   2.485 -0.2766  0.1608 -0.0431
 8977W        W25161   5.075   9.830  14.027 -0.1840  0.2188  0.1667
 8978W        W25162  17.153   1.599  11.501  0.0657 -0.2186 -0.2389
 8979W        W25163   7.822   5.153  15.355  0.3235  0.1517 -0.0834
 8980W        W25164   3.084   7.942  13.168  0.0332  0.0273  0.2038
 8981W        W25165   9.152   4.240  12.959  0.3825  0.2401  0.0140
 8982W        W25166   9.458   4.758  13.228 -0.1172 -0.1392  0.1799
 8983W        W25167  12.294   3.337  12.708  0.1409 -0.1860  0.2033
 8984W        W25168  13.160  17.601  14.023  0.0746 -0.1366 -0.1451
 8985W        W25169  14.240  17.620  15.887  0.1353 -0.0376 -0.1811
 8986W        W25170  16.272   3.523  13.898  0.2872 -0.1115 -0.0997
 8987W        W25171  17.611   4.719   1.477 -0.1064  0.0147  0.1239
 8988W        W25172   0.392   9.389   6.060 -0.2363 -0.0980  0.1877
 8989W        W25173   0.351  17.033  13.975 -0.2097 -0.2670 -0.2237
 8990W        W25174   8.252   7.327   2.725 -0.0203 -0.2993  0.1399
 8991W        W25175  10.385   1.927   2.509 -0.1233  0.2462  0.2745
 8992W        W25176   9.522  17.173  14.178 -0.0008 -0.1428  0.3427
 8993W        W25177   7.800  16.912  14.699  0.0729 -0.3848  0.3612
 8994W        W25178  14.796   8.981  13.149 -0.0569  0.0676  0.3645
 8995W        W25179  13.976   6.956   3.973 -0.0081  0.0304 -0.1158
 8996W        W25180   5.509   0.559   2.841 -0.0443  0.1721 -0.0282
 8997W        W25181   0.310  13.763  16.562  0.0351  0.3799  0.0501
 8998W        W25182   2.072  16.767  15.260 -0.1604 -0.0604 -0.0268
 8999W        W25183   7.525   9.861   1.124 -0.1595 -0.2940  0.0347
 9000W        W25184  17.523  14.152   3.926 -0.2428 -0.3152  0.1518
 9001W        W25185   6.473  11.893   3.971 -0.0374 -0.1370  0.0341
 9002W        W25186   9.024   5.652  14.151  0.4792 -0.0895 -0.2490
 9003W        W25187   9.249  16.420  16.394  0.0901  0.0739  0.2037
 9004W        W25188   5.559  12.628   0.310 -0.0011 -0.1161  0.1490
 9005W        W25189  15.009   4.733   1.869  0.1776  0.1145 -0.0919
 9006W        W25190   1.953   9.410  11.024 -0.3884  0.3414 -0.4230
 9007W        W25191  12.147   3.131   1.025 -0.1995  0.2610  0.3181
 9008W        W25192  12.384  10.042  13.303 -0.0223  0.0053  0.1612
 9009W        W25193   8.000  10.797   4.169 -0.0948 -0.1842 -0.1985
 9010W        W25194   8.591  10.966  14.298  0.1581  0.2131  0.1910
 9011W        W25195   8.496  11.480   2.190 -0.1545 -0.1397 -0.0399
 9012W        W25196   4.493  11.962   2.100  0.1457  0.0576  0.1568
 9013W        W25197   3.844  16.657   3.109  0.0254 -0.1315 -0.1583
 9014W        W25198  14.747  14.997   3.820  0.0119  0.2876  0.2296
 9015W        W25199   5.381   9.202   1.830  0.1183 -0.0529 -0.1131
 9016W        W25200   7.834  14.477   1.994  0.2006  0.0542  0.1114
 9017W        W25201  11.160   1.946  16.737 -0.1259  0.3437  0.0779
 9018W        W25202   1.423  10.853   1.403  0.0127  0.3049  0.1380
 9019W        W25203  14.655  15.547  15.065 -0.3008 -0.0851  0.2814
 9020W        W25204   7.374   0.421   0.638  0.0956 -0.4413 -0.0405
 9021W        W25205  10.563   1.274   3.291 -0.0698  0.1657 -0.1531
 9022W        W25206  10.213   6.723   5.279 -0.0559  0.2489  0.0698
 9023W        W25207  13.413  10.816  15.629  0.2267 -0.0061 -0.1369
 9024W        W25208   3.406   6.040   5.352  0.0810 -0.1218  0.0477
 9025W        W25209   9.519  12.227  11.996 -0.1869  0.0636  0.1787
 9026W        W25210  11.962   8.231   5.442  0.3599 -0.0192  0.1098
 9027W        W25211  15.978  13.219   5.094 -0.0776 -0.1485  0.2877
 9028W        W25212  16.545   4.743   4.702  0.1440  0.0374  0.0612
 9029W        W25213   3.263   7.552   2.576 -0.0297 -0.0488  0.1040
 9030W        W25214  10.237   4.880   5.431  0.4111  0.1160 -0.2408
 9031W        W25215   3.429  12.695  12.725 -0.1770 -0.3322 -0.1795
 9032W        W25216   1.282   5.209   4.155 -0.0659 -0.1290  0.1257
 9033W        W25217  14.104  11.713   2.449 -0.1851  0.4612  0.0386
 9034W        W25218  15.654   1.620   1.936 -0.1870 -0.1959 -0.1580
 9035W        W25219  16.492   7.386  14.730 -0.2333 -0.3533  0.1942
 9036W        W25220  12.695   2.567   0.400  0.0617 -0.0715 -0.0828
 9037W        W25221  11.990  17.032   4.735 -0.0620 -0.4900  0.0250
 9038W        W25222   5.047  11.801   3.334 -0.2211 -0.0400 -0.1064
 9039W        W25223   6.538  10.666   2.514  0.0498 -0.2329 -0.0107
 9040W        W25224  15.654   3.159  12.020  0.0310  0.1436 -0.2672
 9041W        W25225   3.269   5.300   0.371  0.3579  0.3407  0.1150
 9042W        W25226   7.892   2.470  14.075  0.3030  0.1231 -0.2053
 9043W        W25227   2.399  17.211  12.271  0.1451 -0.0644 -0.1675
 9044W        W25228  11.085  12.506   0.575 -0.1195  0.1367 -0.1967
 9045W        W25229   5.745   9.839  16.462  0.0283 -0.0296  0.0774
 9046W        W25230  10.581  14.570   2.469  0.2295 -0.2481  0.2821
 9047W        W25231   1.459   0.062  12.479  0.0818  0.1403  0.0488
 9048W        W25232   0.706   9.734  13.484 -0.0636 -0.1368  0.0404
 9049W        W25233   3.829   9.125  13.454 -0.1690 -0.0814 -0.2465
 9050W        W25234  14.245  14.885   5.361  0.0420  0.1524  0.2981
 9051W        W25235  17.394   3.999  15.036  0.1009  0.1374  0.4004
 9052W        W25236  14.049  17.589   5.634  0.0149 -0.0521 -0.2219
 9053W        W25237  10.995  12.359  16.281  0.1778 -0.4886 -0.0579
 9054W        W25238   1.540  14.899   2.305  0.1308  0.1517 -0.2160
 9055W        W25239   4.192   3.905   2.769 -0.1700  0.0530  0.1369
 9056W        W25240   9.348  12.389   4.937  0.1176 -0.0373  0.1190
 9057W        W25241   6.650   1.395  13.850  0.1208  0.0222  0.4102
 9058W        W25242   2.044   3.742   5.109 -0.0549  0.1404  0.2365
 9059W        W25243  17.651   2.870   0.369  0.0362 -0.2454 -0.0459
 9060W        W25244  10.805   8.091   5.811 -0.0439  0.0278 -0.0532
 9061W        W25245  14.290   1.764   1.102 -0.0113 -0.0700 -0.2251
 9062W        W25246  17.239   6.745  12.855  0.0192 -0.0476  0.1296
 9063W        W25247   6.266   2.509   4.783  0.0602 -0.0118 -0.2146
 9064W        W25248  16.673   5.005  14.239  0.1767 -0.2328 -0.1909
 9065W        W25249  15.602   4.062   2.956  0.0124  0.0473 -0.2324
 9066W        W25250  15.256   1.539   4.514 -0.0079 -0.3135 -0.0082
 9067W        W25251  13.998   4.595   4.825 -0.2882  0.4670  0.0505
 9068W        W25252   5.644  14.011  15.392 -0.1895 -0.1802  0.1435
 9069W        W25253   9.948  10.707   6.116  0.3072  0.2152 -0.3036
 9070W        W25254  10.983  16.178   0.716  0.0340 -0.5763 -0.1739
 9071W        W25255  13.972  10.785   1.434  0.0678 -0.4215 -0.0900
 9072W        W25256   0.729  10.783  16.427 -0.1705 -0.0487  0.0886
 9073W        W25257   8.293  12.102  16.585 -0.2061 -0.0767 -0.4270
 9074W        W25258   9.099   6.315   6.509  0.0458 -0.2164  0.0783
 9075W        W25259   9.233   4.676  12.186  0.0410 -0.1913 -0.0658
 9076W        W25260  15.325  13.562   2.405  0.1926  0.0583  0.1064
 9077W        W25261  17.860  11.938  14.782  0.0208 -0.1663  0.1573
 9078W        W25262  17.790   6.975  14.668 -0.0115  0.0225 -0.1278
 9079W        W25263  16.501   8.134   1.739 -0.1172 -0.2299 -0.0889
 9080W        W25264   2.950   3.090   6.129  0.2734 -0.1844 -0.2087
 9081W        W25265  12.168  11.567   2.876 -0.1541  0.0822  0.0863
 9082W        W25266  15.158   0.521   4.637  0.0460  0.2103  0.1683
 9083W        W25267   8.723   8.961   4.566  0.1295  0.2334  0.0869
 9084W        W25268   8.633  17.802   3.336 -0.3041 -0.3276 -0.2187
 9085W        W25269  15.756   6.466   2.659  0.4814 -0.1524 -0.5133
 9086W        W25270  14.821   4.132   1.800  0.1160  0.2641 -0.2325
 9087W        W25271   1.117   4.729   5.717  0.0959 -0.4507  0.2556
 9088W        W25272   3.689  12.954  13.717  0.0458 -0.1785  0.2627
 9089W        W25273   6.504  16.928  14.981  0.2900  0.0971  0.0980
 9090W        W25274  12.954   1.426  13.054 -0.1186 -0.0050  0.0946
 9091W        W25275   1.543   4.471   6.546  0.1193  0.2814 -0.0045
 9092W        W25276  13.543   3.639  12.933  0.0346 -0.0620 -0.1256
 9093W        W25277   4.658   1.254   5.662  0.2320 -0.0633  0.1090
 9094W        W25278   9.250   3.037   1.998 -0.0206  0.1787 -0.2942
 9095W        W25279   4.110   8.496  14.097 -0.2282  0.1809  0.1327
 9096W        W25280  17.646  10.739  16.463  0.0307  0.2442 -0.1412
 9097W        W25281   3.893   2.034   4.741 -0.1345  0.1396  0.0681
 9098W        W25282   8.636  14.055  14.092 -0.0281 -0.3416 -0.1184
 9099W        W25283  16.404  13.566   3.621 -0.2370  0.0686  0.0508
 9100W        W25284   6.247   5.999   0.182  0.1265  0.0997  0.0737
 9101W        W25285  13.163   2.143   3.313  0.3479  0.0002  0.0538
 9102W        W25286  10.977   0.107   5.149  0.1103 -0.2193  0.2223
 9103W        W25287   7.358   0.214  16.194 -0.0006  0.5465  0.1388
 9104W        W25288   3.892   6.325   3.067  0.0426  0.2928 -0.3557
 9105W        W25289  10.038  17.655   5.219 -0.0421 -0.2162  0.0474
 9106W        W25290   7.358  13.397  14.424 -0.1271 -0.0935 -0.1190
 9107W        W25291   8.104  14.766   4.582 -0.0835  0.1050  0.0019
 9108W        W25292   1.293  15.703  14.629  0.1775 -0.1136 -0.0340
 9109W        W25293  11.962   3.113   2.712 -0.0425 -0.0784 -0.1875
 9110W        W25294   3.170  11.648  12.785 -0.0890 -0.0110  0.0405
 9111W        W25295  10.790   8.972   2.292 -0.1604  0.1495  0.0558
 9112W        W25296  16.003  10.425  12.052  0.0399  0.2391  0.0919
 9113W        W25297  10.345   0.530  16.594  0.1761 -0.1558  0.0715
 9114W        W25298  17.288   3.942   1.162 -0.2813 -0.0535 -0.1889
 9115W        W25299   6.978  11.480   2.110  0.0633  0.1477  0.1042
 9116W        W25300  13.587  16.792  16.282 -0.4212  0.1476  0.1226
 9117W        W25301  15.229   4.260  16.669  0.0283  0.0782  0.1367
 9118W        W25302  17.655  13.148   5.029 -0.3144 -0.2901 -0.0519
 9119W        W25303   7.643   2.606  16.480  0.0377 -0.0107  0.0609
 9120W        W25304   8.754  12.891   3.930  0.1078 -0.0540  0.0921
 9121W        W25305  10.029   3.778   1.525  0.3270  0.0469  0.1024
 9122W        W25306  13.955   2.310   4.662  0.1541  0.0097 -0.6061
 9123W        W25307   3.537   1.470  16.886  0.2581 -0.3214  0.0990
 9124W        W25308  12.838   1.191   3.510 -0.0119 -0.0832 -0.0170
 9125W        W25309   8.036   7.819  14.889  0.0065  0.0335  0.0679
 9126W        W25310  12.941   3.770   1.413 -0.1593 -0.2136  0.4294
 9127W        W25311   4.674   4.292   5.805 -0.0981  0.4465 -0.3610
 9128W        W25312   6.021   7.473  13.496 -0.1696  0.1308  0.0049
 9129W        W25313  10.025   0.463  14.966  0.1733  0.1032 -0.0553
 9130W        W25314   2.676  14.896   3.684 -0.1074 -0.3311 -0.0740
 9131W        W25315  17.672   8.624  15.070 -0.0069  0.1412  0.0982
 9132W        W25316   2.958   6.312  14.056  0.1506 -0.1080 -0.0851
 9133W        W25317  16.227   0.195   5.225 -0.1042 -0.2560 -0.0909
 9134W        W25318   3.518   4.846   5.401  0.0117  0.1804 -0.0322
 9135W        W25319  14.186  11.505   1.960  0.0631  0.0403  0.0815
 9136W        W25320  15.347   5.505   4.642 -0.1377 -0.2706  0.2132
 9137W        W25321   9.366  10.441   0.378 -0.0813  0.0821 -0.2512
 9138W        W25322   0.186  14.797   3.465  0.1990 -0.0737 -0.1622
 9139W        W25323   7.750   9.665  13.531  0.1666  0.0184  0.1126
 9140W        W25324   7.137  12.713   1.894  0.2648  0.2126  0.3120
 9141W        W25325   4.316   6.738   4.499  0.0782  0.2256  0.0131
 9142W        W25326   4.329  17.278   3.482  0.1792  0.0106  0.0251
 9143W        W25327  10.317  13.871   2.089 -0.0876 -0.2583 -0.0368
 9144W        W25328   0.347   1.666  14.816  0.2168 -0.0032 -0.1795
 9145W        W25329   6.569   9.003   4.259 -0.1449 -0.2067 -0.1325
 9146W        W25330  10.925  12.867  14.756  0.1422  0.0893  0.1431
 9147W        W25331   6.880   0.199  14.980 -0.0870  0.1000  0.3024
 9148W        W25332   9.463  10.879  12.524  0.0166 -0.0264  0.0492
 9149W        W25333  11.458   9.276  12.054 -0.1473  0.0631  0.0828
 9150W        W25334   9.814  13.137  16.052  0.1759 -0.1274 -0.3363
 9151W        W25335   9.614   1.937   0.192  0.3515 -0.0316  0.1004
 9152W        W25336   6.047  17.798  16.172 -0.1648  0.1211  0.1011
 9153W        W25337   8.269   2.226  11.600 -0.0256  0.0223 -0.2314
 9154W        W25338   6.729   2.349   2.720  0.2043  0.0785 -0.0273
 9155W        W25339  12.168   3.768   1.017  0.1277  0.1024 -0.0621
 9156W        W25340   5.176   5.044  16.004 -0.0024  0.3233 -0.0973
 9157W        W25341   9.333  14.922  16.320 -0.1164  0.0641 -0.0069
 9158W        W25342   2.267   3.267   1.844 -0.0968  0.1242  0.1321
 9159W        W25343  11.166  14.470   1.747  0.1723  0.2897  0.0833
 9160W        W25344  15.997   2.473   2.473  0.3132 -0.1509 -0.1179
 9161W        W25345  12.234   7.842  13.194 -0.1152 -0.0162  0.0102
 9162W        W25346   5.736  10.286   2.659 -0.2392 -0.1500  0.1486
 9163W        W25347   7.059   6.984  15.470  0.1536  0.3685  0.1489
 9164W        W25348   3.908   8.731  16.151  0.4456  0.2531 -0.2424
 9165W        W25349   3.255  10.846  15.947 -0.1561 -0.2307 -0.3298
 9166W        W25350   1.771   1.584   4.304  0.0747 -0.0216 -0.1372
 9167W        W25351  17.811   7.212  14.236  0.1080 -0.0053 -0.0368
 9168W        W25352   2.392   4.060   4.444  0.1207 -0.2189  0.1140
 9169W        W25353   1.630   1.114   4.734  0.0057 -0.2298 -0.0238
 9170W        W25354  17.266  12.691   0.671  0.0015 -0.0705  0.2850
 9171W        W25355   5.646   9.601   5.044 -0.1082 -0.2129 -0.0819
 9172W        W25356   3.949   4.652   5.499 -0.2005 -0.0006 -0.1410
 9173W        W25357  15.443   8.590   3.222 -0.1050  0.1805 -0.0817
 9174W        W25358   2.547  17.806   1.801  0.2811 -0.0278 -0.1271
 9175W        W25359   1.364   7.459   5.270 -0.0425  0.0467  0.2401
 9176W        W25360   9.861   6.766   0.109 -0.0971  0.2438 -0.0152
 9177W        W25361  15.662  15.485  16.511  0.0254 -0.1097 -0.2994
 9178W        W25362   6.061  12.010  14.067  0.0612  0.0373 -0.0055
 9179W        W25363  14.329   0.791  15.280 -0.1660  0.2697 -0.1175
 9180W        W25364   2.599   3.363  15.933 -0.0667 -0.1153 -0.2207
 9181W        W25365   8.252  17.029  14.992  0.1420  0.0380  0.1225
 9182W        W25366  15.770   0.652  12.207  0.0671  0.4269  0.0408
 9183W        W25367  15.273  17.159  14.271 -0.1602  0.2334  0.2992
 9184W        W25368  11.147   5.589   4.887  0.0173  0.0530 -0.0606
 9185W        W25369  12.370   5.767  12.160  0.1305 -0.0356  0.1237
 9186W        W25370  16.853  14.998  12.823 -0.2582  0.0341 -0.0152
 9187W        W25371  16.844   7.271  15.396 -0.1030 -0.0818 -0.0686
 9188W        W25372  12.281  15.060   4.244  0.3123 -0.0105 -0.1907
 9189W        W25373  14.551  16.302  12.608 -0.1908 -0.0136  0.2557
 9190W        W25374  15.343   9.565   4.848 -0.0659 -0.0259 -0.1772
 9191W        W25375   9.621  14.098   2.916  0.1754  0.2623  0.0138
 9192W        W25376   5.803   5.574  12.068  0.3070  0.0196 -0.0975
 9193W        W25377  13.493  16.435   2.909  0.0187  0.1535 -0.0995
 9194W        W25378   7.500   3.571  16.179 -0.0009 -0.2365  0.0910
 9195W        W25379  17.417   7.678  12.589  0.1305  0.0601  0.2682
 9196W        W25380   7.908   0.879  16.104 -0.0318 -0.1740 -0.0495
 9197W        W25381   6.741  14.286   0.862 -0.1447 -0.0625 -0.1305
 9198W        W25382  13.345  10.127   4.655 -0.0093 -0.2223  0.0036
 9199W        W25383  17.800  11.252   6.509 -0.0903  0.1513 -0.0324
 9200W        W25384   5.417   1.847   2.259 -0.1677 -0.0114  0.0224
 9201W        W25385  10.120  13.628   5.803 -0.1211  0.0800 -0.0393
 9202W        W25386   7.485  14.534   0.927 -0.0528 -0.1698  0.0923
 9203W        W25387   1.566  13.761   4.704  0.1687 -0.0905 -0.2658
 9204W        W25388   6.038  14.995  12.981 -0.1175  0.0612 -0.1496
 9205W        W25389  12.925   7.171   1.484 -0.1125 -0.0534 -0.0285
 9206W        W25390   6.364   1.146  16.214  0.0136 -0.1989 -0.0655
 9207W        W25391   7.767   7.730   5.466 -0.2394 -0.2058  0.0184
 9208W        W25392   2.920   3.598   4.503 -0.0035 -0.2538  0.3009
 9209W        W25393  16.877  11.292   4.477  0.0265 -0.0830  0.0370
 9210W        W25394  11.206  16.110   6.191  0.1326  0.0138  0.1520
 9211W        W25395  11.687   7.836  13.664  0.1362 -0.1468  0.1025
 9212W        W25396   5.696   8.053   2.681 -0.1816  0.2967 -0.0339
 9213W        W25397   9.669   9.676   5.020 -0.0297 -0.2433  0.1085
 9214W        W25398   7.003  14.485   3.901 -0.1592  0.1439 -0.1487
 9215W        W25399  11.329   8.638  16.804  0.1394  0.1812 -0.1861
 9216W        W25400   3.647   4.682  13.612  0.2068 -0.0618 -0.1478
 9217W        W25401  17.241  13.477   2.855  0.1039  0.0564  0.2427
 9218W        W25402  10.975   2.992  15.220  0.1516 -0.0912  0.1211
 9219W        W25403   4.717   1.790  11.655 -0.4352  0.0632  0.1561
 9220W        W25404  13.304   4.826  15.751 -0.0055  0.0002 -0.4662
 9221W        W25405   5.334   7.209  13.096 -0.0479  0.1905  0.0112
 9222W        W25406   0.523   0.256   3.273  0.0406  0.0415  0.2997
 9223W        W25407  13.574   7.988  12.680 -0.2215  0.0700  0.0261
 9224W        W25408   7.124   7.728  16.056 -0.2536 -0.1998  0.0777
 9225W        W25409  14.984   1.373   3.304  0.0701  0.0681  0.1471
 9226W        W25410   9.903   0.492  15.488 -0.0053 -0.1243 -0.2139
 9227W        W25411   3.085   1.381  11.562 -0.0188  0.3102  0.0572
 9228W        W25412   9.702   1.775   6.351 -0.0227 -0.0377  0.0090
 9229W        W25413  13.648  12.240   2.651  0.2297  0.0075  0.1348
 9230W        W25414  10.861   9.181   3.936  0.0525  0.0171 -0.0404
 9231W        W25415   2.410   3.050  11.812 -0.1544  0.1191  0.1627
 9232W        W25416   2.256   7.624   5.085  0.0039  0.1862 -0.1073
 9233W        W25417   3.142   8.174   5.406  0.0524  0.1489  0.0217
 9234W        W25418   8.471   8.996   0.914  0.1974  0.1390  0.3259
 9235W        W25419   4.400   3.017  16.930  0.1297 -0.1144 -0.2983
 9236W        W25420   8.186  13.921   3.925  0.2342 -0.0878 -0.0617
 9237W        W25421  10.025  17.038   2.091 -0.1660 -0.1357 -0.0180
 9238W        W25422   3.602   9.527  12.575  0.2548  0.2326 -0.2352
 9239W        W25423   0.245  16.623  14.277 -0.1562  0.1395  0.4114
 9240W        W25424   7.487  12.809   4.124  0.1188  0.3330 -0.1110
 9241W        W25425  10.466   4.786   0.763  0.0876 -0.1095 -0.0710
 9242W        W25426   7.130   8.084  11.582  0.1145 -0.0709 -0.1169
 9243W        W25427   0.740  11.191   3.900 -0.0500 -0.0292  0.2884
 9244W        W25428   8.232  10.583   5.293 -0.1380 -0.0054 -0.1349
 9245W        W25429   2.228  11.318   2.919  0.3125  0.0561  0.0363
 9246W        W25430   0.026  17.253   0.503 -0.3855  0.1729  0.1739
 9247W        W25431   6.374   4.835   4.991 -0.1039  0.4697  0.1780
 9248W        W25432  12.152  16.813  16.904  0.2310  0.0513  0.1032
 9249W        W25433   7.827   0.687  13.337 -0.1278  0.0142 -0.2216
 9250W        W25434   8.196   4.583   3.777  0.2500 -0.3576 -0.1359
 9251W        W25435  10.886   0.383   0.638  0.1778 -0.0825  0.0688
 9252W        W25436  15.192   7.628   3.189  0.1740 -0.0967 -0.1149
 9253W        W25437   5.695  17.073  14.357  0.0154 -0.0053  0.2304
 9254W        W25438  13.845  11.300  16.282 -0.0172  0.1993  0.1308
 9255W        W25439   2.857  12.817  13.960 -0.0140  0.1174  0.0525
 9256W        W25440   3.374   2.374   0.972 -0.0739 -0.1977 -0.1427
 9257W        W25441   4.300   5.049   2.721  0.1671  0.0345  0.0289
 9258W        W25442  17.250   5.137   6.275  0.1550  0.0221 -0.1194
 9259W        W25443  14.193   5.687  14.530  0.2045  0.1032  0.0523
 9260W        W25444   3.177  12.493  15.868  0.1322 -0.1820 -0.0163
 9261W        W25445  16.228  11.203   2.379 -0.2763  0.4675 -0.0950
 9262W        W25446   7.352   6.181   2.542 -0.2714  0.0860  0.2627
 9263W        W25447  17.765  12.134  12.292 -0.1106 -0.0232 -0.1827
 9264W        W25448  10.487  17.349   0.438 -0.0530 -0.0593  0.0693
 9265W        W25449   5.120   4.717   4.806  0.0657  0.1679 -0.0799
 9266W        W25450  15.048  12.013  14.048  0.4293  0.4304 -0.2247
 9267W        W25451   3.134   5.972  11.787 -0.1643 -0.0000  0.1157
 9268W        W25452   1.767   8.150  12.201  0.2869 -0.0038 -0.1694
 9269W        W25453   8.720   0.573  12.979 -0.0853  0.1960 -0.1677
 9270W        W25454  16.851  16.694   0.957 -0.1984 -0.0672  0.0678
 9271W        W25455   2.803   3.213   5.669  0.3733  0.1119 -0.0701
 9272W        W25456   3.529  14.032   2.726 -0.2380 -0.0393  0.0209
 9273W        W25457  12.386   2.514   1.622 -0.1093  0.2450  0.1061
 9274W        W25458   5.103  13.522   2.336 -0.1052  0.0757 -0.2086
 9275W        W25459  10.373  11.940   0.843  0.0086  0.2866  0.0601
 9276W        W25460  10.877   3.027  11.865 -0.2705  0.0977 -0.0134
 9277W        W25461  14.673  13.143   4.926 -0.3335 -0.2691 -0.0154
 9278W        W25462  17.438  17.229  16.512  0.0319  0.1365  0.2148
 9279W        W25463   7.553   6.320  12.812  0.0316  0.0479 -0.0894
 9280W        W25464  13.675   0.645   1.517 -0.0705 -0.0302  0.0191
 9281W        W25465   3.827  17.700  13.464  0.2029 -0.0760  0.0366
 9282W        W25466  10.065   2.627  14.957  0.0147  0.0948 -0.0705
 9283W        W25467   3.967  13.990   3.710 -0.0161  0.1211 -0.2225
 9284W        W25468   7.939   0.695   1.469 -0.1301 -0.1503  0.1379
 9285W        W25469   7.691   7.917   3.457  0.2215  0.2600 -0.0118
 9286W        W25470   0.285  14.165  15.584  0.0795  0.0221  0.1912
 9287W        W25471  13.075   0.350  11.717 -0.2872  0.1937 -0.0194
 9288W        W25472  14.868   9.660  13.880 -0.1767 -0.0726 -0.5045
 9289W        W25473  12.673  14.816  13.160  0.1769  0.3103  0.1701
 9290W        W25474  12.032   3.454   4.771 -0.1226 -0.0908 -0.0227
 9291W        W25475   7.193   3.240  13.246 -0.3352  0.0044  0.0052
 9292W        W25476  13.259   6.553  13.735 -0.0818 -0.0405  0.1491
 9293W        W25477  14.791  14.132  15.421  0.1478 -0.0538 -0.0544
 9294W        W25478  12.369   0.055  15.047  0.0076  0.1200 -0.0121
 9295W        W25479   4.047   2.961  13.692  0.0135 -0.0808 -0.0527
 9296W        W25480  12.226   4.526   1.590 -0.1455  0.2798  0.0898
 9297W        W25481   9.521   2.374  13.094  0.0814  0.1418 -0.3879
 9298W        W25482  15.466   3.529   1.142 -0.0785 -0.0805  0.0410
 9299W        W25483   0.215  16.920  15.029 -0.2025  0.1615  0.2188
 9300W        W25484   1.757  10.836  16.283 -0.3216 -0.3540  0.2909
 9301W        W25485   6.031  13.285   3.392  0.0870  0.1456 -0.0123
 9302W        W25486   2.523  12.031  13.258  0.1116 -0.1465 -0.1077
 9303W        W25487  12.680   0.951  14.890 -0.1191 -0.0871  0.1395
 9304W        W25488  16.049   0.199   3.641  0.0343 -0.0101 -0.3073
 9305W        W25489   8.088  13.891  14.287  0.2548  0.1064 -0.1124
 9306W        W25490   5.961   5.017   1.232  0.1158 -0.0446  0.2610
 9307W        W25491  16.181  15.247  13.849  0.0783  0.1663  0.3682
 9308W        W25492  15.316  12.797  15.502  0.0674 -0.1741  0.2550
 9309W        W25493   4.916  15.604   0.240 -0.2739  0.2706  0.1458
 9310W        W25494   1.501  11.003   3.748 -0.0548 -0.0196 -0.2661
 9311W        W25495   8.376  11.401  13.366  0.2647 -0.0660 -0.0775
 9312W        W25496  17.555  10.725   4.884 -0.0961 -0.0674  0.1243
 9313W        W25497  17.879  15.024   5.301  0.2382  0.0653  0.2789
 9314W        W25498   2.432  15.191   4.899  0.1018 -0.0664 -0.1742
 9315W        W25499  11.659   7.322  16.642 -0.0981  0.1253 -0.0405
 9316W        W25500   3.962  13.314  14.092  0.3733 -0.0076 -0.0574
 9317W        W25501   0.880  13.515   1.040  0.3417  0.2066  0.0474
 9318W        W25502   0.037  13.621  13.304 -0.2943  0.2199  0.3342
 9319W        W25503  16.390   5.747  16.622  0.0077  0.1733  0.3141
 9320W        W25504   1.148  10.008   6.004  0.0083  0.1444  0.0685
 9321W        W25505   0.995  10.116  14.558 -0.0628  0.1436  0.0327
 9322W        W25506   3.513   5.646  15.924 -0.1331 -0.2660 -0.0416
 9323W        W25507  12.029   1.854  15.317 -0.1664  0.1413 -0.0264
 9324W        W25508   6.898   7.340   1.022  0.0084 -0.0766  0.0771
 9325W        W25509   9.296   7.850  12.254  0.0927 -0.2450 -0.0486
 9326W        W25510  15.751   1.012  16.098 -0.0013 -0.1462 -0.0199
 9327W        W25511  12.710   4.552   4.671 -0.2309  0.1378 -0.4195
 9328W        W25512  14.656   9.302   0.835 -0.3355  0.0454 -0.1041
 9329W        W25513  13.290   5.638  14.399  0.2648 -0.2433  0.1355
 9330W        W25514  15.240  16.679   1.696  0.1426 -0.3196  0.0939
 9331W        W25515   2.584  16.245   3.876  0.1173  0.0058  0.2430
 9332W        W25516  12.370   7.730  16.011  0.0930 -0.1060  0.0266
 9333W        W25517  16.145  10.236  13.654 -0.0100  0.0150 -0.1703
 9334W        W25518  10.173   6.997   1.658 -0.1073  0.0031 -0.3709
 9335W        W25519  16.747   4.412   1.903  0.1196 -0.0687 -0.1247
 9336W        W25520   1.859   4.134   0.980  0.1971 -0.0756 -0.1279
 9337W        W25521  12.821  14.822  15.814  0.1545  0.0893  0.3240
 9338W        W25522   7.970   5.589   3.765 -0.3457  0.1791  0.0535
 9339W        W25523  11.956  15.711  11.607 -0.1653  0.4177  0.0782
 9340W        W25524  11.815   3.502   2.388  0.2787  0.2429 -0.1747
 9341W        W25525   0.702   3.157  14.385 -0.1403  0.0643 -0.0001
 9342W        W25526   5.806   3.206  13.417  0.1458 -0.1279  0.0108
 9343W        W25527  17.273   3.089   0.661 -0.1554 -0.1164 -0.2958
 9344W        W25528   4.940  16.642   3.067  0.2143 -0.0024  0.1367
 9345W        W25529  10.627  16.524  12.088  0.0695  0.3887  0.0271
 9346W        W25530  11.155   9.150  15.856 -0.1104 -0.0546  0.0474
 9347W        W25531  13.635  16.594   5.629  0.1682  0.2186 -0.1017
 9348W        W25532  15.963   9.087   0.680 -0.1355 -0.0933 -0.1865
 9349W        W25533  11.799  11.609  14.702  0.0951  0.1621  0.2213
 9350W        W25534   6.594   3.655  15.957  0.2170  0.0897 -0.2437
 9351W        W25535   6.574   4.037  13.493 -0.0447 -0.0164  0.0497
 9352W        W25536   3.305  13.156  15.106  0.0969 -0.5245  0.1999
 9353W        W25537   6.106  13.924   0.694 -0.2583  0.2392 -0.2235
 9354W        W25538   7.077  10.329  12.780 -0.1352  0.1164 -0.0647
 9355W        W25539   8.826  11.951  15.740 -0.1527  0.2862  0.0338
 9356W        W25540  17.815   7.270  16.853  0.1373 -0.0854  0.1121
 9357W        W25541  15.008   6.876  16.609 -0.0213  0.0745  0.1789
 9358W        W25542   8.929   0.546  13.792  0.1118  0.1547  0.1544
 9359W        W25543   9.983  11.507   0.582  0.0172  0.1164 -0.1277
 9360W        W25544   6.626  14.906   5.282  0.0230  0.1467  0.0762
 9361W        W25545   4.151   3.205  13.258 -0.2286 -0.2311  0.1465
 9362W        W25546  16.132   6.263   1.034 -0.0320  0.0547  0.1685
 9363W        W25547   5.155  13.075   2.608 -0.1224 -0.0227  0.1602
 9364W        W25548   2.670   4.690   0.789  0.0125  0.0689  0.1406
 9365W        W25549   5.509  16.950  16.089 -0.0217  0.0077 -0.0502
 9366W        W25550   1.555  13.700   0.367  0.1896  0.0293 -0.0789
 9367W        W25551   1.608  15.690  12.332  0.0400 -0.0061 -0.2119
 9368W        W25552  15.291  10.926  11.530 -0.2292 -0.1387  0.0395
 9369W        W25553   2.639  15.771  15.229  0.0909 -0.0764  0.1733
 9370W        W25554  12.148   4.484  15.133  0.0910  0.1448 -0.2202
 9371W        W25555  11.821   8.741  12.153  0.0600 -0.0495  0.2584
 9372W        W25556   1.309   2.549  15.915 -0.2320  0.4760 -0.5078
 9373W        W25557   5.077   3.196  16.187 -0.2940  0.2144 -0.1660
 9374W        W25558   4.394  17.110  13.964  0.0202 -0.2437 -0.0450
 9375W        W25559  10.275   3.526   5.168 -0.0257  0.0978 -0.2802
 9376W        W25560   6.089   0.207   5.652 -0.1785  0.2728  0.1888
 9377W        W25561   8.468  13.926   5.657  0.0708  0.6296  0.3861
 9378W        W25562   4.474   8.621   2.631 -0.3579 -0.1615 -0.2490
 9379W        W25563  10.348   6.677  15.463 -0.0970 -0.0731  0.0352
 9380W        W25564  17.401  10.573   3.417  0.1078  0.2520  0.1890
 9381W        W25565  11.357   2.287   1.378 -0.1774  0.0894 -0.1030
 9382W        W25566   9.627   6.971  16.640  0.0969  0.0667  0.2459
 9383W        W25567   1.076   4.390  16.820 -0.1129 -0.2116 -0.2257
 9384W        W25568  13.450  10.108  15.027  0.0245 -0.2953  0.2486
 9385W        W25569   3.133   4.516   2.477 -0.0284  0.2567 -0.1640
 9386W        W25570   2.306   6.761  14.844  0.2389 -0.3924  0.0366
 9387W        W25571  17.305  11.904  13.533  0.1285 -0.0499 -0.1327
 9388W        W25572   4.207   2.960   3.761 -0.2123 -0.0771  0.4367
 9389W        W25573   6.103  13.781   4.622  0.4024 -0.1935 -0.0731
 9390W        W25574   8.352  16.688  15.580  0.1961 -0.0057 -0.2198
 9391W        W25575   5.515   5.290  11.033 -0.0218  0.2784 -0.0143
 9392W        W25576  15.063   2.208  14.238 -0.0232  0.2071 -0.1911
 9393W        W25577  13.980   5.447  12.137 -0.1527  0.3017  0.0374
 9394W        W25578   0.700  11.840  14.504  0.0636  0.0837 -0.4540
 9395W        W25579   5.546   2.758  11.242  0.0190  0.0566 -0.2015
 9396W        W25580   4.373   1.784  14.929  0.0638  0.0199 -0.0972
 9397W        W25581   3.804  14.122   5.359 -0.3129 -0.1080  0.2386
 9398W        W25582   3.521   3.816   6.174 -0.0987  0.1598  0.0038
 9399W        W25583  15.769  17.199  16.010 -0.2208 -0.0273  0.1338
 9400W        W25584   9.191   9.258   2.818  0.0315 -0.0158 -0.0224
 9401W        W25585   9.270   8.070   0.850  0.1386 -0.0578 -0.1622
 9402W        W25586  10.518   8.909  15.563 -0.0114 -0.1143  0.1508
 9403W        W25587   4.442   4.633   0.129  0.0641  0.2934 -0.1171
 9404W        W25588  14.257   8.818   3.972 -0.1359 -0.2326  0.0950
 9405W        W25589   3.232   4.329  14.537  0.3842 -0.1138 -0.0967
 9406W        W25590  10.225  11.581   4.695  0.1014  0.5616  0.0788
 9407W        W25591  12.853   6.110   0.379 -0.1860 -0.0177 -0.1474
 9408W        W25592  13.272   2.380   4.322  0.0894  0.0147 -0.2971
 9409W        W25593   9.923  12.065  12.918  0.2686 -0.0279  0.0121
 9410W        W25594  13.455  15.311   4.228 -0.0329  0.1309 -0.1507
 9411W        W25595  13.701   6.008   3.838  0.0820 -0.1696  0.3541
 9412W        W25596  17.010   7.720   4.684 -0.1984  0.2623 -0.2284
 9413W        W25597  16.573  12.512  14.101 -0.0517  0.1896  0.1476
 9414W        W25598  17.163   0.630   4.259 -0.0114  0.0761  0.0427
 9415W        W25599  16.494   5.476   4.994  0.1803  0.0630 -0.1764
 9416W        W25600  17.335  11.858   0.648  0.1972 -0.1383  0.3232
 9417W        W25601   1.826  17.446   3.061  0.7548 -0.0920  0.1228
 9418W        W25602  17.295   3.374   1.597 -0.2591 -0.0436  0.4116
 9419W        W25603   0.060  17.697   0.249 -0.1916  0.0160 -0.1911
 9420W        W25604   5.322  12.482  12.710  0.3526 -0.0359  0.1604
 9421W        W25605  11.370   3.355  14.142 -0.3184 -0.3132  0.1391
 9422W        W25606   4.605   3.052   0.976  0.0079 -0.1838  0.3560
 9423W        W25607   2.897   3.938   3.634  0.2671  0.1383  0.0416
 9424W        W25608  11.846   0.347   1.914  0.1044  0.1043 -0.1100
 9425W        W25609   7.070   9.836  12.390  0.1309  0.2989  0.1580
 9426W        W25610  11.003   1.698   2.110 -0.1108 -0.0237 -0.2181
 9427W        W25611   9.386   9.735   0.984 -0.3145  0.0083 -0.2334
 9428W        W25612   1.055  14.274   4.059  0.0969 -0.2102 -0.3862
 9429W        W25613  16.789   8.197  16.647  0.1381 -0.0410  0.1139
 9430W        W25614  10.855   3.474   3.780 -0.0052  0.0012  0.1479
 9431W        W25615   3.403  14.186  16.463 -0.1446 -0.0766  0.0347
 9432W        W25616  14.400   3.195   2.048  0.3353  0.2616 -0.4151
 9433W        W25617   8.750  15.029  13.926 -0.0863 -0.0490  0.1037
 9434W        W25618   6.806  11.203   1.270 -0.2040 -0.0715  0.0936
 9435W        W25619  10.379   7.224   0.844  0.0119  0.2829  0.1085
 9436W        W25620   2.100  17.614  14.721  0.1508  0.3503  0.0499
 9437W        W25621   2.868   0.159  11.982  0.1726  0.0379  0.0044
 9438W        W25622   2.644   0.654  16.451  0.0618  0.2852 -0.1388
 9439W        W25623   4.079  16.578   4.460 -0.0223 -0.1772  0.1169
 9440W        W25624   8.960  14.106   2.557  0.2064 -0.2036  0.1542
 9441W        W25625  14.136  16.757  16.424  0.0974  0.0792  0.2961
 9442W        W25626  17.105   7.922  14.443  0.4197 -0.0034 -0.0897
 9443W        W25627   7.846   4.728  16.921 -0.0153 -0.0407  0.3696
 9444W        W25628  14.403   7.508   4.998 -0.1419 -0.0942 -0.2782
 9445W        W25629   8.150  13.301   0.346  0.1671 -0.3159 -0.1013
 9446W        W25630   6.358   5.391  14.982 -0.3987  0.0344 -0.0184
 9447W        W25631   2.179   3.946   0.201  0.1186  0.2859  0.0014
 9448W        W25632   8.483  13.545   4.111 -0.2519 -0.0807  0.3614
 9449W        W25633  16.215   9.284   4.486 -0.0797  0.2436 -0.0389
 9450W        W25634  15.170   9.357   3.781  0.3722 -0.0407 -0.0567
 9451W        W25635  11.337  17.207   2.547 -0.0769  0.1534 -0.1701
 9452W        W25636  16.407   6.434  14.299  0.0143  0.0389 -0.0424
 9453W        W25637   5.335  16.386  14.758  0.3924  0.0579  0.1311
 9454W        W25638   6.801   4.420  14.732 -0.1689 -0.1531 -0.1095
 9455W        W25639   7.849   6.437  11.968  0.0655  0.1050  0.1795
 9456W        W25640   2.631   7.169   4.312 -0.0610 -0.3641 -0.0170
 9457W        W25641  17.109   0.131  12.066 -0.0845  0.1979  0.0379
 9458W        W25642  10.523  12.910  16.553 -0.0271 -0.1192  0.0145
 9459W        W25643  15.443  12.759   1.649 -0.2737 -0.1519 -0.2815
 9460W        W25644  13.419  13.605  16.608 -0.0290  0.0829  0.1177
 9461W        W25645   2.882  12.351  13.406 -0.2379  0.0783 -0.2770
 9462W        W25646   0.093   5.456  12.960 -0.2276 -0.0230  0.0219
 9463W        W25647   7.302   7.939  12.833 -0.3442 -0.0756 -0.0821
 9464W        W25648   9.775  16.629   3.248 -0.1254 -0.1055  0.1710
 9465W        W25649  13.753   3.701  13.844  0.2639  0.4689  0.3655
 9466W        W25650  16.159  16.438   5.240  0.0819  0.0705  0.0572
 9467W        W25651  11.540   2.739   2.783 -0.2582  0.1956  0.0073
 9468W        W25652   6.887   0.258   0.911  0.0635 -0.3408 -0.1329
 9469W        W25653   0.976   6.624  13.139 -0.0931  0.0162  0.4506
 9470W        W25654   9.505  14.002  11.053 -0.0137 -0.1365 -0.0691
 9471W        W25655  10.549  16.397   2.013 -0.0876  0.1861  0.3113
 9472W        W25656   7.739  15.839  11.271  0.0716  0.0251  0.1244
 9473W        W25657   0.528   5.889  13.728 -0.2364 -0.1421  0.0228
 9474W        W25658  14.346  13.456  15.761  0.0404  0.0638  0.1064
 9475W        W25659   7.212  10.569   5.007 -0.2638  0.1877 -0.1741
 9476W        W25660   8.070  14.765   1.612 -0.0054 -0.0630 -0.2392
 9477W        W25661  14.700   2.883  12.456 -0.2848 -0.1522 -0.2979
 9478W        W25662  13.171   3.309   4.024 -0.0552 -0.0180  0.0279
 9479W        W25663  13.720   1.860  13.554  0.0067  0.2262 -0.1074
 9480W        W25664   1.176   4.503  13.456  0.1014 -0.0806 -0.0323
 9481W        W25665  15.385  17.520  11.931  0.4949  0.1574  0.0392
 9482W        W25666   5.075   9.657   2.270  0.0177 -0.3109 -0.0662
 9483W        W25667  10.425   2.704   2.681 -0.1752  0.0533 -0.0032
 9484W        W25668   6.770  14.754  15.242  0.1964 -0.1370  0.0042
 9485W        W25669  16.138  11.875   1.662  0.1168  0.1660 -0.4090
 9486W        W25670   8.175  10.011   3.112 -0.3295  0.1627 -0.0128
 9487W        W25671   0.953   5.257   5.156 -0.1519  0.1651 -0.2720
 9488W        W25672   2.226  12.343   5.300 -0.1314 -0.0690  0.0164
 9489W        W25673   3.051  17.748   4.876  0.0103  0.1482 -0.3360
 9490W        W25674  13.410  11.895   4.790  0.2647 -0.0001 -0.2343
 9491W        W25675  13.004   7.070   3.270 -0.1389  0.0101  0.2075
 9492W        W25676  15.830  14.079   4.309 -0.0233 -0.2022 -0.0153
 9493W        W25677  12.434  16.704  16.502  0.3336 -0.1245 -0.4005
 9494W        W25678   2.619   6.217   1.074  0.0791  0.2136  0.0388
 9495W        W25679   5.712  17.817  12.314 -0.0264 -0.1822 -0.0981
 9496W        W25680  17.312  11.509   3.353  0.2741  0.1185 -0.0015
 9497W        W25681   4.031  10.414  12.933  0.1143  0.0010  0.4038
 9498W        W25682   0.061  16.349  16.344 -0.0954 -0.2489 -0.0150
 9499W        W25683   8.534   0.027  16.124 -0.1609 -0.1951  0.0304
 9500W        W25684   7.067   1.370  15.878  0.0857 -0.2102 -0.4424
 9501W        W25685  12.865   1.809   4.361 -0.1457  0.0907  0.0659
 9502W        W25686  14.110   0.671   3.349  0.1215 -0.0494 -0.0890
 9503W        W25687  14.165  13.718   4.295 -0.0931  0.0059 -0.1511
 9504W        W25688   7.885   5.961  15.017  0.0264  0.0420  0.4387
 9505W        W25689   0.343  15.929  13.348  0.3595  0.0422 -0.4888
 9506W        W25690   1.121   2.465   3.701 -0.0402 -0.1154 -0.0898
 9507W        W25691  13.335   4.649  13.562 -0.1373  0.1547 -0.2288
 9508W        W25692  13.331   9.805   4.260  0.0454 -0.0064 -0.0113
 9509W        W25693   1.196  12.720   3.164 -0.1513  0.0090  0.3459
 9510W        W25694   2.739  17.534  12.756  0.1453 -0.0239  0.0930
 9511W        W25695   6.746  10.250  15.060  0.0032 -0.0034  0.0320
 9512W        W25696   2.634   5.792  16.196 -0.1568 -0.3224  0.0194
 9513W        W25697  17.383   1.027  16.005 -0.0797 -0.0701 -0.0711
 9514W        W25698  13.666   3.472   1.823 -0.0522 -0.0992  0.3127
 9515W        W25699  12.646   1.172  12.698  0.2029  0.2410 -0.2986
 9516W        W25700  12.316  17.117  14.349  0.0259  0.0394  0.2514
 9517W        W25701   8.752  12.738   5.154  0.0033  0.0817 -0.1097
 9518W        W25702  12.847  12.429  15.416 -0.0569 -0.1371  0.0666
 9519W        W25703  17.059   9.622  10.672  0.0311  0.1652  0.0412
 9520W        W25704  14.818   2.794   5.744 -0.2503 -0.0390  0.1130
 9521W        W25705  17.642   3.656   6.476  0.0553  0.2687  0.1066
 9522W        W25706  16.430   2.138   0.991  0.1082 -0.0631 -0.2438
 9523W        W25707   4.622   6.883  13.853  0.1065  0.2717 -0.0637
 9524W        W25708  12.765   9.813   0.236  0.0205  0.0013 -0.1953
 9525W        W25709   7.524  12.752   4.732 -0.0952  0.2800 -0.0924
 9526W        W25710   1.521  12.142  16.792  0.2062 -0.0108  0.1141
 9527W        W25711   0.314   0.574  16.127  0.0986  0.0729  0.1585
 9528W        W25712   8.838  10.453   0.178  0.2447 -0.1922  0.0545
 9529W        W25713  13.000  12.023   3.826  0.0056 -0.1110  0.5565
 9530W        W25714  17.563   5.037  12.145  0.0801  0.0885 -0.0426
 9531W        W25715   3.624   8.678   0.941  0.0365  0.1613 -0.1328
 9532W        W25716   8.319  16.259  16.458 -0.0254  0.1206 -0.2091
 9533W        W25717  17.778  14.965  12.526  0.3204 -0.1226 -0.0513
 9534W        W25718   8.909  10.813   4.664  0.0816 -0.1145 -0.0842
 9535W        W25719   9.839   9.366   2.013  0.2114 -0.0688 -0.0229
 9536W        W25720   8.048   2.736  15.188  0.0575  0.0690 -0.1453
 9537W        W25721   8.494   3.866   2.643  0.2411 -0.1364 -0.0838
 9538W        W25722  16.651   4.176  13.004  0.2188 -0.1368 -0.1285
 9539W        W25723  17.813   5.342  16.886  0.3858 -0.5849  0.0329
 9540W        W25724   5.799  10.548   4.615 -0.2231  0.0666 -0.1803
 9541W        W25725  12.618  10.528  16.792 -0.3771 -0.3703 -0.2037
 9542W        W25726  10.860   1.815   5.756  0.2140 -0.1713 -0.0342
 9543W        W25727   0.410  17.204   5.519  0.1349 -0.0431  0.3581
 9544W        W25728   4.514  17.092  15.071  0.0647 -0.1301  0.0533
 9545W        W25729   2.195  16.783   5.684  0.0026 -0.0473  0.1224
 9546W        W25730  13.139   4.120  15.212 -0.0924 -0.2112 -0.0816
 9547W        W25731  15.068   9.328  16.159 -0.2030 -0.0770 -0.1391
 9548W        W25732   6.056   1.617  16.236 -0.0561  0.3528  0.1511
 9549W        W25733   2.540  13.182  14.328  0.3661  0.0404  0.2825
 9550W        W25734   0.006  14.326   3.602  0.3786  0.0381  0.2759
 9551W        W25735   4.918   8.414   0.607 -0.1104  0.1247 -0.0185
 9552W        W25736   6.313   8.608  15.447 -0.1022  0.1157 -0.1224
 9553W        W25737  15.751   4.762  13.866  0.3099  0.1377  0.1552
 9554W        W25738  12.774  12.986   0.203 -0.0282 -0.1569 -0.1333
 9555W        W25739  14.618   5.352  14.344 -0.6151  0.1689  0.1013
 9556W        W25740   4.309  14.784  11.161  0.3399  0.2869 -0.1163
 9557W        W25741   4.162  17.875  16.546  0.1723 -0.2018  0.2681
 9558W        W25742  13.698   0.640  16.615  0.0610  0.1721  0.0121
 9559W        W25743  12.127   5.248   0.848 -0.0587  0.0204  0.1969
 9560W        W25744   6.384   1.252  11.030 -0.1795 -0.0822  0.2263
 9561W        W25745  10.756  15.962  15.541 -0.1613 -0.1984  0.1258
 9562W        W25746   8.213   0.126   5.762  0.0367  0.0623 -0.0927
 9563W        W25747  10.383  14.494  15.808  0.0256 -0.3207  0.1114
 9564W        W25748   7.958  12.227   3.651 -0.0530  0.2385  0.1474
 9565W        W25749  15.446  16.813  11.499  0.1200 -0.3963  0.1381
 9566W        W25750  15.925   6.466   2.135 -0.0425  0.1168  0.2093
 9567W        W25751  13.138   1.090  16.685  0.0585  0.2444 -0.2249
 9568W        W25752  11.744  12.153  11.282  0.2736  0.2115  0.1280
 9569W        W25753   8.297   1.286   2.631 -0.2548  0.0252  0.1307
 9570W        W25754  10.724   2.088  10.749 -0.0619 -0.0048 -0.0340
 9571W        W25755   2.063   4.349   1.432 -0.0610 -0.2442  0.0253
 9572W        W25756   8.092  11.000   0.329  0.1354  0.0269  0.0260
 9573W        W25757   7.726   8.484   4.150 -0.0746 -0.0150  0.0318
 9574W        W25758   9.749   7.122  13.348  0.2319 -0.0944  0.2530
 9575W        W25759   3.470   9.079   2.683  0.0250  0.1331 -0.2218
 9576W        W25760   0.653  10.939   2.560  0.2233  0.1259 -0.2112
 9577W        W25761  16.271   5.896  15.354  0.0031 -0.1543  0.1211
 9578W        W25762   7.260   1.250  13.748  0.0172  0.1185  0.1236
 9579W        W25763   6.980   1.688   2.903  0.1452 -0.2058 -0.0745
 9580W        W25764   9.788   1.439   4.449  0.0550 -0.0767  0.1084
 9581W        W25765   6.063   2.254   5.165 -0.0555 -0.1832  0.1124
 9582W        W25766   8.679  17.803   1.203  0.0946  0.2514 -0.0856
 9583W        W25767   7.262   8.837   1.638 -0.0369  0.1120  0.2012
 9584W        W25768   2.766  15.101   5.367 -0.1430 -0.2255  0.1825
 9585W        W25769   1.050   9.150  16.275  0.2502 -0.0865 -0.3354
 9586W        W25770  11.587  10.729  11.590  0.3770  0.2817 -0.0438
 9587W        W25771   2.527  12.922   4.002 -0.1300  0.1714 -0.0827
 9588W        W25772   8.627  17.561  10.597  0.1792 -0.2013 -0.0066
 9589W        W25773  13.760  15.071  12.039  0.2222 -0.1087 -0.2088
 9590W        W25774  13.324  15.999   5.050 -0.2169 -0.0385 -0.1452
 9591W        W25775   3.678   4.969  15.081  0.2111 -0.0287  0.2564
 9592W        W25776   2.664   8.155  14.559 -0.0131 -0.2851 -0.1080
 9593W        W25777  16.470  12.669   1.831  0.0180  0.1401 -0.1889
 9594W        W25778   4.370  10.055  14.950 -0.1097  0.1595  0.4046
 9595W        W25779  16.634  16.285  13.385  0.1645  0.0531 -0.1604
 9596W        W25780   1.137   1.282  12.523  0.0275 -0.2442 -0.1683
 9597W        W25781   6.814  11.377  13.864 -0.0778  0.0084  0.2756
 9598W        W25782  11.339  12.000   0.636  0.4580 -0.0393  0.5410
 9599W        W25783   6.934   5.413   1.920  0.2363 -0.0601 -0.0111
 9600W        W25784  11.502  13.929   5.792 -0.0367  0.0897 -0.1433
 9601W        W25785   3.563   7.268  16.916 -0.1385 -0.2424  0.2091
 9602W        W25786   5.810   6.995   1.641 -0.1845 -0.0477  0.2449
 9603W        W25787  10.414  15.903  15.046 -0.2831 -0.1305  0.2138
 9604W        W25788   0.059  16.895  11.966  0.0401 -0.0265  0.0487
 9605W        W25789   7.190   3.136  14.224 -0.0908  0.0277  0.2629
 9606W        W25790   9.483   0.670  11.913 -0.3089 -0.0751 -0.0970
 9607W        W25791   3.744  12.512   4.173  0.0390  0.1235  0.2059
 9608W        W25792  14.629   2.606   1.116 -0.1763  0.0445  0.0696
 9609W        W25793  17.618  12.805   2.266 -0.1772  0.1986  0.1522
 9610W        W25794   2.256  10.189   4.830  0.2883  0.3423 -0.2348
 9611W        W25795   5.814  12.404   3.377  0.1615 -0.2803 -0.2227
 9612W        W25796   3.371   1.793   0.436  0.4129 -0.0728  0.0485
 9613W        W25797   0.340   0.966  11.531 -0.0498 -0.0994 -0.0606
 9614W        W25798  11.168  16.699  15.351  0.0659 -0.2149 -0.0781
 9615W        W25799  17.041   1.055  14.384  0.0806  0.0241 -0.1666
 9616W        W25800   0.782   6.488   5.399  0.0307 -0.1947 -0.1108
 9617W        W25801  10.175   6.969  11.644 -0.2522  0.0461 -0.2311
 9618W        W25802   9.378  16.373   1.815 -0.2102  0.1606 -0.1824
 9619W        W25803   4.674   2.312  13.448 -0.0372 -0.3475 -0.0785
 9620W        W25804   4.903  17.405   4.185 -0.0205 -0.0501  0.0290
 9621W        W25805  16.017  12.301  15.578 -0.1701 -0.0411 -0.1773
 9622W        W25806   7.188   8.831  12.108 -0.1322 -0.0002  0.0251
 9623W        W25807   5.067  10.078  16.617 -0.1542 -0.0197 -0.1612
 9624W        W25808  15.816   3.261   3.174 -0.1441  0.0826  0.2566
 9625W        W25809  13.827  16.106  14.265  0.1816 -0.1363  0.0927
 9626W        W25810   7.944   8.926  13.330 -0.3082 -0.0636 -0.0876
 9627W        W25811  13.879   4.339  13.417  0.2418  0.0410  0.0951
 9628W        W25812   3.853   1.131   1.331 -0.0027  0.0966  0.2343
 9629W        W25813  15.469   2.412   4.335 -0.0671 -0.1324  0.2044
 9630W        W25814   3.046   5.962  12.296 -0.0498 -0.0622  0.1511
 9631W        W25815   7.745   9.842   4.416  0.2058 -0.0224 -0.0485
 9632W        W25816   9.269  15.391  16.191  0.0652  0.0501  0.2172
 9633W        W25817  11.037   8.115  15.995  0.0286  0.0909 -0.1757
 9634W        W25818   1.439   6.619   1.244 -0.4658 -0.1700 -0.1439
 9635W        W25819   3.429   0.139   1.491 -0.0989  0.1616  0.0021
 9636W        W25820   4.564  10.542   0.784 -0.3769 -0.2893 -0.1980
 9637W        W25821   8.571   2.831   5.153 -0.0160  0.3055 -0.0035
 9638W        W25822   3.845  12.611   2.820  0.1967  0.1346  0.0267
 9639W        W25823   4.925  17.118  16.744  0.0328 -0.0040 -0.0962
 9640W        W25824  13.426  11.767  12.084 -0.0207 -0.2722  0.2776
 9641W        W25825   7.225  14.078  13.335  0.0543 -0.3850 -0.1066
 9642W        W25826   4.382   8.057  14.987 -0.2046  0.0355 -0.0749
 9643W        W25827   5.383   8.935  14.569 -0.0980  0.0741  0.0590
 9644W        W25828  13.901   8.294   5.431 -0.1926  0.0462 -0.0677
 9645W        W25829  16.008   3.879  13.145 -0.0155 -0.2162 -0.1021
 9646W        W25830  11.177   9.867  16.592  0.2554  0.1148 -0.1370
 9647W        W25831  10.958  16.855   4.508  0.1777 -0.2834  0.2674
 9648W        W25832   0.793   3.004   0.894 -0.2082 -0.2258 -0.2196
 9649W        W25833   2.059   2.843   2.614  0.1732 -0.0081  0.0592
 9650W        W25834   1.568   8.700   2.589  0.1782 -0.1524  0.2494
 9651W        W25835  14.060   0.072   2.563 -0.0111 -0.2659 -0.0494
 9652W        W25836   3.772  17.821   3.295 -0.1511  0.1252 -0.0422
 9653W        W25837   7.597   0.196   2.043 -0.1670  0.0968  0.0689
 9654W        W25838   3.063  15.300  14.359 -0.1466  0.1257 -0.0168
 9655W        W25839  10.808  16.940  13.612  0.0689 -0.2325 -0.1110
 9656W        W25840   4.627   1.007  16.465 -0.0287 -0.0303  0.0564
 9657W        W25841   8.812   6.279  13.422 -0.0058 -0.1128  0.0685
 9658W        W25842  15.222  11.654  16.415  0.0793 -0.2076 -0.1047
 9659W        W25843  12.796  12.423   5.326  0.0680 -0.1322 -0.2304
 9660W        W25844  13.685   7.467   2.785 -0.0461  0.0897  0.0656
 9661W        W25845   2.126  15.916   2.873  0.0975  0.1839 -0.1566
 9662W        W25846  11.708   3.753  13.502 -0.0596 -0.0593  0.2218
 9663W        W25847  10.143   3.530  15.093 -0.1624  0.3904  0.1984
 9664W        W25848   8.750  10.457  12.138 -0.0277  0.0856  0.3687
 9665W        W25849  13.763   7.839   2.446  0.0065 -0.0348  0.0703
 9666W        W25850   7.364  10.915  16.199 -0.1195 -0.1421 -0.2597
 9667W        W25851   1.716  14.029   1.997  0.3663 -0.1434  0.2308
 9668W        W25852   7.974  17.560  13.147  0.0542 -0.0705  0.0765
 9669W        W25853   1.965   1.586  15.311  0.2487 -0.0166  0.0629
 9670W        W25854  15.099   2.609  15.216 -0.0688  0.2726 -0.3027
 9671W        W25855   5.733   8.897  16.084 -0.2215 -0.1652  0.0950
 9672W        W25856   7.526   1.641   4.625  0.4921 -0.1813 -0.0351
 9673W        W25857   5.431   3.795  15.625 -0.2246 -0.0611  0.1768
 9674W        W25858   7.586  12.325   5.034 -0.0764  0.0368  0.1874
 9675W        W25859   7.023   5.770  12.828 -0.2219  0.0599  0.1742
 9676W        W25860   1.835   6.226  15.546 -0.0717  0.0529  0.2407
 9677W        W25861   6.018  14.669  11.229 -0.0377  0.0999 -0.0690
 9678W        W25862   4.782   4.102  16.251  0.0995  0.1170 -0.0096
 9679W        W25863   5.146  17.001  12.493  0.1371  0.1553  0.0081
 9680W        W25864   3.532   1.751   5.094 -0.1298  0.1034 -0.0201
 9681W        W25865  11.289  10.693   1.043 -0.1761 -0.3156  0.0785
 9682W        W25866   2.401   1.918  15.125  0.1064 -0.0718  0.1368
 9683W        W25867  14.598   8.373  16.055 -0.1257  0.1243 -0.0597
 9684W        W25868   3.992   5.477  15.915  0.0345  0.1025  0.1924
 9685W        W25869  10.532  10.687  15.535 -0.1108  0.2597 -0.0397
 9686W        W25870  17.275  15.210  16.711  0.2150  0.0399  0.1520
 9687W        W25871  10.285   5.089   5.014 -0.0428 -0.0880  0.1458
 9688W        W25872   3.439  13.463   5.928 -0.1341  0.0292 -0.0101
 9689W        W25873   0.643   6.995   5.203 -0.3251 -0.4819  0.0650
 9690W        W25874  14.217   6.486   4.384 -0.0317 -0.3118  0.1426
 9691W        W25875  11.096   0.611   5.081  0.2907  0.2764 -0.2476
 9692W        W25876   0.898   3.858  15.179 -0.0067 -0.1270 -0.1042
 9693W        W25877  13.781   4.300  11.700  0.1835  0.1799  0.0944
 9694W        W25878   2.086   5.339  12.973 -0.0296 -0.0318  0.1912
 9695W        W25879   2.830  16.072  12.966  0.0938  0.1232 -0.5198
 9696W        W25880   4.563   6.254  16.208 -0.0511  0.1306 -0.0262
 9697W        W25881  14.391  13.984   2.885  0.0764  0.0385  0.0905
 9698W        W25882  13.211   3.542  10.550 -0.1126 -0.2933 -0.0702
 9699W        W25883   1.280  12.851  15.718 -0.1332 -0.0165  0.3871
 9700W        W25884   8.064  12.830  15.441 -0.3412  0.3414 -0.1081
 9701W        W25885   4.518   0.483   2.329 -0.2235  0.1221 -0.1680
 9702W        W25886   7.004  10.746  16.614  0.1738 -0.0077  0.1259
 9703W        W25887   1.873   5.041   4.249 -0.1572  0.0195 -0.2344
 9704W        W25888   3.778   8.171   4.274  0.4540  0.0291  0.0851
 9705W        W25889  13.799   3.164  13.737 -0.0169 -0.1307 -0.0032
 9706W        W25890   0.657   4.345   1.196 -0.0147 -0.0288 -0.2841
 9707W        W25891  10.278   2.085   4.738  0.0826  0.0672 -0.0157
 9708W        W25892   4.792   2.617   1.152 -0.0106 -0.0260  0.1392
 9709W        W25893   7.693   6.471   4.244  0.1696 -0.1220 -0.2749
 9710W        W25894  17.350   8.027   5.510 -0.1106 -0.1137  0.1187
 9711W        W25895   6.816   1.723  13.228 -0.0221 -0.0520 -0.0852
 9712W        W25896   9.854  14.315   0.894 -0.0586  0.3088 -0.0010
 9713W        W25897  13.549  13.255  13.509  0.0606 -0.2199  0.2272
 9714W        W25898   1.042   9.164  16.809  0.1368  0.0097  0.1404
 9715W        W25899  17.329   5.105  14.863 -0.1850 -0.1966 -0.1383
 9716W        W25900  13.863   0.355   2.195  0.1320 -0.1228 -0.2092
 9717W        W25901   3.124  13.693  14.133 -0.2370  0.5075 -0.1424
 9718W        W25902   0.168  12.356   1.347  0.2132 -0.0384 -0.0677
 9719W        W25903   8.278   1.296  16.376 -0.1286 -0.0134 -0.0303
 9720W        W25904  15.010  10.245  13.096 -0.1653  0.1681  0.1218
 9721W        W25905   2.443  15.151  14.613  0.0265 -0.0921 -0.0052
 9722W        W25906   2.016   1.663  16.006 -0.1722 -0.0486  0.0706
 9723W        W25907   5.676   5.919  15.029 -0.3110  0.0462  0.0523
 9724W        W25908  11.979  15.505  13.103  0.1397  0.2115  0.2092
 9725W        W25909   0.142   0.998  15.865  0.2636 -0.0036 -0.2212
 9726W        W25910   7.829   6.312   3.400  0.0979  0.0859  0.0829
 9727W        W25911  11.143  16.716  13.930  0.3587 -0.0326 -0.1325
 9728W        W25912   8.326   3.830  12.381  0.1405 -0.2283 -0.0801
 9729W        W25913  11.694  14.229  16.848 -0.1896 -0.1906  0.2106
 9730W        W25914   6.001   3.247   1.524  0.1711 -0.1453 -0.1151
 9731W        W25915  15.235  10.627  15.292  0.0682  0.4090 -0.0866
 9732W        W25916  15.425   0.019  13.137 -0.3017  0.0883 -0.0265
 9733W        W25917   0.892  14.124  13.239 -0.0024 -0.1375  0.0884
 9734W        W25918  16.825   0.585  14.205  0.2642 -0.2046  0.0850
 9735W        W25919   6.325   5.537  16.576  0.0307  0.3785  0.1563
 9736W        W25920  13.455  17.319  15.981 -0.0135  0.0644  0.1251
 9737W        W25921   7.088   3.883   3.966  0.2540 -0.1391 -0.4201
 9738W        W25922   1.225  17.305  13.080  0.0391  0.1365  0.2463
 9739W        W25923  10.455  10.347   4.915 -0.1106  0.3891 -0.2347
 9740W        W25924  12.249   2.485  15.834 -0.0271  0.0476  0.0418
 9741W        W25925   9.812   1.258  16.612 -0.0973 -0.0588  0.1744
 9742W        W25926  11.465   9.480  12.562  0.1088  0.0047 -0.0279
 9743W        W25927  17.192   1.692  13.629 -0.1086 -0.0912 -0.3455
 9744W        W25928  17.421   7.346   3.847  0.2451  0.0623  0.1713
 9745W        W25929  14.470  17.134  16.165 -0.0717  0.0482 -0.2747
 9746W        W25930   9.143   6.022  12.014 -0.0999  0.1137 -0.1505
 9747W        W25931   9.988   3.274   3.246 -0.0688 -0.1880 -0.0740
 9748W        W25932   0.445   1.934   5.785 -0.1318  0.0190 -0.1287
 9749W        W25933   0.332   0.961  12.929 -0.0577  0.0453  0.0194
 9750W        W25934   9.586   5.194   2.245 -0.0019 -0.0562  0.1147
 9751W        W25935  10.071  12.171   0.433  0.2665  0.2223 -0.2522
 9752W        W25936   8.917   8.740   5.563  0.1545  0.0189  0.2709
 9753W        W25937  12.403  12.774   4.701 -0.0541  0.1462 -0.0396
 9754W        W25938   7.308  14.506   1.830 -0.2311 -0.0001 -0.3888
 9755W        W25939  12.298   8.330   1.444 -0.0120 -0.3533 -0.1568
 9756W        W25940  10.470  14.545  12.946 -0.1094 -0.1011 -0.0657
 9757W        W25941   6.428  12.575   2.952  0.3821  0.1768  0.2826
 9758W        W25942   9.067   8.102  16.354 -0.1758 -0.0447  0.0809
 9759W        W25943   5.147   9.193  16.438 -0.1245  0.1041 -0.0823
 9760W        W25944   7.765   4.310  15.498  0.1224 -0.1800 -0.1587
 9761W        W25945  11.538   5.048   0.857  0.2301  0.2688 -0.0493
 9762W        W25946   5.051   6.233   4.339 -0.1571 -0.0817  0.0863
 9763W        W25947   4.136  10.438  13.522 -0.0801 -0.0743  0.4667
 9764W        W25948   3.375   8.043  12.662  0.1172  0.1725 -0.2594
 9765W        W25949   3.583  12.623  10.294 -0.0226  0.2177  0.2028
 9766W        W25950   5.394  13.222  16.422 -0.2225  0.1688  0.0773
 9767W        W25951  13.442   1.462  16.889 -0.0270  0.2480  0.1612
 9768W        W25952  14.661   5.752   2.489 -0.0294  0.1478 -0.0259
 9769W        W25953  10.752   7.788   4.735 -0.2603  0.0821  0.2556
 9770W        W25954   1.796   3.610  16.826  0.1864 -0.0121  0.2599
 9771W        W25955   3.937   3.072   2.998  0.0000  0.4797  0.0116
 9772W        W25956   7.918   4.966  13.049  0.1554  0.1364 -0.0857
 9773W        W25957  17.240  17.816   0.109  0.0472 -0.2156 -0.2301
 9774W        W25958  10.802   9.387   1.378 -0.1577  0.1095  0.0056
 9775W        W25959  17.699   6.105  14.601 -0.1682  0.0928  0.1835
 9776W        W25960  12.617   4.297  13.798  0.0712 -0.1241  0.0813
 9777W        W25961  11.516   8.925   2.830  0.3018  0.3281 -0.0871
 9778W        W25962  13.010   5.887  12.823 -0.0687 -0.2823  0.0889
 9779W        W25963   3.034  14.173   0.348 -0.3471 -0.0498 -0.1212
 9780W        W25964   1.320  11.723  16.590 -0.0645  0.0867 -0.0277
 9781W        W25965  15.611   6.228   4.184  0.0515  0.1543 -0.1276
 9782W        W25966   1.285  10.498  16.858  0.1309  0.2616  0.0717
 9783W        W25967   6.797  13.537  16.068 -0.1956  0.0953 -0.0306
 9784W        W25968   8.280  12.314  13.186 -0.2707 -0.0516  0.0753
 9785W        W25969   1.620   3.066   1.090  0.0372 -0.0597 -0.0283
 9786W        W25970   5.880  16.783  13.981  0.1073 -0.1833  0.2087
 9787W        W25971  15.211   6.456  16.449  0.1706  0.3223  0.4866
 9788W        W25972   7.207  17.406   1.547  0.1330  0.0649  0.1185
 9789W        W25973  12.892   3.764  15.986  0.1177 -0.1538 -0.0500
 9790W        W25974  13.298  14.321   1.818  0.1870 -0.2770 -0.2781
 9791W        W25975   0.124  16.349   3.465  0.0928 -0.0072 -0.0237
 9792W        W25976  13.350   9.778   5.673  0.1086 -0.1609  0.2038
 9793W        W25977   4.860   8.933  16.091 -0.0768 -0.2559 -0.0082
 9794W        W25978  13.409   9.275   3.955 -0.0197  0.2800  0.2549
 9795W        W25979   1.257  12.085  12.109  0.0845  0.1222 -0.0566
 9796W        W25980  12.460   5.528   4.308 -0.1407  0.0845  0.1320
 9797W        W25981   7.340   4.202  14.081  0.2904 -0.0068  0.1663
 9798W        W25982   1.509  16.255  15.471 -0.2602 -0.0277  0.0590
 9799W        W25983  12.288  16.658   4.520 -0.2137 -0.2307 -0.2459
 9800W        W25984  11.904  12.930   0.400  0.0604 -0.0451 -0.1261
 9801W        W25985  10.424  17.873  15.104  0.0215  0.0924 -0.1368
 9802W        W25986   6.793  10.205   2.443 -0.0189 -0.0665  0.2532
 9803W        W25987   3.364  16.822   4.516  0.3018  0.3321  0.1525
 9804W        W25988   0.173  15.931  12.486  0.0303  0.2013  0.1320
 9805W        W25989   1.479  13.478  14.772  0.1167 -0.1734  0.0155
 9806W        W25990   2.133   5.529  14.090 -0.1790  0.0238  0.2027
 9807W        W25991  16.259   3.143   0.792 -0.4331  0.2371 -0.4020
 9808W        W25992   3.764   9.158   5.368  0.0182  0.0933 -0.0564
 9809W        W25993   0.710   0.064   4.154 -0.0759 -0.0047 -0.0297
 9810W        W25994   4.122  15.031   0.865 -0.0241 -0.0982 -0.2465
 9811W        W25995  14.520  17.193  12.349  0.2269  0.0049 -0.5221
 9812W        W25996   9.688   2.100  16.141  0.1193 -0.1944 -0.1035
 9813W        W25997   0.984  11.957  13.261  0.1917  0.3417 -0.0626
 9814W        W25998   3.126   8.066   4.916 -0.0562  0.0156 -0.1867
 9815W        W25999   9.259  11.621  15.659  0.0637 -0.0581 -0.2797
 9816W        W26000   0.005   9.944  14.286  0.2535 -0.1292  0.3214
 9817W        W26001   3.139   7.754  11.827 -0.0295 -0.1131  0.1626
 9818W        W26002   5.677  15.335   2.321  0.2026  0.1423  0.1894
 9819W        W26003   4.271   3.576  12.872  0.0292 -0.0002  0.0653
 9820W        W26004   4.796   0.654   1.127 -0.1547  0.0795  0.1107
 9821W        W26005   4.337  16.392   3.075 -0.1983 -0.0707  0.0566
 9822W        W26006  16.585   5.906  12.880 -0.0644  0.2172 -0.1546
 9823W        W26007   3.144  17.079  12.945 -0.0615  0.0680  0.0582
 9824W        W26008   7.902  17.375   0.823 -0.1260  0.0195 -0.0741
 9825W        W26009   2.809  15.777  16.683 -0.2635  0.2324  0.1788
 9826W        W26010   8.880  17.300  16.838  0.1392 -0.4378  0.0542
 9827W        W26011   3.085   2.412  16.704 -0.0310  0.1249  0.2233
 9828W        W26012   4.340  11.299   1.618 -0.0909  0.2803 -0.1314
 9829W        W26013  10.594   5.672  13.125 -0.1407  0.0253 -0.0032
 9830W        W26014  10.612   2.409  11.711  0.1380 -0.2303  0.3816
 9831W        W26015  11.834   0.525   2.777  0.1398 -0.0820 -0.1226
 9832W        W26016  15.087  14.698  13.109 -0.2577  0.1150  0.2478
 9833W        W26017   2.550   2.976   0.096  0.0863  0.2014 -0.3382
 9834W        W26018   4.564   4.114   2.418  0.1241  0.0439  0.1214
 9835W        W26019   0.707   5.113  15.893 -0.3234 -0.0055  0.0406
 9836W        W26020  11.761   7.871  12.505 -0.1080 -0.1816 -0.1340
 9837W        W26021  16.357   4.466  13.847  0.1978 -0.0948  0.0064
 9838W        W26022   6.916   8.656  14.235 -0.0845 -0.0040  0.0454
 9839W        W26023   1.373  12.547  11.679  0.0402  0.2141 -0.1644
 9840W        W26024   7.248   4.940  14.031  0.1156 -0.0371 -0.1829
 9841W        W26025   1.036  11.373   0.172 -0.0950  0.0759 -0.2389
 9842W        W26026   4.703  10.829   4.916 -0.0668  0.1660  0.3496
 9843W        W26027  14.011   3.740   5.219 -0.0866 -0.2481  0.0554
 9844W        W26028  11.349   7.707  11.664  0.1010 -0.1967  0.4622
 9845W        W26029  14.196  13.832   2.455  0.1385 -0.0188 -0.1365
 9846W        W26030   7.429   4.266   1.770 -0.0613  0.1093  0.1535
 9847W        W26031  10.160   4.147  12.084  0.1654  0.0210  0.2909
 9848W        W26032  10.509   1.115  15.452  0.3396 -0.1127  0.2045
 9849W        W26033  12.842   0.165   3.438  0.0876  0.2463  0.0150
 9850W        W26034  12.497   4.238   0.116  0.0757  0.0508 -0.1976
 9851W        W26035  10.315  13.154  11.095  0.0677  0.1558 -0.0918
 9852W        W26036  11.107  15.984   1.943  0.1882  0.0864  0.0840
 9853W        W26037   4.977  11.774  16.355 -0.0624  0.0541  0.2363
 9854W        W26038   0.078   3.796  13.224  0.1111 -0.1021  0.0598
 9855W        W26039   9.734   8.958  13.479  0.0641 -0.0735 -0.0490
 9856W        W26040   2.426  10.178  15.038  0.1460  0.0440  0.1775
 9857W        W26041   2.866  11.296   1.347 -0.2848  0.3612 -0.1218
 9858W        W26042   6.132   9.344   1.483  0.0099 -0.1119 -0.0223
 9859W        W26043   8.345  16.211   0.445  0.1767 -0.3399 -0.0713
 9860W        W26044   2.310   6.627  12.961 -0.1994  0.4362 -0.4122
 9861W        W26045   6.926   8.245  13.029  0.0781 -0.2358  0.1214
 9862W        W26046  15.532  15.724  11.715 -0.0346  0.1025  0.1083
 9863W        W26047   1.699  16.337  16.282  0.1395  0.1628 -0.0556
 9864W        W26048   5.011   7.286  15.114  0.2293 -0.1745  0.1651
 9865W        W26049  11.618  10.729  15.027 -0.0023 -0.1357  0.3531
 9866W        W26050   4.576   7.066   5.897 -0.0374  0.2921 -0.2155
 9867W        W26051  17.434   8.101  12.352 -0.0025 -0.1640 -0.0225
 9868W        W26052  16.058   5.529   5.265 -0.1011 -0.1626 -0.0242
 9869W        W26053  15.237   1.232   0.212  0.2107 -0.1322  0.1451
 9870W        W26054  15.584   3.782   3.911  0.0595 -0.0098  0.2343
 9871W        W26055   3.165  12.326  12.262 -0.2210  0.1908  0.1335
 9872W        W26056  11.290  13.336  12.885 -0.1213  0.0154  0.1317
 9873W        W26057   7.573  15.684  15.973  0.2266 -0.2521  0.2325
 9874W        W26058  10.945   0.383  15.165  0.0895 -0.2549  0.2709
 9875W        W26059   3.661  10.107  15.426 -0.0944 -0.1683 -0.1226
 9876W        W26060   6.210   4.440   4.743  0.3490 -0.1851 -0.0986
 9877W        W26061   9.968   2.816   3.047 -0.2051  0.1433  0.0008
 9878W        W26062   9.177   1.181  12.590  0.0471  0.0008  0.3916
 9879W        W26063   4.822  16.185   2.707  0.2985 -0.0934 -0.3092
 9880W        W26064   2.789  12.647   1.897 -0.0404  0.0389 -0.0386
 9881W        W26065   5.084   5.081   0.474  0.4104 -0.2382  0.2096
 9882W        W26066   9.665   9.221  12.920 -0.1337 -0.2686  0.0880
 9883W        W26067  13.564   1.005   0.009 -0.2115  0.0449  0.1433
 9884W        W26068   9.839   6.146  12.720 -0.0948 -0.3818  0.2033
 9885W        W26069  10.270   3.451  13.848 -0.0210  0.1607 -0.2365
 9886W        W26070   2.719  15.319  15.114  0.2648  0.0931 -0.0026
 9887W        W26071   8.621  10.661  13.847 -0.0728 -0.2337  0.2673
 9888W        W26072   3.645   9.745  12.026  0.1989  0.0567  0.2167
 9889W        W26073   4.774   9.649   0.222  0.1725 -0.0905 -0.0537
 9890W        W26074  12.992   3.007   0.211 -0.2713 -0.0052  0.2000
 9891W        W26075   6.432  14.764   4.163  0.0288  0.0853  0.3689
 9892W        W26076   7.830   8.054  13.501 -0.0220 -0.2981  0.4283
 9893W        W26077   3.770  15.777  16.537 -0.1104  0.1027 -0.2038
 9894W        W26078   4.720  16.232  13.010 -0.0124 -0.0922  0.2239
 9895W        W26079  15.401   0.397  14.489 -0.2205  0.0801 -0.0331
 9896W        W26080  12.690  17.203   3.167 -0.2507 -0.2894 -0.2224
 9897W        W26081  10.021  12.308   3.688  0.0660 -0.1350 -0.2389
 9898W        W26082   4.427   1.757   2.735 -0.0583  0.0775 -0.2201
 9899W        W26083   1.300   7.527  15.912 -0.0428 -0.1099 -0.1097
 9900W        W26084   5.923   1.383  13.204  0.2618 -0.0371  0.1990
 9901W        W26085  11.291   5.010  16.144 -0.2160 -0.1983 -0.3384
 9902W        W26086  16.749   0.824  12.860  0.5274 -0.2124  0.0216
 9903W        W26087  17.174   6.419   6.391  0.0069 -0.0831 -0.2025
 9904W        W26088   4.264  13.739   1.922 -0.3504 -0.1058 -0.0951
 9905W        W26089  13.740  13.336  15.214  0.0538  0.1141 -0.0235
 9906W        W26090   9.521  15.984   2.426  0.0814  0.2564 -0.0543
 9907W        W26091   0.310   6.876   0.016  0.1415 -0.0989 -0.0282
 9908W        W26092   4.348   6.229   3.360  0.2503 -0.1383 -0.0908
 9909W        W26093   0.608   3.927   1.455 -0.0023 -0.0245 -0.2500
 9910W        W26094   0.675  15.077  14.355  0.0833 -0.5095 -0.0681
 9911W        W26095   2.890   4.664  12.064 -0.3121 -0.0248  0.1656
 9912W        W26096  12.998  11.091   5.278 -0.0063 -0.2500  0.1032
 9913W        W26097   1.212  15.162   2.054  0.0581  0.1512  0.0782
 9914W        W26098  17.073   4.956   5.839  0.1029  0.0785 -0.1986
 9915W        W26099  10.879   2.274  12.625  0.0544  0.0425  0.4437
 9916W        W26100   1.906   8.784   2.919 -0.0125  0.0601 -0.1115
 9917W        W26101   0.698  13.192   5.553 -0.1964  0.0867  0.1067
 9918W        W26102   2.369   8.595   1.403  0.1853 -0.1287 -0.1595
 9919W        W26103   9.599   6.918   3.062  0.1919 -0.0431 -0.0128
 9920W        W26104   6.761   7.419   0.459  0.0701  0.3117  0.2994
 9921W        W26105   6.444  11.003  15.242  0.0997  0.1197 -0.2629
 9922W        W26106   0.586  12.646  15.074 -0.1315 -0.0119  0.1400
 9923W        W26107   3.408   9.896  14.875 -0.2689  0.1775 -0.1864
 9924W        W26108   2.952   9.640   0.179 -0.3142 -0.0203  0.1624
 9925W        W26109   0.765  17.557  13.138 -0.3110 -0.3200 -0.1615
 9926W        W26110   4.994  12.637   3.293  0.0877 -0.0201  0.1097
 9927W        W26111  11.014  11.152   1.963 -0.3304 -0.0912 -0.1864
 9928W        W26112   9.844  11.665  11.310 -0.1292 -0.0403 -0.0532
 9929W        W26113  16.515  11.571   3.729  0.0928  0.0099 -0.0285
 9930W        W26114   2.856   1.509   6.219  0.4702  0.0745 -0.1521
 9931W        W26115   5.954   3.782  13.409 -0.1262  0.0566 -0.1301
 9932W        W26116   7.022   9.079  14.443  0.1215 -0.3908 -0.1863
 9933W        W26117   7.595  16.421   3.106 -0.2712 -0.1677 -0.2170
 9934W        W26118  12.132  11.603   0.619  0.0515 -0.1639 -0.0611
 9935W        W26119   9.488   5.149  12.350  0.1897  0.2783 -0.1809
 9936W        W26120   6.698   0.870  14.291  0.1943 -0.0725 -0.0323
 9937W        W26121  15.668   3.740   5.599 -0.4231 -0.1133  0.0186
 9938W        W26122   8.675   5.396  14.418  0.3848  0.0221 -0.3368
 9939W        W26123  14.038  16.199  13.340  0.1228 -0.0605  0.1086
 9940W        W26124  12.495  13.437   4.037 -0.3038  0.1447 -0.3098
 9941W        W26125   9.066   5.578  13.566  0.0416  0.1217 -0.4028
 9942W        W26126   2.815   4.269  15.976  0.0799 -0.1248  0.1483
 9943W        W26127  17.298   7.207   1.069 -0.0234 -0.2642 -0.2485
 9944W        W26128   7.079   2.946   3.602  0.0168  0.0847  0.2026
 9945W        W26129   5.524   3.120   1.511  0.1229  0.0574 -0.0108
 9946W        W26130   9.358   1.776  15.894 -0.0977  0.2645  0.1083
 9947W        W26131   0.227  11.112  13.974 -0.0771 -0.2527 -0.1928
 9948W        W26132  16.203   2.491   2.950 -0.2735  0.2562 -0.0136
 9949W        W26133  12.039   3.700  16.162 -0.0263  0.1381 -0.2149
 9950W        W26134   5.972  14.259  11.532  0.1961 -0.1187 -0.4336
 9951W        W26135  15.207   6.369   3.206  0.2247  0.3774 -0.3236
 9952W        W26136  17.719  15.996  13.411 -0.2005  0.0669 -0.0917
 9953W        W26137   1.603  11.239  13.844  0.2486  0.0494  0.0422
 9954W        W26138  12.048  17.608  15.987  0.2631 -0.0416  0.0303
 9955W        W26139  16.892   3.438  15.156  0.4869  0.2376 -0.3003
 9956W        W26140  13.414   2.425  14.310  0.3011  0.1577  0.0949
 9957W        W26141  12.281   8.547   3.874  0.1529  0.0129  0.1344
 9958W        W26142   6.956  14.539  16.082 -0.2049 -0.0794 -0.3986
 9959W        W26143   9.153  13.375   2.490 -0.1904 -0.0446  0.0311
 9960W        W26144   2.879   3.734   5.464 -0.1205  0.3959 -0.2867
 9961W        W26145   9.197   3.760  16.026 -0.1653 -0.0483 -0.0858
 9962W        W26146   8.632   9.985  13.353 -0.0242  0.0021  0.3121
 9963W        W26147   1.192   0.430  14.708 -0.0356 -0.2080  0.1895
 9964W        W26148   4.834  17.492   5.208 -0.0802  0.2724 -0.2359
 9965W        W26149  15.583   9.997   2.266  0.3895 -0.1857  0.2885
 9966W        W26150   0.567   8.969   0.129  0.4333 -0.2323 -0.0721
 9967W        W26151  14.434   5.151  16.190  0.1636 -0.3591  0.1290
 9968W        W26152  12.592   9.804   2.378 -0.0540  0.0897 -0.0015
 9969W        W26153   1.120   5.819  15.680 -0.0427 -0.2629 -0.1206
 9970W        W26154  15.347   4.566  14.109  0.3176  0.0448 -0.3033
 9971W        W26155  11.533  15.549  13.355 -0.1115 -0.2883  0.0885
 9972W        W26156  10.641   1.394   2.428  0.1733 -0.0661  0.0690
 9973W        W26157   6.113  17.672   2.241 -0.0437  0.1996  0.0302
 9974W        W26158   0.686   0.936   4.310 -0.1541  0.0364 -0.0482
 9975W        W26159  11.283   1.486  12.841  0.0797  0.0194 -0.3487
 9976W        W26160  11.129  10.827  11.750 -0.0446  0.0942  0.0241
 9977W        W26161   1.463   0.462  12.161  0.1262  0.1760 -0.0866
 9978W        W26162   8.580  13.532   0.202  0.0272 -0.2067 -0.1385
 9979W        W26163  12.912   3.354   0.525 -0.5425  0.3531 -0.1284
 9980W        W26164  14.427   5.534   4.265 -0.0990 -0.0483 -0.0025
 9981W        W26165   9.141  16.016  11.610  0.1990 -0.0060 -0.0331
 9982W        W26166  12.828  11.284   5.692  0.6069  0.2941 -0.0425
 9983W        W26167   3.283  10.394  16.659 -0.0278  0.1337 -0.1292
 9984W        W26168   3.025  16.774  15.219  0.1270 -0.0313 -0.1865
 9985W        W26169  13.110   8.320   1.005  0.1005  0.3279  0.3282
 9986W        W26170  13.065   6.026   4.835  0.2241  0.0147  0.2309
 9987W        W26171   6.180  11.676   3.635 -0.0741  0.0679  0.1176
 9988W        W26172  13.040   0.867   1.663  0.1130  0.1221  0.1955
 9989W        W26173   4.158   6.477  13.473 -0.0966 -0.0568  0.1285
 9990W        W26174   8.899   2.205  14.472 -0.4409  0.0204 -0.3375
 9991W        W26175   4.318   3.926   0.944  0.0368 -0.0759 -0.0551
 9992W        W26176  12.548  15.083   3.821  0.2029  0.1164  0.3115
 9993W        W26177  14.365   8.948  10.523 -0.0327  0.0140  0.1751
 9994W        W26178  14.203  10.807  13.185 -0.2772 -0.2701  0.3421
 9995W        W26179  11.342   4.563   0.483  0.2087  0.2043 -0.0685
 9996W        W26180   8.317  17.036  15.983  0.3033 -0.4336 -0.0701
 9997W        W26181  15.834  12.183   4.677 -0.0218 -0.1620  0.0947
 9998W        W26182   0.058   7.018   1.401 -0.2654 -0.1676  0.0248
 9999W        W26183  12.233  11.216   5.482  0.2652  0.0822 -0.1606
10000W        W26184   3.594   2.993   1.710  0.0939  0.1916 -0.0225
10001W        W26185  15.042  17.564  14.688 -0.1223  0.0933  0.2950
10002W        W26186   0.824   0.037  16.438 -0.0107  0.2073  0.2360
10003W        W26187   9.400   2.087   2.582  0.0110  0.0488 -0.5069
10004W        W26188   7.460  10.058  12.607 -0.2814 -0.1442  0.1257
10005W        W26189   3.521  13.129  11.972  0.2497  0.1141  0.1460
10006W        W26190   6.048   4.252   0.928  0.0248  0.0048  0.0488
10007W        W26191  14.187   4.197  16.420 -0.2241  0.1512 -0.0095
10008W        W26192   9.845  16.062  16.113 -0.1129 -0.2514  0.0528
10009W        W26193   4.745   8.028  14.628 -0.0920 -0.3306 -0.1653
10010W        W26194   7.513  17.645   1.126 -0.0014 -0.0215  0.0580
10011W        W26195   7.076  12.610   3.232  0.0794 -0.1881  0.1157
10012W        W26196   6.475  12.576  14.558  0.2884 -0.2798 -0.1090
10013W        W26197  10.195   2.327   2.847 -0.1263  0.2648 -0.2670
10014W        W26198   6.811   8.943   1.772 -0.0208 -0.1562  0.0698
10015W        W26199  14.660  13.250   6.009  0.0574 -0.1480 -0.1546
10016W        W26200   9.722   0.903  14.849  0.1139 -0.3454  0.2119
10017W        W26201   4.388  14.533   2.854 -0.2442  0.0017  0.1620
10018W        W26202  15.460  13.798   4.593 -0.0264 -0.1478  0.1177
10019W        W26203  14.934   7.359  13.754  0.1109  0.0349  0.0883
10020W        W26204   7.389  15.921  14.968 -0.2388  0.0348  0.0719
10021W        W26205   0.374  14.404  11.050  0.0836  0.0999 -0.0021
10022W        W26206   2.824   1.698   3.199 -0.0095  0.2310  0.1970
10023W        W26207   2.877   1.702  11.277  0.2148  0.2036 -0.0256
10024W        W26208  12.162   6.024  16.744  0.0958 -0.0603  0.2610
10025W        W26209  15.082  13.298   5.159 -0.2742 -0.2703 -0.0839
10026W        W26210   0.231  17.673  13.316 -0.2720 -0.2066  0.0826
10027W        W26211   4.765   0.910   3.165 -0.0621 -0.1810 -0.0284
10028W        W26212   7.061   4.137   4.416  0.1441  0.0319  0.0393
10029W        W26213   3.491  14.060  14.957 -0.0889 -0.2088  0.0082
10030W        W26214   8.957  16.701  14.200  0.2270  0.0904  0.1579
10031W        W26215  12.392   3.947   4.160 -0.1694  0.0880 -0.0387
10032W        W26216   7.551   3.861   5.366  0.1365  0.0769  0.0505
10033W        W26217  13.886  17.884   6.040  0.1656  0.0319 -0.0583
10034W        W26218  12.476   7.330  14.263  0.0600 -0.1871  0.1943
10035W        W26219   9.744  15.198   0.824 -0.0597  0.2427 -0.0864
10036W        W26220   1.898   7.618  11.671 -0.1771  0.0068  0.4148
10037W        W26221   5.903   5.839   4.573 -0.1083  0.1171 -0.0641
10038W        W26222   1.835   6.522  12.142 -0.3107 -0.0181 -0.2519
10039W        W26223   2.279   2.399   0.911  0.3174 -0.0771 -0.1062
10040W        W26224  17.508  16.863  13.428  0.2409 -0.0528  0.0002
10041W        W26225   5.773   5.788   1.362 -0.0283 -0.0375 -0.1428
10042W        W26226   4.217   9.424   5.211 -0.2186 -0.0648 -0.0536
10043W        W26227  11.013   6.287  16.882  0.1145  0.0401  0.0386
10044W        W26228   4.085  17.111  14.442 -0.0120  0.1234  0.3330
10045W        W26229  15.480   8.553  13.445 -0.1003  0.3290 -0.0479
10046W        W26230   8.982  13.263  14.273 -0.2182 -0.1257 -0.2334
10047W        W26231   4.913  10.912  12.185  0.3852  0.2368 -0.3302
10048W        W26232  14.327   0.029   3.896  0.2522 -0.3711  0.1736
10049W        W26233  11.467  15.601   2.111 -0.2337  0.2335  0.0312
10050W        W26234   0.061  15.075  12.991 -0.0697  0.1245  0.0526
10051W        W26235  17.116   8.321   0.501 -0.1215 -0.0419  0.3131
10052W        W26236  13.637   9.722   5.265 -0.2371  0.1550  0.0908
10053W        W26237  17.851   5.531   0.500  0.0309 -0.1399 -0.0752
10054W        W26238  15.619  10.485   2.254 -0.1280  0.1171  0.2052
10055W        W26239   7.795  15.153   3.743  0.1040  0.1714 -0.0654
10056W        W26240   3.893   5.238  12.888 -0.2482  0.0865 -0.0133
10057W        W26241   0.697   6.324   5.876 -0.3328  0.0334  0.0888
10058W        W26242   6.670   6.030  14.536 -0.0928 -0.0819 -0.1826
10059W        W26243   0.255   0.058  16.372 -0.0388  0.1077 -0.0140
10060W        W26244   7.474   9.232  16.368 -0.2739  0.2312 -0.3049
10061W        W26245   0.973   1.012  14.388 -0.2076  0.0542  0.2159
10062W        W26246   5.074   8.821   2.628 -0.0228 -0.2554 -0.1720
10063W        W26247  10.785   0.168  16.555 -0.0808 -0.1599 -0.3116
10064W        W26248   5.156   7.104   0.805  0.0423  0.0109  0.1903
10065W        W26249  16.803  10.144   1.492 -0.1071  0.0843  0.1987
10066W        W26250  12.680   7.411   3.129  0.2705 -0.3035  0.0939
10067W        W26251  17.393  13.440  12.489  0.0514 -0.0365  0.0121
10068W        W26252  13.169  15.048   4.616 -0.1692 -0.0001 -0.2715
10069W        W26253  11.741  17.460   3.790 -0.0049  0.0541  0.4103
10070W        W26254   6.422   3.945   4.657  0.2325  0.0263 -0.0599
10071W        W26255  15.095  10.738   0.213  0.2836  0.0734 -0.0639
10072W        W26256  13.148  17.695  11.829 -0.1610 -0.0394  0.4400
10073W        W26257  13.497   7.783   3.501  0.3069  0.0466  0.1101
10074W        W26258  14.453   6.516   0.267 -0.1572 -0.0549 -0.1970
10075W        W26259  10.075  11.311   4.207  0.1978  0.0112 -0.2125
10076W        W26260  16.159   8.531   1.581 -0.3383  0.0804  0.1975
10077W        W26261   8.818   7.087   5.475 -0.1560 -0.1013  0.1939
10078W        W26262  17.798   5.666   2.969 -0.2647  0.1769  0.1597
10079W        W26263  17.737   9.064  13.045  0.3091 -0.2400 -0.1276
10080W        W26264  14.086  15.497   1.707  0.0958  0.4058 -0.2074
10081W        W26265   3.650   8.700   4.376 -0.1127 -0.1864  0.1871
10082W        W26266   6.098   5.126  14.658 -0.3495  0.0084 -0.0483
10083W        W26267  16.547   1.952  16.434  0.1283 -0.1770  0.2574
10084W        W26268   9.248   2.116   2.132 -0.0937 -0.3043 -0.3623
10085W        W26269   8.400  16.737  16.898  0.0993 -0.3417  0.1498
10086W        W26270   7.857  12.177  14.907 -0.1450  0.2461  0.2640
10087W        W26271  11.750  11.484   3.660  0.1987  0.0597  0.1916
10088W        W26272   8.885   1.099   4.866 -0.0631  0.2976 -0.1193
10089W        W26273   0.127   1.778   1.833 -0.0434 -0.3094  0.3580
10090W        W26274  12.064   6.854   0.527  0.0399 -0.2005 -0.0154
10091W        W26275   7.296   0.613   3.685 -0.1048  0.3710  0.0421
10092W        W26276   2.908  15.186   2.397  0.0203 -0.0553 -0.2339
10093W        W26277   5.814  13.798   3.392 -0.0396 -0.3669 -0.2006
10094W        W26278  17.328   7.298  14.449  0.4264 -0.2536 -0.2894
10095W        W26279   4.041  10.934   0.267  0.0315  0.3260 -0.0972
10096W        W26280   1.573  12.847  15.044 -0.2077  0.0333  0.0365
10097W        W26281   2.842  14.571  10.406 -0.0052  0.2916  0.3568
10098W        W26282   4.332   3.578  15.578 -0.2195  0.2175 -0.2488
10099W        W26283   1.768   4.595   1.705 -0.1055 -0.2012 -0.1199
10100W        W26284  12.252  17.727   2.589 -0.0926  0.2423  0.0656
10101W        W26285   2.632   1.238   4.636  0.0422 -0.3168 -0.3523
10102W        W26286   5.292   8.932   3.912 -0.0096 -0.0584  0.1180
10103W        W26287   1.025  15.635   1.871 -0.1084  0.1625  0.0331
10104W        W26288  16.295  14.090  14.733 -0.0323 -0.1342 -0.0161
10105W        W26289   6.270  13.293   1.284  0.1377  0.1332  0.2266
10106W        W26290   8.900  14.517  16.064 -0.3999  0.0361  0.0331
10107W        W26291  12.452   9.768   2.910 -0.2677 -0.1028  0.1642
10108W        W26292  15.182   2.580  12.604 -0.0169  0.0557 -0.1391
10109W        W26293   8.370   0.311   3.612  0.3939 -0.2903 -0.0659
10110W        W26294  10.410  17.333   5.242  0.1523  0.0159  0.0821
10111W        W26295   4.883   8.018   4.151 -0.1063 -0.1110 -0.0093
10112W        W26296   2.547  13.164   0.037  0.2756  0.1441 -0.0395
10113W        W26297   8.325  10.155  16.801 -0.0558 -0.0754  0.2218
10114W        W26298   3.707  15.292   4.471  0.0326 -0.2517  0.1227
10115W        W26299  17.276  10.006   1.623 -0.0081  0.1914  0.0238
10116W        W26300   3.343  12.123   5.399 -0.0697  0.0458  0.0802
10117W        W26301   4.640  15.258  12.046 -0.1904  0.2241  0.0094
10118W        W26302  14.952  14.498  14.281 -0.3184 -0.1482 -0.1339
10119W        W26303  10.770   4.599  14.304  0.0802 -0.1333  0.3852
10120W        W26304  17.361  15.179   6.224  0.0829  0.0512  0.0629
10121W        W26305  14.096   0.808  12.695 -0.3325  0.0159 -0.1450
10122W        W26306   4.517   3.058   1.498 -0.2178 -0.1130 -0.1252
10123W        W26307   9.052   6.018   1.826  0.4105 -0.2750  0.0885
10124W        W26308  10.840   4.006   4.602 -0.3223  0.1432 -0.1681
10125W        W26309   3.213  12.614   1.607 -0.0892 -0.0146  0.0007
10126W        W26310  14.273   1.827  15.938  0.2705  0.0655  0.0395
10127W        W26311  17.836  15.255  14.970 -0.2666 -0.1658  0.2010
10128W        W26312  12.910  13.756   3.952  0.0491  0.0251 -0.0285
10129W        W26313  13.099   4.990  16.389 -0.2012 -0.0406  0.1457
10130W        W26314  12.733   8.164   1.979  0.1993  0.0184 -0.1350
10131W        W26315  12.093  17.556  14.246 -0.1191  0.3520 -0.0365
10132W        W26316  15.875  13.820  14.007 -0.0165 -0.3664 -0.0170
10133W        W26317  10.621   4.762  12.079 -0.0987 -0.1213  0.0407
10134W        W26318   2.736  16.535  13.621  0.1208  0.0382  0.2750
10135W        W26319  13.906  12.348   5.394 -0.0149  0.0836 -0.0705
10136W        W26320   8.816  11.886  12.308 -0.2326 -0.1330 -0.1016
10137W        W26321   5.213  13.623  11.029 -0.2266 -0.3029  0.0376
10138W        W26322  14.627   3.712  12.736  0.1581 -0.3627 -0.3050
10139W        W26323   2.389   6.518   1.941 -0.0637 -0.3194  0.1151
10140W        W26324   9.577  11.916  12.609 -0.0082  0.0313 -0.2661
10141W        W26325   8.972  15.875  15.682 -0.1188 -0.0715 -0.0652
10142W        W26326  14.291   5.893   1.723  0.0153  0.1249  0.1154
10143W        W26327  12.999   2.750  11.731 -0.0553  0.0608 -0.0834
10144W        W26328  11.602   4.348  11.267 -0.0792 -0.0724 -0.0867
10145W        W26329   1.287  12.565   5.353  0.5771  0.1913 -0.1917
10146W        W26330  14.831  10.207  12.571 -0.1070  0.2070 -0.1099
10147W        W26331   4.809  14.928  12.404 -0.2359  0.0006  0.0977
10148W        W26332   6.225   4.334   0.130 -0.1313 -0.2104 -0.0028
10149W        W26333   3.340   3.890  14.782 -0.1884  0.2027 -0.4639
10150W        W26334   2.296   4.205   2.192  0.1762 -0.0039  0.0030
10151W        W26335   3.848  11.479  15.435 -0.1168  0.1268 -0.1418
10152W        W26336   8.651   1.782  14.021 -0.3985 -0.0753  0.3255
10153W        W26337  14.310   8.746  15.393 -0.3193 -0.2084  0.2851
10154W        W26338  15.043   0.784   1.325  0.0050 -0.2315  0.2361
10155W        W26339   7.493   2.438  14.389 -0.2973  0.1361  0.0843
10156W        W26340   3.987   4.709  16.908 -0.1246 -0.1625  0.3239
10157W        W26341  10.966  10.083   0.068 -0.1125 -0.0388  0.1529
10158W        W26342   4.598  14.114   4.904  0.1744  0.0136  0.0576
10159W        W26343  17.767   4.981   1.040 -0.2951 -0.1853 -0.0342
10160W        W26344   1.167  15.471  12.489  0.0686 -0.2145  0.0375
10161W        W26345   0.811   3.830  16.625 -0.1020 -0.4126  0.2118
10162W        W26346   9.670   1.526   3.886  0.0441  0.2652 -0.1792
10163W        W26347  13.249   9.240   4.422  0.3074 -0.0386 -0.1430
10164W        W26348  17.084  15.917   4.532 -0.0598  0.3361 -0.2540
10165W        W26349   6.953   9.142  14.925 -0.2130 -0.1623 -0.2112
10166W        W26350   4.982   8.574  14.579 -0.0576  0.0519  0.0487
10167W        W26351   2.081   8.455  10.869  0.2585 -0.1540 -0.0663
10168W        W26352  13.325  10.646  12.494  0.1354  0.0039 -0.1054
10169W        W26353   0.304   8.079   2.256  0.1195 -0.1119 -0.0919
10170W        W26354   0.605  14.151   1.579  0.0089  0.0038 -0.1493
10171W        W26355   5.491   4.602  15.801  0.1499 -0.2938 -0.0999
10172W        W26356   1.780   2.433   2.422  0.1698 -0.1420  0.0126
10173W        W26357   9.584  16.288  14.201 -0.0163  0.1109 -0.0198
10174W        W26358   0.646  15.745  15.535  0.0190  0.0047  0.1428
10175W        W26359  13.791  12.867   5.003 -0.1627 -0.1983 -0.0248
10176W        W26360   3.182   2.096   1.584 -0.0126  0.1154  0.1343
10177W        W26361   3.568  17.589  11.820  0.1532 -0.1053 -0.0960
10178W        W26362  12.858  10.608   3.929  0.0763 -0.0126  0.0211
10179W        W26363   0.560  11.408  14.211  0.2447 -0.1615  0.0499
10180W        W26364  17.615   9.637   1.413  0.1499  0.0769 -0.2682
10181W        W26365   0.045   9.001   5.054 -0.0357  0.2154 -0.1342
10182W        W26366  14.572  10.562   3.829  0.2040  0.2129  0.0936
10183W        W26367   5.738   2.568  16.188  0.0102  0.0442  0.1169
10184W        W26368   0.284   0.722  12.464  0.0197 -0.0264 -0.0248
10185W        W26369  15.073   6.880  13.334 -0.0310  0.0585  0.0127
10186W        W26370   2.175  15.579  12.953 -0.2844 -0.3747 -0.2208
10187W        W26371  15.230   1.878   4.107  0.0095  0.2326  0.0369
10188W        W26372   9.911  17.183   4.041  0.1103 -0.0742  0.0151
10189W        W26373   3.935  12.390  11.277  0.3638  0.0662  0.2197
10190W        W26374  12.807   2.162  15.626  0.0101  0.0433  0.1821
10191W        W26375  10.892  10.323  13.422  0.0411  0.0172  0.2225
10192W        W26376   5.966  12.349  13.436  0.0456 -0.0071  0.1821
10193W        W26377   5.323  11.421  12.143  0.1505  0.2199 -0.5052
10194W        W26378   1.388   1.697  14.776  0.0351  0.0284 -0.2752
10195W        W26379   3.100   3.785  16.061 -0.0232  0.1053 -0.1292
10196W        W26380  14.076  16.231  12.596  0.2124  0.2309 -0.3803
10197W        W26381  15.392  17.045   2.042 -0.0288 -0.0839  0.0880
10198W        W26382  11.517   8.030  16.019 -0.1192  0.1885  0.1523
10199W        W26383  14.638   5.000   4.250 -0.1765 -0.1113  0.2489
10200W        W26384   5.236  14.920  11.645  0.3008 -0.0066  0.0905
10201W        W26385   5.142  16.950   0.794  0.4380 -0.0277 -0.0612
10202W        W26386  13.672   4.833   6.256  0.1122 -0.2378 -0.0515
10203W        W26387   4.009  10.991  13.295 -0.2954 -0.1420  0.2072
10204W        W26388   9.702   1.182   3.042 -0.2993 -0.1206 -0.1018
10205W        W26389   5.960  16.698   2.576  0.0763  0.0072  0.0631
10206W        W26390  14.896  14.845  16.446  0.4999 -0.0886 -0.1520
10207W        W26391  15.545   9.612   3.229 -0.0071 -0.0244 -0.1929
10208W        W26392   8.687   8.402  16.409  0.0602 -0.2804  0.1708
10209W        W26393   0.080   3.852   2.241  0.1525 -0.1072 -0.1248
10210W        W26394   5.503  13.147  11.747  0.0398 -0.1747  0.0425
10211W        W26395  15.676   4.161   4.192  0.1703 -0.0651  0.2789
10212W        W26396   1.792   4.251   3.322  0.2227 -0.0872  0.0299
10213W        W26397   5.852   9.627   3.302 -0.0927 -0.1264  0.0565
10214W        W26398   9.146  11.132  15.659  0.0244 -0.1255  0.0988
10215W        W26399   0.237  15.342  15.392 -0.1354 -0.0724 -0.0240
10216W        W26400   7.743   5.250  12.404  0.0091 -0.0672  0.1426
10217W        W26401  11.698  10.140   4.103  0.1467  0.1440 -0.1222
10218W        W26402   8.257   8.672  15.554 -0.0064 -0.2554 -0.0419
10219W        W26403   5.848   8.892   5.273  0.2375 -0.1415 -0.1500
10220W        W26404   8.851   9.373   3.796  0.2028 -0.0119  0.1768
10221W        W26405   5.923   5.736   1.859 -0.0478 -0.2308 -0.0228
10222W        W26406   0.028   3.920  13.682  0.2816 -0.2143 -0.1380
10223W        W26407  16.237  10.096  12.393 -0.0599  0.1071 -0.2300
10224W        W26408  12.332   3.222   5.180  0.0437 -0.1777 -0.0668
10225W        W26409   2.037  12.879   2.830  0.2109  0.0513  0.0266
10226W        W26410  11.643   1.494   0.547  0.1325 -0.1442  0.0731
10227W        W26411   1.390   7.879  12.452  0.0523  0.1040 -0.0960
10228W        W26412   1.488  16.228  16.740 -0.1034 -0.3827  0.1918
10229W        W26413  14.552  11.964   0.841  0.0269 -0.0717 -0.1957
10230W        W26414   3.298  11.349  15.999  0.1177 -0.1315 -0.0229
10231W        W26415   3.420  16.184   0.887 -0.0767  0.2646  0.1945
10232W        W26416   1.984   6.187  12.915 -0.2663  0.2509  0.0608
10233W        W26417   0.104  12.964  15.460  0.0682 -0.0975 -0.5057
10234W        W26418  14.035   5.005   3.184 -0.1098  0.1122 -0.1202
10235W        W26419  13.946   6.821   2.337  0.3835  0.2435 -0.0119
10236W        W26420   4.689  17.266   0.980 -0.1065  0.2109 -0.3186
10237W        W26421   2.871   1.109  16.459  0.2940 -0.0910  0.0146
10238W        W26422   1.160  17.759   2.066 -0.2353  0.2430 -0.1264
10239W        W26423   5.568  14.959   2.017  0.0782 -0.1067 -0.1036
10240W        W26424   4.282  10.224   4.062  0.2385 -0.2648 -0.1075
10241W        W26425  14.590  10.395   5.262  0.2905 -0.0060 -0.1413
10242W        W26426   4.263  17.743  13.253  0.0308  0.1595 -0.0590
10243W        W26427   6.924   0.314   1.426 -0.1330  0.1337  0.0563
10244W        W26428  10.511  10.918  16.817 -0.2780 -0.1862  0.0023
10245W        W26429  15.188   2.310   5.734 -0.0071  0.2245  0.2498
10246W        W26430  16.367  16.658   5.833 -0.1313  0.2530  0.1606
10247W        W26431  10.123   9.016   3.440  0.1617 -0.0221 -0.1126
10248W        W26432   4.570   9.390   5.529  0.0263  0.3541 -0.0519
10249W        W26433  14.836   5.211   0.127  0.0609 -0.0666  0.0658
10250W        W26434  15.209  11.375  13.590  0.1273 -0.1846  0.3327
10251W        W26435   1.028   5.968   5.836  0.2228  0.2342 -0.1047
10252W        W26436  12.577  13.567  13.539  0.0850  0.1532 -0.1201
10253W        W26437   5.355   8.619  15.901  0.0071  0.2070  0.0965
10254W        W26438  15.477  13.325  12.503 -0.2040  0.3216  0.3537
10255W        W26439   3.507   7.494   1.218 -0.0699 -0.2425 -0.2350
10256W        W26440   1.386   3.742  15.080 -0.1014  0.1820 -0.2685
10257W        W26441  14.737   0.080   0.296  0.1623  0.1635  0.2318
10258W        W26442  16.681  17.196   5.235 -0.1582  0.3130 -0.0973
10259W        W26443   2.315  13.352   1.481 -0.0703 -0.4011  0.0225
10260W        W26444   1.112   3.896  12.111  0.0279  0.3391  0.2428
10261W        W26445  13.883   6.716   1.579  0.0425  0.2904 -0.2963
10262W        W26446   8.221   1.824  15.435  0.2872 -0.4133  0.0517
10263W        W26447   5.618   5.178   0.071 -0.1781 -0.2208 -0.0663
10264W        W26448   1.280   2.612  16.391 -0.1191 -0.3710 -0.1286
10265W        W26449  13.205   9.438  14.278 -0.0371  0.0703  0.0950
10266W        W26450   2.534  14.724  10.860 -0.1430 -0.0460  0.1497
10267W        W26451   6.070  17.394  12.212  0.0799 -0.0803 -0.2830
10268W        W26452  11.995  11.960   4.857  0.0300  0.0207  0.1402
10269W        W26453  13.017   0.687   2.150 -0.2095  0.4454  0.0355
10270W        W26454   9.380  15.380   5.196  0.0899 -0.0827 -0.1919
10271W        W26455  13.984   4.423  13.959  0.2645 -0.1715  0.1687
10272W        W26456   3.692  14.578  10.737 -0.1066  0.0488 -0.1078
10273W        W26457  12.393  10.253  15.012  0.1286 -0.3406 -0.2935
10274W        W26458  12.826  16.448  16.590 -0.1161  0.0058 -0.1062
10275W        W26459   3.627   0.055   6.231  0.0617 -0.1233 -0.2188
10276W        W26460  10.518   0.626  15.282  0.2136  0.0185  0.1465
10277W        W26461   0.079  12.884  12.964  0.1636 -0.1186  0.2049
10278W        W26462   9.161  14.516   2.289 -0.1692 -0.0280 -0.0344
10279W        W26463   8.654   3.945   0.668 -0.1815  0.0136  0.0356
10280W        W26464   4.065   5.267  14.139 -0.0164  0.1194  0.1856
10281W        W26465   5.327   0.024  12.757  0.1297  0.0440 -0.0055
10282W        W26466   3.448   2.917  13.782 -0.2667 -0.0541  0.0140
10283W        W26467   9.303   4.416  16.279 -0.2138  0.1414 -0.0531
10284W        W26468   6.110  16.263   0.125  0.1281  0.0874 -0.1920
10285W        W26469  16.485   5.250   3.961 -0.1187  0.0824 -0.0465
10286W        W26470   0.072  10.406   4.881 -0.0178 -0.0491 -0.1580
10287W        W26471   1.634   5.403  13.175 -0.1172  0.1257  0.1037
10288W        W26472  11.264   0.580  15.506  0.2332  0.0966  0.3544
10289W        W26473   3.296   4.528   0.558 -0.2414 -0.2225 -0.0341
10290W        W26474   5.466  14.469  11.345 -0.0994 -0.0480 -0.1224
10291W        W26475   9.590  15.166  14.086 -0.1975 -0.1510 -0.0521
10292W        W26476  12.029   9.045   2.740 -0.3629 -0.2098  0.0454
10293W        W26477   1.587  17.595  14.998 -0.0677 -0.0716 -0.2734
10294W        W26478  11.441   3.617  12.442  0.4310 -0.0222 -0.0179
10295W        W26479  14.311  16.161   2.982 -0.0558  0.0079  0.1513
10296W        W26480  16.365   7.321   0.823  0.0001  0.4540  0.1768
10297W        W26481   7.893  10.344   4.384 -0.3034 -0.0318 -0.2628
10298W        W26482  17.235   3.694   3.770 -0.0124 -0.1074 -0.1892
10299W        W26483   4.770  16.081   4.766 -0.1507 -0.0068  0.1262
10300W        W26484   5.643   6.102  15.643  0.0610 -0.2972 -0.0780
10301W        W26485   6.876   1.003  16.169 -0.1867  0.1671 -0.0687
10302W        W26486   3.605   8.318   5.263 -0.1046  0.0398  0.2367
10303W        W26487   1.433  15.222  14.458  0.3530 -0.0589  0.0517
10304W        W26488  13.349   8.407  14.801 -0.0003  0.0033  0.0585
10305W        W26489  16.005   4.953  14.355 -0.0135  0.0220 -0.0894
10306W        W26490  15.593  11.490   0.718 -0.2840  0.0548  0.2811
10307W        W26491  12.154   0.938  12.666  0.0191  0.0262  0.2734
10308W        W26492   9.087  16.549   0.737  0.0736 -0.0109 -0.2487
10309W        W26493  13.448   7.467   5.737 -0.0701 -0.2022  0.1933
10310W        W26494   6.265   7.736   4.441 -0.2335  0.0872 -0.0064
10311W        W26495   7.251  13.316  10.224  0.0557 -0.2368 -0.1245
10312W        W26496   6.585  11.992   3.510 -0.1217 -0.0535 -0.2812
10313W        W26497   9.042   2.428  12.755  0.0152  0.4701  0.3973
10314W        W26498   6.226   1.282   5.031  0.2490  0.1679 -0.0800
10315W        W26499   2.405   5.752   0.118 -0.0841  0.0062 -0.0149
10316W        W26500   7.673  14.238   0.318 -0.2370  0.0549  0.0241
10317W        W26501  11.576   0.270   5.922  0.0955  0.1144  0.0064
10318W        W26502  13.184   4.075   3.554 -0.2188  0.4981  0.2864
10319W        W26503  10.940   5.600  12.187  0.0287 -0.1586 -0.1273
10320W        W26504  12.818  14.096   0.920 -0.1509  0.2702  0.1695
10321W        W26505   2.150  15.767  13.429  0.1268 -0.5054 -0.0455
10322W        W26506  13.129   4.441  14.467  0.1931  0.1104 -0.1319
10323W        W26507   1.208   0.288   1.115 -0.0196 -0.1535 -0.1413
10324W        W26508  11.469   2.874   3.747  0.2415 -0.1043  0.0192
10325W        W26509   6.112  15.377  13.788 -0.1447 -0.0551 -0.0183
10326W        W26510   2.215  10.962  15.809  0.0374 -0.0225  0.0853
10327W        W26511   2.219  13.832  11.155  0.1427 -0.0923 -0.0803
10328W        W26512   9.352  15.913  14.463  0.0726  0.0058  0.0512
10329W        W26513   0.777   7.617   2.916  0.0432  0.0430 -0.2695
10330W        W26514   5.960  12.436  14.424 -0.4477  0.0111  0.0567
10331W        W26515  17.237  11.931   2.992  0.1785 -0.3909 -0.0723
10332W        W26516   9.720   1.472   1.384  0.1397 -0.0527 -0.0726
10333W        W26517   4.432  12.133   3.838  0.1415  0.2448 -0.0242
10334W        W26518  12.946  13.799  16.776  0.1981 -0.3482  0.0200
10335W        W26519   4.498  10.272  11.658 -0.0478  0.1662  0.1965
10336W        W26520  11.400   8.706   2.412  0.2184  0.0782  0.0311
10337W        W26521  11.997   0.406  14.990 -0.3481  0.3291 -0.1026
10338W        W26522  13.542   6.578   2.559 -0.1149 -0.3356 -0.4714
10339W        W26523   8.708   7.271   0.855  0.0581 -0.0879 -0.2781
10340W        W26524  12.629  13.614   1.161  0.1146  0.0030 -0.0091
10341W        W26525  17.851  10.039   1.551  0.0609  0.0962  0.1768
10342W        W26526  14.840  17.827  11.384 -0.0660  0.0018 -0.1352
10343W        W26527   0.997   7.158  11.946  0.0942  0.0947  0.2393
10344W        W26528  12.417   1.836   2.235 -0.1937 -0.0556  0.1844
10345W        W26529   9.442   2.375   0.886 -0.1714  0.1446 -0.0155
10346W        W26530   5.815   9.789  15.222 -0.0902 -0.1495  0.0886
10347W        W26531  11.314   7.828  12.235 -0.0026  0.0856 -0.0917
10348W        W26532   0.847  10.441   2.760  0.0611 -0.1240 -0.3122
10349W        W26533   3.475   4.676  12.217 -0.2368  0.4136 -0.0907
10350W        W26534   0.103   9.094   5.740 -0.0691  0.2786  0.0103
10351W        W26535   9.518  11.481  14.150 -0.0664  0.1514  0.0361
10352W        W26536   5.277   9.876  13.039  0.0232 -0.2169 -0.2922
10353W        W26537   4.681  15.640   3.039 -0.1978  0.0299  0.1575
10354W        W26538   4.153   7.978   5.962  0.0782 -0.1701 -0.0096
10355W        W26539   2.109  10.289   3.968 -0.0465 -0.0086 -0.2746
10356W        W26540   4.619  11.728  11.042 -0.0431  0.1731 -0.1744
10357W        W26541   1.992  12.960  16.279 -0.2602  0.2279  0.0149
10358W        W26542   2.940   9.677  13.543  0.0618  0.0531 -0.1648
10359W        W26543   8.880  15.025  16.082 -0.1029  0.0676  0.1943
10360W        W26544   1.674  13.475  13.378  0.1566 -0.1453  0.1736
10361W        W26545   2.117  13.243  11.899  0.1363  0.1795  0.6111
10362W        W26546   0.059  13.233   4.503 -0.1568 -0.0004 -0.0958
10363W        W26547  13.140   2.740   2.095  0.0819  0.1227 -0.0121
10364W        W26548  12.521   8.273  14.049 -0.1225 -0.2588  0.0246
10365W        W26549   4.064   6.213  12.472  0.0234  0.3568  0.0147
10366W        W26550  10.103  17.294  12.989 -0.2409 -0.1344 -0.2161
10367W        W26551   4.293  11.665  15.255 -0.0952 -0.2338 -0.1284
10368W        W26552   6.170  14.166   4.207  0.1114  0.1784  0.0508
10369W        W26553  10.306  16.324  15.583 -0.1083 -0.0499  0.2182
10370W        W26554   1.163  13.280  10.639  0.5500 -0.2406  0.1321
10371W        W26555  14.091  13.874  12.099  0.2259 -0.1299 -0.0058
10372W        W26556  13.579  10.681   1.698 -0.1066  0.1178 -0.2243
10373W        W26557   4.773   9.164  13.255  0.0968 -0.2632 -0.0490
10374W        W26558  17.693  10.758  14.127  0.2896  0.2063 -0.2246
10375W        W26559   8.509  13.904   1.331  0.0963 -0.3314  0.2835
10376W        W26560   0.031  14.223   2.629 -0.1427 -0.0208  0.0002
10377W        W26561  12.548  13.063   3.680  0.0099 -0.1371  0.0086
10378W        W26562   5.777  17.218  13.812  0.1990  0.2437  0.1867
10379W        W26563   7.946  14.224  12.751  0.3084 -0.1495 -0.0399
10380W        W26564   8.992  13.771   5.059  0.2720  0.1784 -0.3776
10381W        W26565  17.216   3.836  10.888  0.2223  0.0003 -0.1274
10382W        W26566   3.573  14.128  15.423  0.0877 -0.0262 -0.0126
10383W        W26567   1.207   4.615  15.377 -0.1976 -0.1160 -0.1359
10384W        W26568  11.665   4.902   0.369  0.0747 -0.0628 -0.1242
10385W        W26569   9.581   0.130   5.069  0.2926 -0.1342 -0.0161
10386W        W26570  10.057  17.455   1.213 -0.1065 -0.1064 -0.0405
10387W        W26571  11.355  14.979  12.661 -0.0589 -0.2050  0.1757
10388W        W26572   4.310  14.728   1.665  0.1410 -0.2071  0.2644
10389W        W26573   4.661  15.593  11.616  0.0827 -0.0181  0.0982
10390W        W26574  10.115   8.712   1.924 -0.1889 -0.0016  0.1497
10391W        W26575  10.745   2.662  11.261  0.2663  0.1175  0.0886
10392W        W26576   0.843  14.825   4.878 -0.0057 -0.3167  0.0055
10393W        W26577   1.565   6.890   2.935 -0.2701  0.0348  0.0729
10394W        W26578   2.677   2.169  15.466  0.1098 -0.0078  0.1060
10395W        W26579  10.844  15.674   2.678 -0.1144  0.2669 -0.0771
10396W        W26580   2.671  15.555   0.345 -0.0050  0.1804 -0.2498
10397W        W26581   2.759   0.531   0.489 -0.1165 -0.3775 -0.2106
10398W        W26582   8.138   5.095   0.071 -0.0759 -0.0919 -0.1063
10399W        W26583  16.006   5.806   1.191  0.0286 -0.1570 -0.1512
10400W        W26584   3.984  10.845  13.803  0.0291 -0.0803 -0.3070
10401W        W26585  15.633  16.918  11.991 -0.0855 -0.0224 -0.1073
10402W        W26586  13.981   7.854  11.816 -0.1962 -0.1818  0.1458
10403W        W26587   5.201   9.644  16.229 -0.3516  0.2058  0.0414
10404W        W26588  11.630   5.235   1.662  0.0268 -0.2922 -0.0083
10405W        W26589  17.316  11.567  15.454 -0.5061 -0.0802 -0.0821
10406W        W26590  17.782  17.789  14.063 -0.0232  0.0741  0.3780
10407W        W26591   8.996   9.804   3.974 -0.0043 -0.3922  0.1494
10408W        W26592   4.403  12.920  12.317 -0.0611  0.2209  0.1019
10409W        W26593   9.019  11.303   4.784 -0.3035 -0.0790 -0.2912
10410W        W26594   9.768   9.462  14.280  0.0819 -0.0293 -0.1114
10411W        W26595   0.822  13.053   2.692 -0.2223 -0.0072  0.2457
10412W        W26596  10.930   9.795   5.493 -0.0044 -0.0228  0.1415
10413W        W26597   4.196   0.148  14.561 -0.1732 -0.2578 -0.1733
10414W        W26598   1.578  15.761  15.472  0.0115 -0.1898 -0.0374
10415W        W26599  11.433  10.844   6.275  0.0320 -0.1728 -0.1960
10416W        W26600  10.468   5.130  11.107 -0.0201  0.0899 -0.0326
10417W        W26601   8.630   8.598   1.149  0.0138  0.1196  0.1907
10418W        W26602  16.564   0.023   2.065  0.1600  0.0436 -0.0292
10419W        W26603  15.410   0.677  13.991  0.1609  0.0468 -0.1178
10420W        W26604   4.542  12.574   3.618  0.0350  0.0984  0.0024
10421W        W26605  13.188   6.170   2.120 -0.1811 -0.1026 -0.1114
10422W        W26606   1.965  17.698   3.452 -0.1051  0.2412  0.0130
10423W        W26607   1.848   5.101   0.563  0.0275  0.0399  0.1428
10424W        W26608  12.913  14.832  11.764  0.1303  0.2456 -0.0018
10425W        W26609   8.523  16.695  13.038 -0.2527 -0.0670 -0.1058
10426W        W26610  15.535   6.087   1.054  0.0870 -0.0812  0.0757
10427W        W26611   5.903  15.223  12.499 -0.0178  0.2713 -0.2344
10428W        W26612  10.055   0.909  15.272 -0.2739  0.1226  0.0783
10429W        W26613  14.970  11.893   4.739  0.0643 -0.3549 -0.0924
10430W        W26614  13.540   2.431   3.113  0.2861  0.2465 -0.0485
10431W        W26615   3.453   9.220   4.729 -0.0201  0.2136  0.3092
10432W        W26616  12.322  11.517  13.508 -0.1037 -0.4199 -0.0356
10433W        W26617   2.701   6.434  14.936  0.0145  0.1456  0.3664
10434W        W26618   9.542   6.695   3.944  0.0960  0.0377 -0.2812
10435W        W26619   7.819   4.348   4.994 -0.3637 -0.0283 -0.0231
10436W        W26620   3.777  12.215   5.067  0.1068  0.1357 -0.0075
10437W        W26621   6.987   3.636   4.741 -0.2338 -0.1526  0.1094
10438W        W26622   2.615  12.552   3.515  0.1488  0.2338 -0.1656
10439W        W26623  15.918   7.543   0.846  0.0885  0.0771 -0.0219
10440W        W26624  17.417   9.820  16.570  0.2892  0.2198 -0.3342
10441W        W26625  15.958  17.312  12.030  0.4772  0.1280 -0.0941
10442W        W26626  13.426  13.161   1.371  0.2022 -0.1625  0.2571
10443W        W26627  17.176  14.637  14.641 -0.0078  0.1516 -0.0644
10444W        W26628   5.421  15.113   3.709  0.1152  0.2801 -0.0468
10445W        W26629  17.056  11.697   2.561 -0.4378  0.2061 -0.3427
10446W        W26630  13.335   6.699   3.540  0.0522  0.1772 -0.0759
10447W        W26631   9.748  13.910   4.441  0.1256 -0.1166  0.1076
10448W        W26632  11.826  11.885   3.065 -0.0992 -0.0429 -0.1777
10449W        W26633   9.999   7.085  14.857 -0.1628  0.3433  0.2894
10450W        W26634   4.274   1.711   3.264  0.0262  0.1962 -0.0152
10451W        W26635  14.121   8.547   1.203 -0.1535  0.1528  0.0538
10452W        W26636   5.814   7.115   3.882 -0.3727  0.3708  0.1182
10453W        W26637   2.280   7.744   0.340 -0.1463 -0.1360  0.2481
10454W        W26638  14.935  13.923   2.941 -0.1160  0.1419  0.2081
10455W        W26639  16.955  10.557  16.821 -0.0207  0.0988 -0.0986
10456W        W26640   4.980  14.779  14.129 -0.0765  0.2281 -0.0166
10457W        W26641  15.719   4.646   4.326 -0.0053 -0.0073  0.0164
10458W        W26642   0.731   5.443   4.714  0.0635  0.1831  0.1257
10459W        W26643  16.111  13.158   3.363  0.3498  0.2719 -0.2111
10460W        W26644   4.399  10.924   6.030  0.1101  0.4734  0.0713
10461W        W26645  12.010  13.485   4.117  0.2666 -0.2874  0.1679
10462W        W26646  13.840  12.146   3.296  0.1078  0.0144 -0.0891
10463W        W26647  13.416   5.401   1.777 -0.2998 -0.1418 -0.0986
10464W        W26648  13.641  12.290  13.434 -0.0762 -0.1591  0.3209
10465W        W26649   5.841   3.930  14.710 -0.1005 -0.0405 -0.2098
10466W        W26650  15.989   4.652   2.807 -0.0489 -0.1307 -0.2415
10467W        W26651  15.976  10.117   6.410 -0.0060 -0.3377 -0.2859
10468W        W26652   6.090   4.390   5.278  0.1175  0.1471  0.0634
10469W        W26653   7.418  16.670  14.901  0.1718 -0.2221 -0.1728
10470W        W26654  11.440   8.898   4.345 -0.0499  0.3953 -0.0120
10471W        W26655   9.247   3.839   0.534  0.0453 -0.0400  0.1283
10472W        W26656   9.905   5.555   2.413 -0.1689  0.2370  0.1150
10473W        W26657   5.796   7.867  14.422  0.2330  0.0403  0.1688
10474W        W26658   6.425  14.268   4.651 -0.2102  0.1244  0.1967
10475W        W26659   5.105  14.287   4.154 -0.2163  0.0074  0.1164
10476W        W26660  14.018   5.119   4.907 -0.4125  0.0479 -0.2088
10477W        W26661   6.549   4.187  11.443 -0.1318  0.0267  0.2313
10478W        W26662   4.132  11.644   1.279  0.1515 -0.3552 -0.2196
10479W        W26663  12.840  10.047  16.756  0.0018  0.4731 -0.3031
10480W        W26664  10.903  14.284  12.508  0.2271  0.1803  0.0400
10481W        W26665   8.566   6.391   3.614  0.1574 -0.0723 -0.0918
10482W        W26666   6.108  14.281   6.362 -0.3788 -0.0855 -0.0912
10483W        W26667   0.045   7.840  14.716  0.0375 -0.0114  0.1918
10484W        W26668  11.279  17.863   1.629  0.1710 -0.1615  0.1814
10485W        W26669   9.223   0.568  12.770 -0.0288  0.1014 -0.2161
10486W        W26670   0.210  15.346  11.342  0.0764  0.1176  0.1784
10487W        W26671   2.915   4.742   1.741 -0.0119  0.3133  0.2501
10488W        W26672   9.955   5.578  16.354  0.0573 -0.1191 -0.1930
10489W        W26673   8.348  10.231   0.345 -0.2226 -0.0060 -0.2807
10490W        W26674   7.951  10.799  15.552  0.2588  0.2229 -0.2404
10491W        W26675  17.078   8.321  12.077 -0.0694 -0.0069  0.1007
10492W        W26676  16.140  15.358  15.757 -0.1255  0.1543  0.0598
10493W        W26677  14.167   7.159   0.835 -0.2905 -0.1445  0.1984
10494W        W26678   9.386  11.977   4.186 -0.0332  0.2097 -0.4644
10495W        W26679   7.808  12.434   1.311  0.2006  0.2432  0.0174
10496W        W26680   7.322   1.374   2.584 -0.0103  0.0136  0.1137
10497W        W26681  12.826  12.464  12.744  0.2615  0.0909 -0.0195
10498W        W26682   2.057   1.436   2.959  0.0565 -0.4534  0.1088
10499W        W26683  15.203   4.321   2.158 -0.0225 -0.1782  0.1619
10500W        W26684   0.425   9.846  12.662  0.0427 -0.1287  0.1930
10501W        W26685   9.060   1.813   0.106 -0.0702 -0.0212  0.0244
10502W        W26686  13.432  11.555  15.930 -0.0074 -0.1332 -0.0038
10503W        W26687   9.180   5.109  15.546 -0.0071 -0.1016  0.1127
10504W        W26688  10.029  13.988  14.953  0.0050  0.1145 -0.0605
10505W        W26689   3.093  10.433  16.180  0.2199 -0.3000  0.0663
10506W        W26690  14.264   0.233  15.942  0.0243  0.3509  0.2671
10507W        W26691   6.841  14.211  13.645  0.2025  0.3397  0.1596
10508W        W26692  10.777  11.244   0.871 -0.0540  0.2225 -0.0488
10509W        W26693  14.240   8.881  16.668  0.0113 -0.2431  0.1457
10510W        W26694   3.868   9.754  15.115 -0.0298  0.1166 -0.2066
10511W        W26695  16.565   6.208  13.348 -0.1082 -0.0472  0.0352
10512W        W26696   8.752  14.627  12.941  0.3793 -0.1917  0.0563
10513W        W26697   3.282  11.191   5.175  0.1266 -0.2530  0.2065
10514W        W26698  17.573  15.350  13.175  0.1047 -0.0794  0.0423
10515W        W26699   9.892   3.604   2.334 -0.0331 -0.1261 -0.1779
10516W        W26700   6.673  17.823   4.641 -0.2907  0.0683 -0.1819
10517W        W26701   6.274  11.498   4.970  0.0113 -0.1851  0.5974
10518W        W26702  15.961   7.851  12.872 -0.3126  0.2503  0.3371
10519W        W26703  13.053   6.015  11.473 -0.0584 -0.2971 -0.1881
10520W        W26704  10.885  12.848  16.219 -0.2412 -0.1952 -0.0509
10521W        W26705  17.202  12.704  16.025 -0.1532  0.0224  0.0659
10522W        W26706  14.495   2.378  12.461  0.2434  0.2760  0.2457
10523W        W26707   3.605  17.477   3.604 -0.1972 -0.1425 -0.1293
10524W        W26708   4.190  12.476  13.126  0.1457 -0.0156 -0.2292
10525W        W26709  10.243   1.450   2.820  0.1564  0.1035 -0.1615
10526W        W26710   6.652   4.565   1.456  0.0763 -0.1188  0.1353
10527W        W26711  13.349   0.595   0.094 -0.0269 -0.0180 -0.0842
10528W        W26712   6.416  14.261   0.465 -0.3474  0.2603  0.0150
10529W        W26713   6.618   2.350  14.128 -0.1171 -0.0369 -0.0227
10530W        W26714  10.000   2.788   0.559  0.0096 -0.0719 -0.0043
10531W        W26715   7.739  12.085  13.112  0.2386 -0.0340  0.2509
10532W        W26716   1.669   4.561   1.095 -0.1423  0.3581 -0.0706
10533W        W26717  14.982   1.715   1.919 -0.2200 -0.2982  0.2429
10534W        W26718   6.285  10.514  15.059 -0.1486  0.3918  0.1461
10535W        W26719  17.067   4.974   3.803 -0.0873  0.1514  0.1354
10536W        W26720   8.116   7.863   3.738  0.0173  0.0149 -0.0811
10537W        W26721  15.235   2.855  12.128  0.0415  0.2145  0.0387
10538W        W26722  13.329  14.551   1.288  0.2182  0.0132  0.0196
10539W        W26723   0.296  15.619   3.792  0.1342 -0.0822  0.0937
10540W        W26724  10.467   7.348  14.903 -0.1298 -0.0668 -0.0838
10541W        W26725  13.178  10.513  13.472  0.1607 -0.0689  0.0445
10542W        W26726  17.562   6.685   1.197 -0.1303 -0.2420 -0.0551
10543W        W26727  14.328  16.828   5.441 -0.1837  0.1206  0.0663
10544W        W26728   0.938  14.911   4.138  0.2236 -0.0184  0.0034
10545W        W26729   1.341   3.769  15.876 -0.1767  0.0643 -0.5076
10546W        W26730  12.925  14.317   3.606  0.1023  0.2942  0.0464
10547W        W26731  13.915  14.121  15.297 -0.3209 -0.5171 -0.2582
10548W        W26732  16.195   1.070  14.619 -0.0333  0.1705 -0.3003
10549W        W26733   0.366   5.370   0.754 -0.1940 -0.0373 -0.2359
10550W        W26734  12.275   1.455  12.458  0.0782  0.1081  0.0420
10551W        W26735   9.108   0.054   3.428  0.3293 -0.1421  0.0913
10552W        W26736   7.548  15.822  12.547  0.1632 -0.0698  0.3127
10553W        W26737   7.300  16.347   4.143  0.1547 -0.0491 -0.1296
10554W        W26738   8.545  10.733   0.461 -0.0731 -0.1911  0.2131
10555W        W26739  17.709   3.445  14.542 -0.0496  0.2597 -0.3413
10556W        W26740   9.632  16.282  14.711  0.0278 -0.0840  0.2258
10557W        W26741  15.741   5.967   2.935 -0.3453  0.3021  0.0227
10558W        W26742  17.731  14.639   0.289 -0.1099 -0.0580 -0.1576
10559W        W26743  13.350   9.333  12.862 -0.2132  0.2600  0.0042
10560W        W26744   7.984  11.410   0.030  0.1479  0.1664  0.1100
10561W        W26745   9.486  11.305   3.153  0.0566 -0.2428  0.1002
10562W        W26746   0.401   0.211  15.278  0.0842 -0.0649 -0.0178
10563W        W26747   3.178   9.311   6.055 -0.0986 -0.0530  0.3131
10564W        W26748  17.668  14.335  15.336  0.0813  0.1648 -0.1846
10565W        W26749   8.056  15.133   1.998  0.0313  0.4464 -0.2246
10566W        W26750   4.885  13.006   1.398  0.2542 -0.2633 -0.1347
10567W        W26751   0.891   9.481  15.337  0.0661  0.3076  0.1198
10568W        W26752  16.199  13.551   2.976 -0.1719 -0.0361 -0.1881
10569W        W26753   7.402   7.406  16.354 -0.2151 -0.2017  0.0109
10570W        W26754  15.931   3.691  14.899 -0.0551 -0.1565 -0.2916
10571W        W26755   6.132  11.470  13.275  0.1362  0.0260  0.0339
10572W        W26756   9.640   2.995   1.677  0.4613  0.1710  0.1016
10573W        W26757   2.251  15.907   1.413 -0.1085 -0.1151  0.1416
10574W        W26758   9.748   2.817   3.510  0.1433 -0.2997 -0.0051
10575W        W26759   1.924  13.104   1.861 -0.1099 -0.0856 -0.0455
10576W        W26760  12.078  15.253   1.765  0.2807  0.3767  0.1027
10577W        W26761  15.688   6.204   3.396  0.0211  0.1349 -0.0759
10578W        W26762  14.723  17.247  12.866 -0.0227 -0.1183  0.3627
10579W        W26763  15.288  14.825  15.939  0.3073 -0.0377 -0.1950
10580W        W26764   3.503   0.373   3.347  0.1154  0.2189 -0.2100
10581W        W26765  16.896  12.103  13.748  0.0788 -0.1488  0.1730
10582W        W26766  13.370   6.974  15.094  0.1780  0.0214  0.3576
10583W        W26767   9.734  10.928   4.228  0.1179  0.0726 -0.1920
10584W        W26768  13.047   8.050   3.136  0.2717 -0.0076 -0.0682
10585W        W26769  17.833   1.760  12.612  0.1530 -0.2375 -0.0732
10586W        W26770   0.103   8.639  12.899  0.1190  0.2215 -0.1211
10587W        W26771   6.204  12.061   6.145  0.3765  0.0112  0.0699
10588W        W26772  13.776   0.014   0.194  0.1729  0.1878  0.0516
10589W        W26773   0.369  14.884  16.188 -0.0892  0.0561 -0.2591
10590W        W26774   3.418   3.068  16.531 -0.0100 -0.0548 -0.0514
10591W        W26775   6.355  13.689   2.076 -0.2718  0.0860 -0.0495
10592W        W26776  10.837   8.976   5.249 -0.3111  0.3456  0.2013
10593W        W26777  16.952   0.571  13.373  0.0375  0.2477 -0.2903
10594W        W26778  17.192  16.584  12.100  0.1461 -0.0485 -0.2754
10595W        W26779  11.111   2.056  15.102 -0.3280  0.0642  0.0440
10596W        W26780   6.631  15.817  11.618  0.2110  0.0596 -0.2426
10597W        W26781  15.320  13.180  15.142  0.2407 -0.2361  0.3057
10598W        W26782   4.395   8.682  15.861 -0.0659  0.1053  0.0642
10599W        W26783   9.853  13.453  11.875  0.0570 -0.2024 -0.0924
10600W        W26784  14.693   3.722   3.222  0.2809 -0.1346 -0.0650
10601W        W26785   3.268   4.909   3.117 -0.1422  0.2846 -0.0910
10602W        W26786   8.493  13.895  13.520 -0.1091  0.4598  0.0301
10603W        W26787  10.299   9.925  12.011  0.0005  0.0434 -0.2433
10604W        W26788   5.474  16.217  16.885  0.1465  0.1826 -0.0667
10605W        W26789   0.635   8.453  14.769 -0.1363  0.1347 -0.0097
10606W        W26790  14.031   8.416  13.937 -0.2090 -0.2235 -0.1621
10607W        W26791  11.055   7.909   3.238  0.0582  0.0281  0.2993
10608W        W26792   5.274  17.051  11.765 -0.0274 -0.0632  0.1682
10609W        W26793  11.031   8.339  13.204  0.0016 -0.1925  0.0910
10610W        W26794   0.600   0.684   5.599 -0.0759 -0.0816  0.1054
10611W        W26795  17.733   3.438   6.033 -0.2894  0.2506 -0.0495
10612W        W26796  12.071   9.418  16.918 -0.0572 -0.1463  0.1193
10613W        W26797   0.458   9.409  12.290 -0.1895  0.2807  0.4394
10614W        W26798   9.331   1.337  14.114 -0.0145  0.0620  0.1230
10615W        W26799   4.805  12.362  13.786 -0.0335 -0.0096  0.1698
10616W        W26800   5.527   6.601   0.018 -0.0524  0.4357 -0.1902
10617W        W26801  12.177   5.902   2.726  0.0317 -0.1420 -0.1254
10618W        W26802  16.011  15.052  16.223 -0.3024  0.0318 -0.1013
10619W        W26803  14.153   9.711   5.069 -0.1613  0.2245  0.2556
10620W        W26804  15.250   1.581   1.049  0.1300  0.0664  0.1640
10621W        W26805   5.571   4.984   2.338 -0.1709  0.0884 -0.1593
10622W        W26806   9.100  16.297  15.883 -0.2511 -0.0541  0.1751
10623W        W26807   8.820  13.978  15.891 -0.0629  0.0467  0.0718
10624W        W26808  16.796   9.239  15.870 -0.0931 -0.2077 -0.0166
10625W        W26809   2.936  10.516  15.165 -0.2348 -0.0314  0.1036
10626W        W26810   3.138   6.113  14.447  0.4566  0.1434  0.0719
10627W        W26811   6.956   4.786   2.773  0.1057  0.0687 -0.3237
10628W        W26812   7.109   1.339   5.381  0.3820  0.0795  0.1080
10629W        W26813   3.824  14.296   0.518  0.1235 -0.2138  0.1024
10630W        W26814  14.444   3.677  16.414 -0.3910  0.4597 -0.0741
10631W        W26815   7.928   6.817   5.162 -0.0709  0.0296 -0.1275
10632W        W26816   4.178   6.169  16.680  0.0929  0.0718  0.2396
10633W        W26817  11.194   7.611   4.552  0.0585 -0.1424  0.2929
10634W        W26818   7.157  13.888   1.126 -0.2140  0.0425  0.1410
10635W        W26819   8.687   7.404  16.224  0.1818  0.2230 -0.0261
10636W        W26820   5.170   6.200   1.561 -0.2915  0.1128 -0.0052
10637W        W26821   7.281   9.580  15.060 -0.1873  0.3341  0.3534
10638W        W26822   3.014  10.823   2.880  0.0980  0.1718  0.0817
10639W        W26823   7.196   8.225   1.020  0.2535  0.0946 -0.2374
10640W        W26824  10.396   4.282   0.738 -0.0504 -0.1400  0.0167
10641W        W26825   2.569   0.017   5.055 -0.0561  0.0891  0.0824
10642W        W26826   3.302   4.607  12.726 -0.2425  0.3741 -0.2266
10643W        W26827   1.903  13.436  16.563 -0.0825 -0.1921  0.1009
10644W        W26828  10.624  13.163   1.105  0.1707  0.1611  0.3755
10645W        W26829  15.258  16.054  13.016 -0.4308 -0.3645  0.2338
10646W        W26830  15.386   6.093  14.965 -0.0840  0.1032  0.1170
10647W        W26831   6.840   7.277   5.874 -0.0537  0.1167  0.0440
10648W        W26832  12.146   4.581  14.323  0.0256  0.1093 -0.1104
10649W        W26833   0.630   7.531  11.976 -0.1727 -0.0020  0.1819
10650W        W26834  16.427  13.210   5.241  0.2629  0.0830  0.1899
10651W        W26835  10.304   8.663  14.256 -0.0060  0.0922  0.1532
10652W        W26836   5.128  12.058  14.647  0.1281 -0.0705 -0.2357
10653W        W26837  14.185   3.490  13.757  0.0067  0.2319  0.3845
10654W        W26838   4.152  10.212   3.093  0.0841 -0.2793 -0.2089
10655W        W26839   5.254   2.102   5.390 -0.1602  0.0677 -0.2052
10656W        W26840   9.368   3.746  13.772 -0.1683 -0.0950 -0.0551
10657W        W26841   6.695   0.339  15.454 -0.2494 -0.0926 -0.2633
10658W        W26842  12.055   3.460   6.116  0.0985  0.2613 -0.1272
10659W        W26843  15.637   5.299  14.842 -0.2369  0.1556  0.0615
10660W        W26844   1.205  15.887  13.715 -0.1418  0.1144  0.2804
10661W        W26845  15.555   3.608  13.208  0.0680  0.1138 -0.2651
10662W        W26846  15.332   0.481   3.293 -0.0731  0.2188  0.3367
10663W        W26847  13.412   7.027  14.239 -0.2760 -0.1081 -0.2199
10664W        W26848   3.690   6.018  16.718 -0.1345 -0.3413  0.1060
10665W        W26849   0.624   8.207  13.512 -0.1817 -0.3265 -0.0790
10666W        W26850  11.770   4.823  15.205  0.1007  0.3645  0.1985
10667W        W26851   3.890  10.448  11.646 -0.2456  0.0644 -0.0852
10668W        W26852  15.587  10.312  13.032 -0.1228 -0.3662 -0.1310
10669W        W26853  16.360   4.601  14.337 -0.1265 -0.1936 -0.2777
10670W        W26854   7.095  13.569  11.378  0.1127  0.3046  0.0902
10671W        W26855  15.015  15.426   4.186  0.0674  0.1260 -0.1154
10672W        W26856  17.117  12.406  12.386  0.1294 -0.1276 -0.0047
10673W        W26857   5.820   3.450  15.569 -0.0369  0.2475 -0.1867
10674W        W26858  15.220   3.273  11.819  0.2745 -0.1136 -0.3466
10675W        W26859   0.001   3.674   0.060 -0.1269  0.2008  0.1623
10676W        W26860   3.550   2.757   3.992 -0.0004 -0.0011 -0.0513
10677W        W26861   7.299   8.173   3.350  0.0739 -0.2045  0.1205
10678W        W26862  11.789   7.139   6.256 -0.1358 -0.1223  0.0830
10679W        W26863  15.183   0.713   2.593 -0.3883  0.2441  0.0726
10680W        W26864   7.133   1.397   4.785 -0.2434 -0.3392  0.0734
10681W        W26865  15.695  17.543   3.120 -0.2106  0.2722 -0.1709
10682W        W26866  15.245  13.064   3.281  0.1825 -0.3755 -0.2388
10683W        W26867   7.454   1.412  14.741  0.0764 -0.0352 -0.2196
10684W        W26868  16.222  17.096  15.112  0.1129 -0.0731 -0.0739
10685W        W26869   9.187   5.550   6.042  0.1804  0.1228 -0.1353
10686W        W26870  12.407   3.395  14.104 -0.0017 -0.0804  0.0910
10687W        W26871   5.147   5.949   5.800 -0.2000 -0.2531 -0.1789
10688W        W26872  13.296  16.673  15.362 -0.1387 -0.3015 -0.2009
10689W        W26873  12.925   2.590   2.877 -0.2178 -0.2737  0.5242
10690W        W26874  14.713  11.194   3.264 -0.0773  0.0396  0.1748
10691W        W26875   9.398   9.825  16.665 -0.2017 -0.0500 -0.2384
10692W        W26876  13.164   2.543   0.543  0.2776  0.1529  0.1335
10693W        W26877   3.388  14.498   5.890  0.0134  0.0695  0.0085
10694W        W26878  10.206   6.582   1.391 -0.1976 -0.0156 -0.2200
10695W        W26879  16.825  12.789   4.827 -0.1744 -0.0004  0.1045
10696W        W26880  10.062   8.882  13.131 -0.1056 -0.0931 -0.1641
10697W        W26881  16.798   3.270   5.359  0.2053  0.0166 -0.2834
10698W        W26882   8.359  10.633   6.246 -0.2396 -0.0297 -0.4076
10699W        W26883  14.684   2.652  14.890  0.0413  0.3476 -0.4120
10700W        W26884   1.706   7.214   4.763  0.0405 -0.0943 -0.3121
10701W        W26885   4.619   4.423   3.494 -0.0942 -0.3123 -0.3568
10702W        W26886  14.849   8.788   1.564 -0.1594 -0.2674  0.0069
10703W        W26887  10.966   6.812   2.617 -0.0306 -0.1375  0.0089
10704W        W26888  16.026   4.157   2.638  0.0274 -0.0017 -0.2868
10705W        W26889  16.397  15.772   5.923 -0.2313  0.0475  0.1726
10706W        W26890   4.616  17.165  14.486  0.0336 -0.0888 -0.1088
10707W        W26891  12.470  17.013   4.870 -0.0443 -0.1935 -0.0183
10708W        W26892  11.231  16.892   1.567  0.0784  0.1820  0.0091
10709W        W26893   3.040   6.299   0.654  0.1287 -0.1419  0.2164
10710W        W26894  17.219   0.969  12.560  0.2176 -0.1761 -0.0389
10711W        W26895   5.452  14.157  13.457 -0.0050 -0.1184  0.2654
10712W        W26896   9.115  11.835  14.093  0.2556 -0.1477 -0.1214
10713W        W26897  10.055  14.557  12.712 -0.3007  0.0050  0.1397
10714W        W26898   1.606   2.094  15.189  0.0515  0.0338 -0.3086
10715W        W26899   0.213   8.409  13.777 -0.0092 -0.1626  0.2359
10716W        W26900  13.493   4.140  13.670 -0.1469  0.0670 -0.0210
10717W        W26901   2.548  12.593   5.000 -0.0667  0.0552  0.0710
10718W        W26902   4.992  11.442  14.669  0.2687  0.0438 -0.1529
10719W        W26903   3.308  10.483  12.263  0.1537  0.0458  0.0416
10720W        W26904   9.252  17.432  12.273 -0.0035  0.1144 -0.1258
10721W        W26905  14.353   1.605  16.434  0.0665  0.0695 -0.0091
10722W        W26906   6.642   9.129   2.936 -0.0848 -0.1467 -0.3796
10723W        W26907   2.979   9.027   4.804 -0.2941  0.0431  0.0359
10724W        W26908   0.691   9.570   0.193  0.0497 -0.0800 -0.0168
10725W        W26909   8.154   1.895   2.815 -0.1281 -0.2054  0.3762
10726W        W26910   1.335   6.927  13.005  0.1265  0.0043 -0.1399
10727W        W26911   6.642  10.037   4.257 -0.1813 -0.3237  0.0853
10728W        W26912   4.011   9.521  14.636  0.3960 -0.0223 -0.0077
10729W        W26913   0.901   6.944   3.623 -0.0237  0.2789 -0.0362
10730W        W26914  10.963   9.630  11.890 -0.2338 -0.2056 -0.0376
10731W        W26915  17.686  13.477   1.967 -0.2316 -0.0103  0.2385
10732W        W26916  16.617  10.021  14.446 -0.1038 -0.1019 -0.2828
10733W        W26917   7.994  14.045   5.571  0.1291  0.0569  0.1806
10734W        W26918   6.449  12.460   4.994  0.2027 -0.1338 -0.1881
10735W        W26919  10.022  11.438  13.958 -0.4206  0.2375  0.1122
10736W        W26920   0.190   8.710  14.724 -0.0674  0.5704 -0.0374
10737W        W26921  15.477   7.476   1.113 -0.2702 -0.0697 -0.1173
10738W        W26922   3.360  12.828  16.210 -0.1626  0.1399 -0.0391
10739W        W26923  14.397   8.644   3.542  0.2811 -0.0425  0.0725
10740W        W26924  15.138   3.221  11.357 -0.1644  0.0139 -0.0697
10741W        W26925  17.280  17.502   3.935  0.2884 -0.1018 -0.0648
10742W        W26926   3.188  13.984   1.017  0.2861 -0.0003  0.0300
10743W        W26927  17.089  10.046   5.267  0.2552  0.0280 -0.0065
10744W        W26928  10.511  17.643  14.038  0.1210 -0.1669  0.0443
10745W        W26929   1.353  13.870  13.357 -0.2512  0.0221 -0.0544
10746W        W26930   8.316   4.732   2.280 -0.1857 -0.1163  0.0119
10747W        W26931   3.781  15.117  16.113  0.0618 -0.1853  0.0636
10748W        W26932   4.644  15.112  12.936  0.1280  0.0164  0.0849
10749W        W26933  16.441  16.112  12.019  0.3174  0.0696  0.2267
10750W        W26934   7.716  13.769  13.900 -0.0232  0.2724 -0.0739
10751W        W26935  12.749  10.725   2.757  0.1767 -0.0911 -0.0617
10752W        W26936   8.386   0.841   3.604 -0.3383 -0.0092 -0.1349
10753W        W26937   8.979  12.718  12.402 -0.1917  0.2311 -0.0295
10754W        W26938   5.907  10.000  11.850 -0.3897  0.0049 -0.2946
10755W        W26939   0.007   8.651   5.510 -0.2028  0.0789  0.3883
10756W        W26940   7.241  13.532  15.118 -0.0838  0.2387 -0.2295
10757W        W26941   3.865  15.924   0.908 -0.1530  0.2489 -0.2055
10758W        W26942  13.279   7.698   5.311 -0.1784 -0.1653 -0.2899
10759W        W26943  10.090  12.418   0.946 -0.0481  0.0210  0.3277
10760W        W26944   5.759  12.678  12.815  0.1439 -0.0928  0.3801
10761W        W26945   6.143   6.929  13.391 -0.1370  0.3262  0.0126
10762W        W26946   5.816  17.205  15.767  0.0748 -0.3465 -0.1305
10763W        W26947  16.773   5.411  11.723 -0.1735 -0.2085  0.2819
10764W        W26948   7.587  11.535  12.320  0.2829  0.1521  0.2504
10765W        W26949   3.392   6.966   1.256 -0.2253 -0.1484 -0.1665
10766W        W26950   5.251   9.031   5.698  0.0007  0.0150 -0.1003
10767W        W26951  16.490   6.509   0.171 -0.0452  0.0791 -0.0127
10768W        W26952  16.284  15.735  14.034  0.2419 -0.1834 -0.1816
10769W        W26953   6.969  15.863   1.447  0.0571  0.0103 -0.2518
10770W        W26954  15.583  11.774  13.300  0.1005 -0.0666 -0.1133
10771W        W26955   0.370  11.824   4.773 -0.2920 -0.0286 -0.2759
10772W        W26956  13.663  11.198  11.378 -0.1507 -0.1048 -0.0427
10773W        W26957  12.783  11.766   1.074  0.1674  0.0581  0.2243
10774W        W26958  16.053   0.621   1.325 -0.0287 -0.1072 -0.0249
10775W        W26959   8.489   9.298  14.048 -0.0012 -0.0430 -0.0400
10776W        W26960   5.573   8.652   5.627  0.1714  0.2936 -0.2870
10777W        W26961  13.076   2.533   4.764  0.1813 -0.3882 -0.2677
10778W        W26962   4.936  15.997   0.653  0.0493 -0.5783 -0.1687
10779W        W26963  14.553   0.745   1.042 -0.3477 -0.2139 -0.2277
10780W        W26964   5.476   1.336   1.529 -0.2368  0.0206  0.0023
10781W        W26965  14.208  10.996  14.434 -0.0937  0.0950 -0.1333
10782W        W26966   5.084   9.754  15.311 -0.0430 -0.1620  0.0049
10783W        W26967   1.039   0.586  14.086 -0.0711 -0.0171 -0.3326
10784W        W26968   1.949   0.590  11.848 -0.1297  0.2615 -0.0422
10785W        W26969   1.765   6.445  14.202  0.5905 -0.2165  0.0746
10786W        W26970   8.082  11.955  14.177  0.1930 -0.0965  0.1048
10787W        W26971   4.498  13.263   4.946 -0.2355  0.0215 -0.0885
10788W        W26972  10.556   9.056   4.345  0.0900 -0.0249 -0.1157
10789W        W26973   8.374   3.590  16.656  0.0730 -0.0438  0.3772
10790W        W26974  13.568  17.080   1.104 -0.0038  0.4380 -0.0801
10791W        W26975  12.570  10.687  11.454  0.0444  0.0664  0.1683
10792W        W26976   6.336   8.346   4.487 -0.1965 -0.0985 -0.0686
10793W        W26977   9.414  11.805   3.710 -0.1410  0.5001 -0.1141
10794W        W26978   1.924   6.707   2.119  0.0413  0.2280  0.0686
10795W        W26979   1.632   0.611   1.920  0.3918 -0.2284  0.4542
10796W        W26980   6.881  14.038  12.584 -0.0658 -0.4195  0.0966
10797W        W26981   3.574   8.538  14.678  0.0805 -0.1983  0.2123
10798W        W26982   2.005  17.816   0.860  0.1017  0.0266  0.2948
10799W        W26983   1.089   5.010  14.022 -0.1398 -0.0026  0.1987
10800W        W26984   5.901  15.885  13.944 -0.0465  0.2406 -0.2073
10801W        W26985  12.145  12.991   3.268 -0.2238 -0.4156 -0.1799
10802W        W26986  13.534  13.703  16.023  0.2074 -0.1527 -0.3383
10803W        W26987  14.252  11.255   2.562  0.1489  0.0836  0.2431
10804W        W26988   9.793   3.301   4.426  0.0873  0.0119 -0.0199
10805W        W26989   9.675   5.636  12.624  0.0290 -0.3783 -0.0605
10806W        W26990  10.104   6.516   1.934 -0.3967  0.2984 -0.0441
10807W        W26991   6.052   2.284  14.411 -0.1217 -0.0695 -0.0104
10808W        W26992  15.026  12.494  15.873 -0.0592 -0.0261 -0.1964
10809W        W26993   8.671   9.735  15.408 -0.1296 -0.0794  0.1336
10810W        W26994  14.219   5.957   4.075  0.1382 -0.1651 -0.0999
10811W        W26995   1.001  16.512  13.580  0.0117 -0.0065 -0.3931
10812W        W26996   8.122  16.832  10.244 -0.0917  0.2377 -0.0769
10813W        W26997  16.822   3.773  13.228 -0.0239 -0.0159  0.5047
10814W        W26998  13.196   0.835   2.700 -0.4521  0.0650  0.0309
10815W        W26999   0.482  16.220   4.732 -0.0887 -0.4148 -0.2390
10816W        W27000  14.817  11.151  13.248 -0.0556  0.0474 -0.2903
10817W        W27001   1.682   3.398   4.452  0.0845  0.0625 -0.1004
10818W        W27002   4.688  14.423   3.550  0.1346  0.1365 -0.0871
10819W        W27003  12.847  15.822   1.673  0.1111 -0.0262 -0.1148
10820W        W27004  12.236   4.294   3.578 -0.0452  0.0132 -0.0677
10821W        W27005  13.659   4.303   4.561  0.1885 -0.0826 -0.0641
10822W        W27006   0.899  15.832   4.585  0.1865 -0.0136 -0.0721
10823W        W27007  12.584  10.571  15.437 -0.1866  0.0548 -0.1111
10824W        W27008  12.190   5.091  16.353  0.0733 -0.1885  0.0380
10825W        W27009  14.220  16.746   3.571 -0.1830 -0.0126 -0.0532
10826W        W27010  14.854  17.296   2.282 -0.0768 -0.2137  0.2883
10827W        W27011  15.934   9.517   4.010 -0.0035  0.0081 -0.0171
10828W        W27012  15.260  15.156   3.221 -0.0073 -0.2351  0.0039
10829W        W27013  14.582  10.491  16.173  0.1890  0.2347 -0.0352
10830W        W27014  11.739  12.014  12.337  0.1150  0.1025  0.3272
10831W        W27015  16.953   7.257   1.489 -0.1621 -0.0424 -0.0627
10832W        W27016  17.617   6.496  12.158  0.1707 -0.0721  0.2099
10833W        W27017  13.958   3.666   0.164 -0.3536  0.2628  0.0597
10834W        W27018  12.070   1.464  15.945  0.0920  0.0203  0.0702
10835W        W27019   8.928  10.837   2.955  0.3585  0.0645  0.1211
10836W        W27020   6.604  17.732  15.300  0.2500 -0.1117  0.2658
10837W        W27021   4.836   5.340  15.219 -0.0262 -0.0780 -0.0852
10838W        W27022   6.136   2.487   1.604 -0.2404 -0.3052 -0.1647
10839W        W27023  10.946   7.879   2.233 -0.0413  0.0220  0.0845
10840W        W27024   8.172  17.571   3.385 -0.0978  0.0106  0.0421
10841W        W27025  13.720   3.748  11.687  0.0647  0.1118 -0.2467
10842W        W27026  10.750   4.041   2.975 -0.1412  0.2387 -0.1359
10843W        W27027   1.880  15.234   0.668  0.0299  0.2690  0.2349
10844W        W27028  14.173  16.381  11.900 -0.1504  0.1836  0.0778
10845W        W27029  12.871  14.898   0.260  0.0228  0.1846 -0.0237
10846W        W27030   8.116   3.984  11.932  0.0135  0.0411 -0.2271
10847W        W27031   0.834   1.918   4.639 -0.2616 -0.4109 -0.2676
10848W        W27032   2.067  14.761  11.261 -0.0543  0.0373 -0.0453
10849W        W27033  10.032   0.523   1.049  0.1947 -0.0197 -0.0707
10850W        W27034  13.357  13.219   5.232 -0.3391 -0.3530 -0.1882
10851W        W27035  17.476  13.408   0.611  0.3041  0.0286 -0.0353
10852W        W27036  17.423   8.957   5.092 -0.2525 -0.0489  0.1202
10853W        W27037   5.773  10.181  12.793 -0.0309 -0.5684 -0.0730
10854W        W27038   8.343   3.651  15.089  0.2884 -0.0403  0.0560
10855W        W27039  13.473  11.553  15.408  0.0158 -0.2799  0.0155
10856W        W27040  15.786   5.647   3.382 -0.1214 -0.2561  0.4356
10857W        W27041   2.145   6.087   3.323  0.2646 -0.2064  0.1448
10858W        W27042  14.424   8.912  12.148  0.3011 -0.2181  0.1504
10859W        W27043  10.870   2.719   2.972 -0.2816  0.0717 -0.2238
10860W        W27044   0.305   7.249  16.009  0.0213 -0.0076 -0.1649
10861W        W27045   9.691   9.016  11.736  0.2788 -0.0638  0.0185
10862W        W27046  10.672  10.722   3.091 -0.0162 -0.1717  0.1612
10863W        W27047   3.299   0.060  16.136 -0.1599  0.0863 -0.1140
10864W        W27048  15.625  14.701  16.306 -0.0378  0.4222  0.0248
10865W        W27049  15.196  17.542   1.410  0.0063 -0.0246 -0.1621
10866W        W27050   4.820   4.895  16.728 -0.0400  0.2150 -0.0846
10867W        W27051  10.475  10.182   3.877  0.2048  0.0158 -0.1053
10868W        W27052   7.167  12.950  16.704 -0.1979  0.2285 -0.0008
10869W        W27053  15.197  15.494  16.059  0.2198  0.1450  0.3384
10870W        W27054   2.555   1.314  13.344  0.3363  0.1343  0.0607
10871W        W27055   1.818   4.411   2.527  0.1428  0.0829 -0.1218
10872W        W27056  17.538   6.615  16.269 -0.1017 -0.0481 -0.0544
10873W        W27057  16.542  16.014   2.808 -0.0207  0.2580 -0.0561
10874W        W27058  11.582   4.806   3.286  0.3460  0.0493  0.1571
10875W        W27059  17.166   0.667  14.659 -0.0197  0.5480  0.0922
10876W        W27060  11.544   7.002   3.263  0.1243 -0.0417 -0.0533
10877W        W27061  15.962   8.476   4.418  0.0505 -0.0526  0.0276
10878W        W27062   9.686  10.143  13.841  0.2879 -0.2877  0.0057
10879W        W27063  15.781  10.960   2.430  0.2221  0.2193 -0.0117
10880W        W27064  10.849   8.558   5.678 -0.2421 -0.2072 -0.2481
10881W        W27065   8.558   7.785  12.546 -0.2692  0.0418  0.1602
10882W        W27066  11.340   3.880   2.132  0.2457 -0.2247  0.0133
10883W        W27067   2.823   4.202   1.570 -0.1208 -0.0022  0.3211
10884W        W27068  16.289   6.354   0.595  0.2450 -0.1146  0.1527
10885W        W27069  12.353  17.576   5.063 -0.0823 -0.1580  0.1478
10886W        W27070   7.633  12.848   1.571  0.1891  0.2110  0.2364
10887W        W27071   1.386  14.462  15.068 -0.3061  0.0683 -0.1105
10888W        W27072  11.013   8.738   2.877 -0.0607 -0.1931  0.2600
10889W        W27073  13.045  11.836   0.352 -0.1578  0.0097 -0.1401
10890W        W27074  15.722   8.423   0.335 -0.3572  0.1584  0.1343
10891W        W27075   3.949   6.929  13.346  0.3540 -0.1797 -0.0360
10892W        W27076  15.112   2.826   1.327 -0.0310  0.0141  0.0556
10893W        W27077   1.882  10.705   4.076  0.1877  0.0181  0.0510
10894W        W27078  14.204  11.652  13.839 -0.3939  0.0560 -0.1968
10895W        W27079  10.639  16.439   3.375 -0.1022 -0.0439  0.0884
10896W        W27080   6.865   9.212   3.921  0.0377  0.2285  0.2740
10897W        W27081   2.888   2.146   2.427  0.0481 -0.0133 -0.0996
10898W        W27082   7.692   1.497   3.505 -0.2748 -0.0993  0.5228
10899W        W27083  11.120  11.493  16.692 -0.1665  0.0431  0.2933
10900W        W27084  11.805  17.513  16.419 -0.1034  0.0478  0.2302
10901W        W27085   7.681  12.825  13.782  0.1283  0.0501  0.1212
10902W        W27086   0.777   1.158   5.408  0.0560 -0.2915  0.2528
10903W        W27087  12.763  17.312  12.296  0.1950  0.0352 -0.2213
10904W        W27088  15.321  17.213  15.563 -0.0552 -0.1145  0.0196
10905W        W27089  14.704  12.319   4.238 -0.0332  0.2363 -0.1024
10906W        W27090   9.759   3.210  15.013  0.0333  0.0352  0.2338
10907W        W27091  15.383   4.418   0.528  0.2241 -0.1305  0.1003
10908W        W27092  16.082   7.939   3.540 -0.1007 -0.1410 -0.1233
10909W        W27093  11.653   2.655  14.794 -0.0060 -0.2451 -0.1757
10910W        W27094   3.631   5.599  16.466  0.2917 -0.2432 -0.0099
10911W        W27095   1.408  11.644  13.031  0.0192 -0.2522 -0.1947
10912W        W27096   8.911   5.199  13.945 -0.1300 -0.0619 -0.0637
10913W        W27097   0.984  10.298  16.460  0.2030  0.0464  0.1726
10914W        W27098  16.931   3.596   4.120 -0.1606  0.0259 -0.4344
10915W        W27099   4.164   3.362  14.614  0.1577  0.2449 -0.1556
10916W        W27100   9.807   4.192   4.988  0.0103  0.3172  0.1324
10917W        W27101  13.773  15.424   2.675 -0.1334 -0.0813 -0.2336
10918W        W27102   0.005  16.456  16.923  0.0898 -0.0131  0.1181
10919W        W27103   2.441   2.563  13.929  0.0688  0.1424  0.0003
10920W        W27104   8.716   3.376   1.485 -0.1528  0.1412 -0.0228
10921W        W27105  10.615   8.320  11.665  0.0500  0.2104 -0.0694
10922W        W27106   0.479   4.740  13.289 -0.0703  0.0448 -0.1448
10923W        W27107   8.195  14.484  16.542 -0.2764 -0.3786  0.1149
10924W        W27108   4.617   5.044  13.926  0.0514  0.2535 -0.1281
10925W        W27109   7.379   6.232   3.803 -0.2816  0.1649 -0.0226
10926W        W27110   8.196  16.287  14.343 -0.0272  0.1713 -0.2335
10927W        W27111   5.333   6.439  13.757  0.1671  0.1520 -0.3127
10928W        W27112  14.987   4.845   4.871 -0.3920  0.1685 -0.1809
10929W        W27113   0.879   5.163   5.847  0.0943 -0.1010  0.3292
10930W        W27114   1.360   0.699  16.617 -0.1026 -0.2801 -0.0517
10931W        W27115   3.063   7.536   4.533  0.0203  0.0316  0.0859
10932W        W27116   5.306   1.655   3.384  0.1771 -0.0807  0.0522
10933W        W27117   6.935   4.929  13.630  0.2496  0.0915  0.0174
10934W        W27118   2.084   7.188  15.030 -0.1305  0.0168 -0.0927
10935W        W27119   3.797  11.592   2.659  0.3059 -0.0609 -0.1028
10936W        W27120   4.498   8.370   1.889  0.3566  0.3976 -0.0265
10937W        W27121   9.816  16.025   0.993  0.3439 -0.0750  0.0414
10938W        W27122  13.234   8.765  12.685  0.2462  0.0242 -0.1075
10939W        W27123   4.434   0.500  13.823  0.0483 -0.0250 -0.1759
10940W        W27124  14.189  17.213   3.364 -0.0443  0.0652  0.1386
10941W        W27125   9.552   0.245  13.101  0.3430 -0.1222  0.1566
10942W        W27126   8.979  14.414   4.269 -0.3171  0.0133 -0.0243
10943W        W27127   9.050   8.334  13.193 -0.1048  0.0904 -0.1731
10944W        W27128  17.329  11.903  16.567 -0.1101 -0.0168  0.0963
10945W        W27129   8.366  13.769   3.394 -0.0481  0.0924 -0.1385
10946W        W27130   7.453   9.696  15.500 -0.3039 -0.0987 -0.1451
10947W        W27131   5.021   9.112  16.925  0.1410 -0.1900 -0.0693
10948W        W27132   0.971  13.757   5.430  0.0320  0.2090 -0.1354
10949W        W27133   9.238   0.236   2.505  0.3765  0.3169 -0.3158
10950W        W27134   2.992   5.117  11.903 -0.0056 -0.1460  0.0450
10951W        W27135  15.515  14.410   1.388 -0.0548 -0.0252 -0.2757
10952W        W27136  11.251   3.806   2.904 -0.1033 -0.0765 -0.0928
10953W        W27137   0.548  15.804   2.128 -0.0939 -0.1957 -0.1786
10954W        W27138   1.193   1.046   3.253  0.2128  0.0927 -0.2197
10955W        W27139   5.780   5.777   3.984  0.1232 -0.1185  0.0228
10956W        W27140   8.605   4.926  15.521  0.1751 -0.2099  0.2953
10957W        W27141   3.294   1.653   5.802 -0.2914  0.1730  0.3328
10958W        W27142  13.739  16.893  13.038  0.0886 -0.0225 -0.3448
10959W        W27143   7.216  11.953   2.185  0.2426 -0.0840 -0.1018
10960W        W27144  14.965   8.153  16.258 -0.1247  0.2193 -0.1030
10961W        W27145   1.143   9.220  14.439  0.3040 -0.0240 -0.1819
10962W        W27146  16.998  10.519   1.775  0.2978 -0.2826 -0.4547
10963W        W27147   3.880   6.247   5.957  0.1513  0.4000  0.2437
10964W        W27148  12.030  13.538  13.712  0.1655 -0.2356  0.0300
10965W        W27149  11.849   9.424  13.738  0.2058 -0.0293  0.1235
10966W        W27150  12.146  16.686   5.173  0.1806  0.0902 -0.1538
10967W        W27151  13.651  14.036   2.072  0.1290  0.1309 -0.1295
10968W        W27152  11.612  16.239   4.019 -0.0595  0.2531  0.0463
10969W        W27153   6.790   1.779  12.503  0.0619 -0.0319 -0.0200
10970W        W27154   0.001   6.904   2.670 -0.0950 -0.1581 -0.0772
10971W        W27155   5.982   3.695   3.459 -0.1963 -0.0645  0.0813
10972W        W27156   4.625   0.084  13.575  0.2386 -0.1943  0.2125
10973W        W27157   6.813  13.183  13.667 -0.1947  0.2431 -0.0106
10974W        W27158   3.934   2.473  12.871  0.1082 -0.0003  0.0153
10975W        W27159   3.222  16.930   4.014 -0.6466  0.0304 -0.0658
10976W        W27160  13.632   6.244  12.133 -0.2263 -0.1399 -0.1796
10977W        W27161  16.760  10.052  12.464  0.0589  0.2669  0.1484
10978W        W27162  16.331  14.868  12.811  0.1339 -0.1326  0.0775
10979W        W27163  14.248   0.369   1.270 -0.0762  0.0478  0.1038
10980W        W27164   0.175  11.347  11.598  0.0947 -0.2957  0.0800
10981W        W27165   3.899  16.979  14.882  0.1283 -0.1284 -0.1043
10982W        W27166  11.174   9.908  15.270  0.4222 -0.1215  0.1061
10983W        W27167   7.028   0.565   3.287  0.0711 -0.0904 -0.0468
10984W        W27168  10.970   3.926   2.487  0.1794 -0.2489 -0.1494
10985W        W27169   1.952  13.565   4.296 -0.1321 -0.0261  0.0010
10986W        W27170  13.069   6.471   6.003  0.1797 -0.0183  0.2293
10987W        W27171  16.072   0.685   5.131 -0.0130 -0.0276 -0.2001
10988W        W27172   3.326  13.269  16.037 -0.1182  0.1102 -0.3290
10989W        W27173   2.770   4.709   2.219 -0.0017  0.0649  0.0054
10990W        W27174   1.626  10.223  14.437 -0.0880 -0.0333  0.2627
10991W        W27175  11.034   3.490  16.217  0.1337  0.1853 -0.1487
10992W        W27176   8.228  10.671   1.409 -0.0314  0.1565  0.1806
10993W        W27177   8.776  11.988  11.465 -0.3814  0.0185  0.0909
10994W        W27178  12.639   2.934  14.026  0.1186 -0.1790 -0.3286
10995W        W27179  16.265   5.488  12.935 -0.0111 -0.1931  0.2735
10996W        W27180   6.477   2.882   1.518  0.0321 -0.1893  0.1573
10997W        W27181  16.138  10.664   4.798 -0.2957 -0.0584  0.0372
10998W        W27182   7.914  13.395  14.338 -0.4546 -0.0484  0.0566
10999W        W27183  11.225   5.180   3.248  0.2490  0.0478  0.1066
11000W        W27184  16.320  15.808  12.348 -0.2009 -0.2891  0.0993
11001W        W27185  16.029   9.791  12.011 -0.1372  0.0714 -0.0252
11002W        W27186   2.984  17.513   3.582 -0.0676  0.2377 -0.2133
11003W        W27187  16.803   2.571   5.762  0.1478 -0.2062  0.0911
11004W        W27188   7.060   7.999   2.015 -0.3657 -0.0675  0.1601
11005W        W27189  10.617   8.606   0.003 -0.1226 -0.1315  0.0021
11006W        W27190   8.848   5.284   1.287 -0.0590 -0.0647 -0.0093
11007W        W27191  15.138   6.996  15.729 -0.2149  0.2418  0.1244
11008W        W27192   1.208   5.778   6.423 -0.0478 -0.2988 -0.1044
11009W        W27193   5.495   2.135   3.181  0.3705  0.1274  0.1211
11010W        W27194   2.850   8.512   0.774  0.0786 -0.1358  0.0509
11011W        W27195  12.019   2.797   0.299  0.0748  0.1827 -0.0096
11012W        W27196   8.785   2.447  16.214 -0.3164 -0.1130  0.1183
11013W        W27197   8.696  15.648  12.087 -0.2595  0.1409 -0.1948
11014W        W27198  10.229  15.001  15.838 -0.0770 -0.0276 -0.3981
11015W        W27199   0.674  15.746   6.081  0.2561  0.2638 -0.0164
11016W        W27200   7.617   1.483   5.432  0.3593  0.1912  0.0097
11017W        W27201   6.989   1.331  14.211  0.1654  0.3468 -0.0149
11018W        W27202  16.296  11.431  12.444 -0.2350 -0.3388 -0.1930
11019W        W27203   2.927  10.298   2.069  0.1456  0.3382 -0.2946
11020W        W27204   8.043  14.619   6.236 -0.1065 -0.0010  0.0138
11021W        W27205  16.900   3.927  15.237 -0.0444  0.2468 -0.1898
11022W        W27206   5.289   2.629   4.561 -0.0708 -0.0903  0.3706
11023W        W27207   4.567   9.652   1.423 -0.0420  0.1071  0.0532
11024W        W27208  12.988   7.148   5.320 -0.1571  0.0221  0.1889
11025W        W27209   1.080   2.689   0.547 -0.2408  0.1810 -0.1576
11026W        W27210  14.514  17.032   1.021 -0.1778  0.0532 -0.2280
11027W        W27211   4.115  17.709   0.494  0.1400  0.1913  0.1334
11028W        W27212   8.737   7.250  13.353 -0.0383 -0.0275  0.1380
11029W        W27213   8.218  15.303   3.053  0.0308 -0.1510 -0.0342
11030W        W27214   7.351  17.236  11.861 -0.2790  0.3518  0.0933
11031W        W27215   1.650   2.637   0.189 -0.0882 -0.3013  0.0538
11032W        W27216  15.367   5.159  16.878  0.3770  0.1274  0.1378
11033W        W27217   9.987  10.752  14.614 -0.3431 -0.2256  0.0452
11034W        W27218   2.838  12.610  12.061  0.0033 -0.1635 -0.3218
11035W        W27219  10.824  15.029  14.395  0.0072 -0.1153 -0.3691
11036W        W27220   1.450   8.725   0.314 -0.0375  0.3572 -0.0428
11037W        W27221   6.897  14.457   4.799  0.0249  0.0597  0.0163
11038W        W27222   1.727   3.477   2.624 -0.0001  0.0493 -0.1475
11039W        W27223   5.571  12.803  13.703  0.1378  0.0082  0.2927
11040W        W27224  17.182  15.428   0.792 -0.3207 -0.1226  0.1615
11041W        W27225  16.651   2.951  16.357  0.0176 -0.2057 -0.0215
11042W        W27226  14.767   6.595   1.336 -0.3787  0.1128 -0.3020
11043W        W27227  17.449   4.714   0.681  0.3957  0.1610 -0.4022
11044W        W27228  14.265   9.710  13.254 -0.1064 -0.0887 -0.0538
11045W        W27229  11.147  15.004   5.173  0.1567  0.2502 -0.0932
11046W        W27230  10.955  16.571  14.896  0.0211  0.0954 -0.1270
11047W        W27231   0.038   5.281  12.414  0.2597 -0.2477 -0.3025
11048W        W27232  11.735   7.195   2.651 -0.0888 -0.1647  0.1629
11049W        W27233   4.375  15.261   2.366 -0.3086 -0.1060 -0.3435
11050W        W27234   0.026  12.510  14.772 -0.0970  0.2132  0.3033
11051W        W27235   6.056   1.740   5.284 -0.0041 -0.2887 -0.3709
11052W        W27236  11.560  11.245   1.846 -0.0953 -0.1685  0.1075
11053W        W27237  17.788  17.020  14.275  0.1533  0.2032  0.1696
11054W        W27238   0.849   7.249  15.950 -0.1146 -0.0661  0.0577
11055W        W27239   3.513   7.241   3.495 -0.1079 -0.0020  0.0750
11056W        W27240  15.710   7.828  14.236  0.1997 -0.2211 -0.0571
11057W        W27241   2.308   5.131   3.846 -0.3093 -0.3321  0.3017
11058W        W27242  13.790  14.188   1.656 -0.2463  0.0710 -0.1574
11059W        W27243   8.709   7.779   3.832 -0.0291 -0.1846  0.0170
11060W        W27244  11.374  17.865  16.634  0.0720  0.1536  0.4484
11061W        W27245   1.884  14.993   0.173 -0.3233  0.0810  0.2627
11062W        W27246  10.028  11.634  14.757 -0.0840  0.1654  0.0104
11063W        W27247   4.792   1.368   0.699 -0.0809  0.2030  0.0001
11064W        W27248   9.271   9.880  12.764 -0.2449  0.0249 -0.2829
11065W        W27249   8.038   7.580  13.981 -0.4590  0.1393 -0.3922
11066W        W27250  10.704   3.087   1.225 -0.0600 -0.4145  0.2035
11067W        W27251   6.184   5.769  13.389  0.0599 -0.0469  0.0337
11068W        W27252   0.643  14.142   0.316  0.1346  0.0176 -0.0056
11069W        W27253   7.289  16.182  12.287  0.1662 -0.2111  0.1167
11070W        W27254  17.571  10.258   4.290  0.2026 -0.1454  0.0125
11071W        W27255   1.357  17.643   2.997  0.1156  0.0451  0.1291
11072W        W27256  16.674   2.505   2.322  0.1586 -0.0231  0.1011
11073W        W27257  15.514  13.178  11.675 -0.0760  0.0536  0.2977
11074W        W27258   6.002  10.241   3.225 -0.3573  0.1539  0.0202
11075W        W27259   6.395   7.771  16.181 -0.0880 -0.3479  0.2336
11076W        W27260  12.158   4.886  12.047 -0.0171 -0.0950  0.1546
11077W        W27261   4.579  12.568  15.918  0.2405  0.0312  0.0226
11078W        W27262   6.189   8.269   2.558 -0.3303  0.1940 -0.2830
11079W        W27263   9.062   1.619  13.733 -0.1070  0.0145 -0.1928
11080W        W27264   6.656   8.990   0.825 -0.0770 -0.0164  0.1275
11081W        W27265  13.349   1.533   1.594  0.0592 -0.2637  0.2174
11082W        W27266   7.556   9.231  15.400  0.1166 -0.0709  0.0505
11083W        W27267   9.306   6.679  15.754  0.2290  0.1903 -0.0629
11084W        W27268  16.340   4.374   1.587  0.0656  0.0299  0.1810
11085W        W27269   3.720  16.616   2.340  0.0329 -0.1696 -0.2290
11086W        W27270  15.960   3.288  12.456 -0.0191  0.3168 -0.0065
11087W        W27271   8.320  16.809  13.474  0.1364 -0.1515 -0.0626
11088W        W27272   7.608  15.819  12.047  0.0770 -0.0297  0.2293
11089W        W27273   7.452  17.172   0.888  0.0062 -0.1402 -0.2420
11090W        W27274   0.874   1.894  12.008  0.1876  0.1303  0.0983
11091W        W27275   6.869   0.396  16.233 -0.1180 -0.3217 -0.0432
11092W        W27276   6.522   4.534  12.822 -0.1343  0.1093  0.1713
11093W        W27277  12.662  13.247   0.598  0.0883 -0.1341 -0.1697
11094W        W27278   6.652  12.470   3.398 -0.0355  0.3010 -0.2407
11095W        W27279   3.154   4.340   1.931  0.2360  0.0317  0.0363
11096W        W27280   4.592   9.747  11.720  0.2219 -0.2295 -0.1594
11097W        W27281   1.484  14.098   0.993  0.0779 -0.2308 -0.0507
11098W        W27282   0.900   3.312  16.747  0.2800  0.3104  0.2975
11099W        W27283  11.608  16.886   5.260  0.1132  0.0008 -0.0177
11100W        W27284   3.982   6.865  12.541  0.4269 -0.2245  0.0591
11101W        W27285  12.342   4.470   0.751  0.1300 -0.0569  0.0560
11102W        W27286  14.452  11.021   3.605  0.0217  0.2881 -0.2070
11103W        W27287   0.115  11.901  12.879  0.0820 -0.1834  0.0487
11104W        W27288   3.796  10.239   2.585 -0.0733  0.2867  0.1770
11105W        W27289  16.172   6.765   3.986 -0.0115 -0.0167  0.0246
11106W        W27290  16.145   2.103  13.573 -0.0469  0.2691  0.3523
11107W        W27291   9.153   5.401  16.042  0.1694  0.1000 -0.0091
11108W        W27292   8.786   7.593   5.579  0.0678  0.2260 -0.1812
11109W        W27293  12.047   1.224   1.328  0.0832 -0.1537 -0.1922
11110W        W27294   9.303   9.080  11.464  0.1491 -0.0233  0.1026
11111W        W27295  16.816   9.787  15.839 -0.2664 -0.0996 -0.2247
11112W        W27296  11.176  12.359  13.234  0.0335  0.1270  0.2300
11113W        W27297   8.618  11.989  14.116  0.1351 -0.0343  0.1969
11114W        W27298  14.482  14.020   5.308  0.2537  0.0959 -0.1270
11115W        W27299   2.146   0.410  15.635 -0.1175 -0.3907 -0.3139
11116W        W27300  10.882  14.893  13.649  0.0862  0.1879  0.0069
11117W        W27301  12.248  12.408  14.865  0.2220  0.1252  0.0074
11118W        W27302  17.322   6.913   5.709  0.1791  0.2089  0.0277
11119W        W27303  15.028  11.855   3.945  0.1133 -0.1777  0.0783
11120W        W27304  12.397  14.943   1.443  0.4254  0.2692 -0.0273
11121W        W27305  15.492   5.263   5.312  0.1028 -0.1695  0.1728
11122W        W27306   6.564   4.160  14.258 -0.0393 -0.2093 -0.1066
11123W        W27307  17.852   8.181   5.292  0.0238  0.0473 -0.3712
11124W        W27308  13.571   4.124  14.161 -0.2043 -0.0966  0.0430
11125W        W27309   0.815   0.831   0.637 -0.0437  0.3365 -0.1357
11126W        W27310   9.362   6.020  11.307 -0.0157 -0.2933 -0.0672
11127W        W27311  14.931  14.842  12.601 -0.2933 -0.2108 -0.1976
11128W        W27312  17.702   7.652  11.571 -0.2508  0.0783 -0.0202
11129W        W27313   5.850   8.296   5.417  0.0965 -0.0123  0.0033
11130W        W27314  15.316  14.293  14.659 -0.0412 -0.0866 -0.0116
11131W        W27315  16.695   2.778  13.798  0.0211  0.1089  0.1882
11132W        W27316  11.556  11.018   4.041  0.0175 -0.3278  0.0992
11133W        W27317   1.732  11.887  12.196  0.2108 -0.2179  0.0657
11134W        W27318  10.688  14.951  13.141 -0.1227  0.1600 -0.3320
11135W        W27319   2.509  16.655   1.243 -0.1200  0.0950  0.3677
11136W        W27320   2.630   9.975   3.439 -0.2076 -0.2102  0.2163
11137W        W27321  10.934  14.707  12.710  0.0912  0.1460  0.0188
11138W        W27322  17.452  12.842   3.144  0.0041 -0.0943  0.0746
11139W        W27323  15.605   8.591  12.172  0.1322  0.2480 -0.1819
11140W        W27324   8.843   8.400  11.693 -0.4378  0.2906 -0.2200
11141W        W27325   2.679   6.598  12.279 -0.0373 -0.1895 -0.4231
11142W        W27326  10.667   3.510   0.255 -0.5525  0.1240 -0.1628
11143W        W27327   8.795  15.531  16.077  0.0367 -0.1917  0.0968
11144W        W27328   0.888  14.038  12.739 -0.1097 -0.0024 -0.1252
11145W        W27329  10.026   4.317   6.067 -0.0177  0.2302 -0.3114
11146W        W27330   8.616  16.156  11.274  0.3007  0.5390  0.1511
11147W        W27331   9.016   0.336   2.026  0.3602 -0.3631  0.0190
11148W        W27332  15.354  11.091   0.516 -0.0583  0.0006  0.0328
11149W        W27333   8.844  12.520  11.573  0.4820 -0.5089 -0.2075
11150W        W27334   3.996   8.684  16.731 -0.0990 -0.0094  0.1562
11151W        W27335  13.744  14.154  14.030 -0.4962 -0.3095 -0.0374
11152W        W27336   7.006   1.873   4.666  0.0596 -0.1552  0.0346
11153W        W27337  10.537  11.119  15.860  0.0284 -0.0660  0.0875
11154W        W27338   7.018  17.593  11.998  0.1216 -0.1170 -0.2094
11155W        W27339  10.360   0.250  12.298 -0.0611 -0.0908  0.1975
11156W        W27340  13.371   4.647  14.929 -0.0051 -0.3044 -0.0806
11157W        W27341   3.569  14.842   3.552 -0.2450  0.3669  0.0625
11158W        W27342   2.445   1.735   2.631 -0.0839 -0.0568 -0.1111
11159W        W27343  14.932  17.865   1.671 -0.1499  0.0460  0.0320
11160W        W27344   2.878  10.646  12.497 -0.0693 -0.3035 -0.1825
11161W        W27345  11.686  10.140  11.790 -0.0642  0.0074 -0.2734
11162W        W27346   0.229   9.840  16.014 -0.0170 -0.0211 -0.0258
11163W        W27347   6.361  11.938  13.108  0.2809  0.0580  0.1430
11164W        W27348  14.607  15.254  15.533  0.0784 -0.0040 -0.1781
11165W        W27349  11.855  15.094   5.665  0.0470  0.1565 -0.2368
11166W        W27350   9.891   0.331  12.712  0.0196  0.2096 -0.0182
11167W        W27351   9.979  16.135  10.518 -0.0368  0.0522  0.1250
11168W        W27352   9.641  14.298  12.937 -0.2100 -0.1514  0.0071
11169W        W27353   5.792  14.115   1.181  0.1321 -0.0568  0.1034
11170W        W27354   5.302   3.022   0.051  0.0092  0.0490 -0.1358
11171W        W27355   3.050   7.231   3.052 -0.2079 -0.2002 -0.0108
11172W        W27356   4.730   7.376  13.961 -0.0982 -0.0003 -0.2308
11173W        W27357  16.105   7.057   5.705 -0.1600 -0.3291  0.2319
11174W        W27358   0.137  14.815  14.002  0.1485  0.2075  0.0202
11175W        W27359   3.474   9.978  12.385  0.0492 -0.1116 -0.0095
11176W        W27360  17.815  16.554   2.973 -0.0233 -0.2737  0.2360
11177W        W27361   0.835   8.493  11.932 -0.2328 -0.1449 -0.2694
11178W        W27362  12.016   3.588  13.147  0.0203  0.0946  0.1260
11179W        W27363  14.603  17.005  16.626  0.0803 -0.3726 -0.1491
11180W        W27364  10.107   0.686  11.584  0.3288  0.1294 -0.1936
11181W        W27365   6.815   3.177   4.590 -0.2016 -0.0469  0.0650
11182W        W27366   9.338  11.093   2.735  0.0803 -0.1208 -0.1033
11183W        W27367   0.915  16.974  13.698 -0.0622  0.1315  0.2459
11184W        W27368  17.489  14.256  16.843  0.0444 -0.1043  0.2428
11185W        W27369  10.403   5.772   3.339  0.2565  0.0933 -0.1796
11186W        W27370  12.987  11.659   2.819  0.0293  0.1266  0.1008
11187W        W27371   7.051  16.017  16.574  0.0340  0.1522 -0.2537
11188W        W27372  11.786  14.083   0.399  0.2930  0.1250  0.3039
11189W        W27373  13.090  13.809  16.254  0.1598  0.2287 -0.2778
11190W        W27374  13.927  11.584  12.585  0.1689 -0.0772 -0.0727
11191W        W27375  14.910  13.289   2.199 -0.3951 -0.2038 -0.1136
11192W        W27376   8.530   9.804  16.480 -0.2080 -0.3073  0.1868
11193W        W27377   8.310  15.037   6.475  0.0402 -0.4201 -0.2205
11194W        W27378   4.426   9.328   2.734  0.1078  0.0738 -0.3438
11195W        W27379   1.638   5.484  15.910 -0.0582  0.1483  0.0842
11196W        W27380   5.373   2.808  14.506  0.0176  0.0316 -0.0868
11197W        W27381  16.207   8.367   6.200  0.3380  0.0413  0.1896
11198W        W27382  17.108   7.407  16.399 -0.0940 -0.4101 -0.4409
11199W        W27383  10.093   8.624  12.152  0.2636 -0.1144 -0.1259
11200W        W27384   9.104  13.996  14.111 -0.0239 -0.0783 -0.0955
11201W        W27385  11.380  16.768  13.480  0.1543  0.2699  0.0665
11202W        W27386  16.606  17.579  12.671  0.3890 -0.0016 -0.2985
11203W        W27387  11.980   8.361   6.002  0.2940 -0.0478 -0.0288
11204W        W27388  12.295   2.293  15.062 -0.2306  0.0494  0.1052
11205W        W27389  13.678   5.289  13.094 -0.1953  0.0191  0.1894
11206W        W27390   9.460  10.112   2.824 -0.0785 -0.1270 -0.1069
11207W        W27391   1.150   7.480  16.829 -0.2344 -0.1526 -0.0067
11208W        W27392   3.548   2.847  12.331  0.2342  0.1352 -0.1259
11209W        W27393   7.511   5.279   5.482  0.1168 -0.3481  0.2291
11210W        W27394   3.285   7.087  14.772  0.1417  0.0305  0.0732
11211W        W27395   5.973   7.927  13.234 -0.0033  0.1169  0.2031
11212W        W27396   2.374   9.547   3.649 -0.2209  0.1672  0.2003
11213W        W27397   9.580  10.345  15.298  0.1412 -0.1829 -0.1963
11214W        W27398  12.686  10.198  13.779 -0.1814 -0.1158  0.0236
11215W        W27399   5.183  10.806   5.190 -0.3650 -0.0950 -0.2572
11216W        W27400   0.972  12.271   0.548 -0.2108  0.2545 -0.0393
11217W        W27401  17.510  11.887   2.032 -0.0714 -0.0783 -0.1022
11218W        W27402   4.260   5.714  13.201  0.0217 -0.2767  0.0143
11219W        W27403   3.042  16.478  14.633 -0.2090 -0.1614 -0.3738
11220W        W27404   8.086  10.018  16.245  0.0513  0.0244 -0.1164
11221W        W27405   8.268   1.652   0.748 -0.0051 -0.1234  0.0568
11222W        W27406   3.961  10.164   2.128 -0.0149 -0.1089 -0.2235
11223W        W27407  16.972   6.507   0.193 -0.1893  0.0565 -0.4904
11224W        W27408  16.324  17.007  14.080 -0.0386 -0.0565  0.0359
11225W        W27409   9.158   2.637  16.485  0.3477  0.0215 -0.1040
11226W        W27410  17.858   9.201   3.565 -0.1771  0.0375 -0.0201
11227W        W27411  15.956   1.572  13.763  0.0295  0.0964  0.1056
11228W        W27412  12.813   0.702  12.616 -0.2708  0.1046  0.3159
11229W        W27413   8.405  10.377  12.996  0.1168  0.0488  0.1137
11230W        W27414   1.102   7.618  12.139 -0.0108  0.2213  0.3124
11231W        W27415  10.260   1.126   2.128  0.0631  0.3895 -0.1488
11232W        W27416  16.885  17.732   3.729  0.0002  0.0735  0.3392
11233W        W27417  13.652   4.674   3.235  0.1158  0.0974 -0.0269
11234W        W27418   0.523   4.101  13.845 -0.1189 -0.4777 -0.0598
11235W        W27419  10.593   6.323   0.280  0.1287 -0.0695  0.1944
11236W        W27420  11.406   6.944   2.332 -0.0755 -0.3167 -0.0242
11237W        W27421   8.288   6.020  14.109 -0.1137  0.1752  0.0133
11238W        W27422   4.611   1.880  13.857 -0.1176 -0.1265 -0.1064
11239W        W27423   6.409   8.845  11.996  0.3301 -0.1838  0.0007
11240W        W27424  10.423   8.789   3.798  0.1899 -0.1612  0.0038
11241W        W27425   6.846   4.565   4.994 -0.1758 -0.1195 -0.0175
11242W        W27426   1.951  16.678  16.647  0.0543 -0.3097 -0.1758
11243W        W27427   3.893  14.649   3.120 -0.0522  0.0977 -0.0133
11244W        W27428   0.975   9.956  13.953  0.2693 -0.0835 -0.1744
11245W        W27429   5.053   8.688   5.351  0.0401  0.0213  0.0235
11246W        W27430  13.891  10.037  15.831 -0.3148  0.1346  0.0798
11247W        W27431   4.381  17.613  14.429 -0.0629 -0.0060  0.0279
11248W        W27432  11.160   8.414   0.276 -0.1744  0.4196 -0.4850
11249W        W27433  15.524   4.672   2.070 -0.1641 -0.1562  0.0215
11250W        W27434   4.769   6.495   1.354  0.0247  0.3773  0.1587
11251W        W27435   7.014  11.832  15.158 -0.2722 -0.1063  0.1096
11252W        W27436  11.324  17.301  12.138  0.4482 -0.0872 -0.2117
11253W        W27437  12.889   5.675  14.746  0.3060 -0.1038  0.0043
11254W        W27438  11.655  12.121  16.933  0.0075  0.1228  0.0711
11255W        W27439   3.469   8.480  12.871  0.0217 -0.0468  0.4138
11256W        W27440   0.515   8.041   3.180 -0.0464 -0.1197  0.0022
11257W        W27441  10.043   8.780   1.091  0.1686  0.1529  0.2970
11258W        W27442  11.139   6.177  16.394 -0.1359  0.3112  0.0184
11259W        W27443   5.566   1.366   5.928 -0.0880  0.0221  0.0836
11260W        W27444  15.313   1.759   2.339 -0.1190  0.0730 -0.0535
11261W        W27445  14.671   8.959   0.434  0.0159 -0.2636 -0.2870
11262W        W27446  13.785   1.572   4.055 -0.0055 -0.1444  0.3404
11263W        W27447   6.123   7.777   2.540 -0.2000  0.2652  0.2124
11264W        W27448   8.762  12.316  16.568 -0.0545  0.1306  0.1864
11265W        W27449   3.725   0.830  11.382 -0.1687 -0.1144 -0.0493
11266W        W27450   5.742  17.281  15.251  0.1276 -0.1215  0.0015
11267W        W27451  10.161  13.225   2.107  0.1546  0.0320 -0.2417
11268W        W27452   0.154   8.445   3.133  0.0091  0.0672  0.0518
11269W        W27453   3.081  12.733   4.881  0.2248 -0.2360 -0.1707
11270W        W27454  11.969  12.723   2.819 -0.2281  0.1246 -0.0428
11271W        W27455   4.832  14.843  11.869 -0.1313 -0.0509 -0.1702
11272W        W27456   5.509  17.620  13.715 -0.0116  0.0188 -0.2452
11273W        W27457  17.048  11.805   2.112  0.0596  0.1200  0.0387
11274W        W27458  17.298  16.183  14.085 -0.0486 -0.1470  0.1122
11275W        W27459   4.222  17.429  14.845  0.4315 -0.2355 -0.3693
11276W        W27460   1.318  17.196  16.796  0.2542  0.2941  0.1561
11277W        W27461   3.821  12.898  16.309 -0.0874 -0.0648 -0.3369
11278W        W27462   1.297  12.344  13.338 -0.0878  0.0405 -0.2416
11279W        W27463  15.896  12.191  14.455 -0.0072  0.3088  0.2424
11280W        W27464   7.247   1.417  13.280  0.2020 -0.1697  0.1677
11281W        W27465  16.303  14.703   5.597 -0.3466  0.1348  0.1160
11282W        W27466   9.931   7.955   6.293  0.1539 -0.1038  0.2668
11283W        W27467   7.336   7.934  16.452  0.1904  0.2367  0.2044
11284W        W27468  11.422  15.551  11.401 -0.2504  0.4884  0.4084
11285W        W27469   7.214  13.902   2.543 -0.0946  0.0160  0.1294
11286W        W27470   7.653   8.497   3.174 -0.0286  0.2121  0.0487
11287W        W27471   1.348   6.546  13.484  0.0347  0.2205  0.0182
11288W        W27472  15.404  14.768  14.327  0.1829 -0.2251  0.0928
11289W        W27473   7.312   5.152   1.578 -0.2299 -0.2386 -0.1928
11290W        W27474   3.084  15.976  14.972 -0.0162 -0.1098  0.1378
11291W        W27475   4.095  10.133   5.238  0.0345  0.0207  0.1196
11292W        W27476   8.236   3.921   6.240  0.1369 -0.0435  0.0131
11293W        W27477   5.960   3.854  15.794 -0.1388  0.1541  0.3949
11294W        W27478  14.141  10.044  15.384  0.0967  0.1795 -0.1802
11295W        W27479   6.732  10.802  12.378 -0.1054  0.2544  0.0821
11296W        W27480  15.371   1.193  15.141  0.1314 -0.0264 -0.1934
11297W        W27481  11.356   4.831   4.325 -0.1290 -0.1635  0.0531
11298W        W27482  11.506  15.244  15.499 -0.1726 -0.1756  0.0244
11299W        W27483   7.100   3.616  15.780  0.3889  0.0345 -0.2470
11300W        W27484  13.733   0.314   0.611  0.1344  0.1221 -0.2672
11301W        W27485   4.131  12.202  12.112  0.0117 -0.1480  0.0142
11302W        W27486  13.934   0.480   0.063  0.0465  0.1641 -0.2408
11303W        W27487   7.546  14.705  15.378 -0.1873  0.0080  0.2687
11304W        W27488  12.993   4.064  16.366  0.2111 -0.0753 -0.0067
11305W        W27489  10.692  13.491   3.256 -0.1820 -0.1265 -0.2970
11306W        W27490  16.829  11.260   3.438  0.1544 -0.2173  0.0633
11307W        W27491   0.411   4.474  12.189 -0.1850 -0.2855 -0.2029
11308W        W27492   0.767  11.822   5.688 -0.1032  0.3936  0.0684
11309W        W27493   5.614   7.754  12.217 -0.0879  0.2430 -0.0717
11310W        W27494  17.066  10.143  14.273 -0.0937 -0.1455  0.2974
11311W        W27495   0.064   8.403   1.935 -0.0608 -0.2318  0.1837
11312W        W27496   1.650  15.831  13.239 -0.0874 -0.2662  0.2885
11313W        W27497   1.339  12.435   3.940 -0.1648 -0.0989 -0.1796
11314W        W27498   8.274  11.438   3.668 -0.0878 -0.0428  0.1821
11315W        W27499   7.527  17.290  13.838  0.4494 -0.1847  0.0305
11316W        W27500   7.315   1.992   3.332  0.1499  0.1223  0.1336
11317W        W27501   0.486  16.414  14.887  0.4081 -0.1434 -0.0583
11318W        W27502   5.869  10.306  12.263  0.1029  0.0051 -0.2045
11319W        W27503   0.504  10.825  16.023  0.0437  0.0091  0.0343
11320W        W27504  12.826  16.727   4.704  0.0870  0.0849 -0.3043
11321W        W27505  17.400   9.416  12.587  0.1182  0.0491 -0.0156
11322W        W27506   7.991   2.169   0.445 -0.2761  0.0304 -0.1873
11323W        W27507  14.069   9.301  14.056 -0.0767  0.2276  0.0009
11324W        W27508   4.355   9.866   5.582  0.0116  0.0555 -0.0353
11325W        W27509   4.178  11.603   3.025 -0.0078  0.0725  0.0406
11326W        W27510  10.951  10.053  12.624 -0.2312 -0.1268 -0.0619
11327W        W27511  15.278   4.487  13.040 -0.0513  0.1642 -0.2800
11328W        W27512   8.624  10.081   4.183 -0.0392 -0.0026 -0.0930
11329W        W27513   4.194   1.954  14.431  0.0935  0.0868  0.1049
11330W        W27514   1.742  17.020  12.435 -0.0457 -0.1824 -0.4554
11331W        W27515  15.205   7.122   2.323  0.0029 -0.0391 -0.0166
11332W        W27516  12.141   6.299   2.315 -0.0717 -0.3100  0.1034
11333W        W27517   6.602   9.799   4.739  0.0028  0.1964 -0.3320
11334W        W27518  16.174  12.644  14.381  0.2100 -0.1397 -0.2691
11335W        W27519  15.528  17.711   4.748  0.1194 -0.0672  0.3881
11336W        W27520  15.544   5.674   0.549 -0.2625 -0.1651  0.2596
11337W        W27521  10.867   9.257  13.554  0.4837 -0.0672 -0.1829
11338W        W27522   7.528  10.030  14.701  0.0331  0.2181  0.1155
11339W        W27523   0.791   7.545  14.731 -0.3904  0.1540  0.0027
11340W        W27524  13.023   6.771   3.923 -0.1372  0.1517 -0.1705
11341W        W27525  14.638   5.783   0.945 -0.1641 -0.0114  0.1284
11342W        W27526  15.425  13.853  14.486  0.0668 -0.2518 -0.1974
11343W        W27527   4.271  15.811   3.258 -0.1092 -0.1162  0.2203
11344W        W27528   0.567  13.693   1.404 -0.0158  0.3034 -0.3986
11345W        W27529  10.666  11.502  12.051  0.2459  0.1430 -0.0643
11346W        W27530   3.008   9.110  16.606  0.2116 -0.0473  0.3185
11347W        W27531  16.973   2.250  12.214  0.1426  0.3063  0.0710
11348W        W27532  11.733   9.765   0.233 -0.0179  0.0267 -0.0287
11349W        W27533   2.019  16.129  13.148  0.0601 -0.2046  0.0193
11350W        W27534  14.057   9.628   5.579 -0.0121  0.1169 -0.1181
11351W        W27535   3.186   8.979  12.195  0.0122 -0.0215 -0.1777
11352W        W27536  12.356   1.214   0.853  0.1906  0.0966 -0.1971
11353W        W27537  15.016   6.840  11.830 -0.1806 -0.0098 -0.1115
11354W        W27538  12.888  16.508  11.963 -0.2088  0.0866  0.0309
11355W        W27539  15.076  16.757   3.054 -0.0822 -0.4135 -0.0338
11356W        W27540   5.317  13.118  14.501  0.2014  0.0787 -0.1715
11357W        W27541  12.618   7.028  16.701 -0.1862  0.1473  0.1520
11358W        W27542  11.186  13.269  16.659 -0.1085 -0.1129 -0.2348
11359W        W27543  11.582   4.154   3.068  0.4223  0.2544 -0.5147
11360W        W27544  17.840  11.866  15.726  0.2489  0.1303  0.0368
11361W        W27545   7.468  15.025  11.825 -0.0709 -0.1427 -0.0270
11362W        W27546   7.074   8.173  15.832  0.2473 -0.0895  0.2154
11363W        W27547  11.982  11.793  16.480  0.0379 -0.4047 -0.1484
11364W        W27548  10.588  15.804   3.756  0.2614 -0.2109  0.0614
11365W        W27549   8.314  12.038   2.877 -0.1366 -0.0716 -0.0979
11366W        W27550   4.664  14.462  14.877 -0.0100  0.3120 -0.0984
11367W        W27551  11.271   4.007  12.086 -0.0651 -0.1554 -0.1457
11368W        W27552  11.828  15.437   2.997 -0.1181  0.0794  0.1769
11369W        W27553  14.141  16.855  15.912 -0.1452 -0.1313  0.0312
11370W        W27554   8.532   7.859   5.898 -0.0719  0.1894 -0.1544
11371W        W27555   4.745  12.024  11.377  0.0863 -0.1973  0.1794
11372W        W27556   0.257  11.573   2.978  0.2467 -0.0271  0.2493
11373W        W27557   0.492  11.549   3.403 -0.0371  0.2393 -0.0530
11374W        W27558  13.994  11.671   0.066 -0.0478 -0.0420  0.0941
11375W        W27559   0.908   4.389   2.969  0.0696  0.2549  0.2308
11376W        W27560  15.854   1.748  14.200  0.0690  0.1533 -0.1751
11377W        W27561   6.483   8.767   5.217  0.2976  0.0656  0.0393
11378W        W27562  15.366   9.317   2.827 -0.1239  0.3781 -0.0901
11379W        W27563  17.627   3.706   1.449  0.4056  0.3066  0.2154
11380W        W27564  10.237  14.869  13.561 -0.1015 -0.0749 -0.1731
11381W        W27565   3.089   1.972   0.839 -0.0888 -0.0336  0.0581
11382W        W27566  17.147   3.473  14.414  0.2677  0.1302 -0.2396
11383W        W27567   0.506   5.424  12.640  0.1292 -0.2148 -0.1758
11384W        W27568  10.717  11.568   1.974  0.0719 -0.1438  0.1568
11385W        W27569   7.603   7.436   2.131 -0.3626  0.1625 -0.2085
11386W        W27570   5.322   8.616   3.500 -0.1925  0.3137  0.1338
11387W        W27571  17.380   6.963  12.156  0.0658 -0.0929 -0.1753
11388W        W27572   0.505   5.127   3.313 -0.0422 -0.0391  0.0793
11389W        W27573   6.772   9.300   2.157  0.1288 -0.0039 -0.0722
11390W        W27574   6.647   6.060  12.683  0.1874 -0.0496 -0.1461
11391W        W27575  16.729   0.909   5.977 -0.0023  0.2548 -0.2352
11392W        W27576  14.821  12.255   0.071 -0.4297  0.3225  0.0710
11393W        W27577  16.018  11.110   4.555  0.1114 -0.0407 -0.1509
11394W        W27578   5.376   0.280   3.737 -0.0791  0.0078  0.2236
11395W        W27579  13.192  10.321   1.577 -0.0896 -0.0113 -0.2005
11396W        W27580   7.138  12.734  11.782 -0.5015  0.0958 -0.1423
11397W        W27581  17.881   9.103   3.083 -0.1643 -0.1559 -0.0132
11398W        W27582  17.559   7.668  16.742  0.0047  0.1434  0.1746
11399W        W27583   2.478   1.366   0.849 -0.1421 -0.1139 -0.1281
11400W        W27584   9.850   7.421  16.491 -0.2862  0.2058  0.0719
11401W        W27585  12.853   5.769  14.196 -0.0385 -0.0246  0.1906
11402W        W27586   4.451  12.776   2.005 -0.1249  0.3062 -0.1128
11403W        W27587  12.634  12.258   3.413 -0.1630  0.1337  0.1581
11404W        W27588   0.024  10.540   0.692 -0.0083  0.0961  0.2647
11405W        W27589   7.303   0.939  14.306  0.1085 -0.1870  0.2472
11406W        W27590  17.146  10.297  14.805  0.0764  0.0763 -0.2621
11407W        W27591   4.097   9.531  11.860 -0.0444 -0.4419  0.3017
11408W        W27592  12.937   9.897  12.389  0.2690 -0.0905 -0.0003
11409W        W27593   1.649   2.005   5.174  0.0114  0.2778  0.2325
11410W        W27594  11.039   2.087  16.242  0.0292  0.1174 -0.0005
11411W        W27595  14.482  11.753  11.334  0.2202 -0.4216  0.0571
11412W        W27596  17.179  15.186   1.845 -0.1155  0.1060 -0.0102
11413W        W27597   5.658   5.263   3.278  0.0784 -0.1333 -0.1729
11414W        W27598   7.125  11.581  13.237 -0.1892 -0.1119 -0.0096
11415W        W27599  10.726   3.798   5.092  0.0351 -0.2791  0.0044
11416W        W27600  12.187   8.836   1.952  0.6010 -0.0591  0.1042
11417W        W27601  13.681   4.075  15.370  0.1896  0.2857  0.0960
11418W        W27602  14.102  13.630  14.903  0.1999  0.1862 -0.2139
11419W        W27603   1.868  14.862  13.462 -0.0839  0.2131 -0.0700
11420W        W27604  17.291   4.246   5.079  0.2964 -0.0580  0.1672
11421W        W27605  11.288  14.985   3.495 -0.0938  0.0135 -0.0850
11422W        W27606  16.633  13.437   2.210  0.2617  0.0903  0.1252
11423W        W27607  16.290  14.906   0.675 -0.0608 -0.1821 -0.0950
11424W        W27608   9.055   7.931  12.751 -0.0839  0.0335 -0.1691
11425W        W27609   1.979   9.623   1.797  0.0507  0.3254  0.3728
11426W        W27610   5.961  11.628   2.880 -0.0706 -0.0292 -0.3127
11427W        W27611  17.333  13.695   3.460  0.2894 -0.0680  0.1147
11428W        W27612  17.797  16.831   0.779  0.2668  0.0428  0.1233
11429W        W27613   4.052  14.467   2.548  0.0240 -0.1802 -0.0364
11430W        W27614   3.132   3.183   1.490  0.0354  0.0070 -0.1334
11431W        W27615   7.488  10.137   6.411  0.1488 -0.1407 -0.0056
11432W        W27616   8.024  16.657  13.005 -0.2355 -0.0750 -0.1049
11433W        W27617   7.427   8.935   1.120  0.2957  0.1933 -0.3894
11434W        W27618  16.761  14.288   4.935  0.1001  0.3641  0.1635
11435W        W27619   2.248  16.143  12.231 -0.2469  0.1937  0.2014
11436W        W27620   7.601   4.462  16.048 -0.2727  0.0153 -0.0928
11437W        W27621   6.491   1.598  12.139 -0.1290  0.0779  0.0597
11438W        W27622   4.744  10.342   4.843  0.2151 -0.0686 -0.0323
11439W        W27623  17.652   2.821   2.924  0.2046  0.1947  0.0807
11440W        W27624   8.072  12.253  12.716  0.1454 -0.2692 -0.3685
11441W        W27625  17.525   8.432  13.771 -0.1212 -0.0923  0.0475
11442W        W27626  16.373  17.232   3.720 -0.4560 -0.4552  0.2978
11443W        W27627  14.266  16.613   4.487  0.1749  0.1144 -0.1241
11444W        W27628  16.956  16.340  14.977  0.0842 -0.4067 -0.2198
11445W        W27629  14.879  10.668  13.394  0.0292  0.2275 -0.0000
11446W        W27630   8.406   4.827  16.552  0.3295 -0.0436  0.0707
11447W        W27631   2.854  11.149  13.167 -0.2371  0.0366  0.0757
11448W        W27632   4.268  10.289  14.445  0.2828  0.2613  0.1369
11449W        W27633   1.590  12.394   5.872 -0.1186 -0.0911  0.2777
11450W        W27634  17.297   8.324  15.855 -0.1055 -0.0002 -0.2567
11451W        W27635   7.634   4.670   3.483 -0.1313  0.0612  0.1756
11452W        W27636  12.074  16.089   3.668 -0.3595  0.0484 -0.1102
11453W        W27637   0.828  16.394   0.603  0.3086  0.2120  0.0744
11454W        W27638  15.920   8.067   0.808  0.1515 -0.1158 -0.0402
11455W        W27639   1.852   1.595   4.877  0.1274  0.1521  0.0755
11456W        W27640   1.670   4.853  12.331 -0.3734  0.0872 -0.0652
11457W        W27641  12.587  12.664   0.943 -0.3233 -0.0831  0.1481
11458W        W27642   1.404   5.593   5.184  0.2946 -0.0378  0.1236
11459W        W27643   0.548  14.486  13.973 -0.0393  0.1334  0.3717
11460W        W27644   3.835  17.603  14.416 -0.0300 -0.2132 -0.0011
11461W        W27645   1.590   6.901   5.560  0.0931  0.0143  0.1782
11462W        W27646  11.625  10.588   3.245  0.0313 -0.3141 -0.1014
11463W        W27647  14.349   3.386   3.398  0.3633 -0.3486  0.1066
11464W        W27648   7.288   1.994  13.406 -0.0142 -0.1375 -0.3148
11465W        W27649  15.127   5.746   4.183 -0.2040 -0.2554 -0.0785
11466W        W27650   9.725   3.744   4.095 -0.0820  0.0565 -0.1444
11467W        W27651  14.912  14.362   4.474 -0.1932  0.0404  0.0312
11468W        W27652   1.239   6.220   6.636 -0.0333 -0.0809 -0.2515
11469W        W27653   1.129  16.629   0.951  0.2979  0.0913 -0.3170
11470W        W27654  11.277  13.552  14.985  0.2272  0.2014 -0.0647
11471W        W27655  15.207   0.013   4.445 -0.4264  0.1057 -0.0143
11472W        W27656   9.867  14.090  15.896  0.1425  0.1213  0.0611
11473W        W27657  14.878  11.901  15.929 -0.1500  0.0395 -0.0173
11474W        W27658  16.692  16.870   0.113 -0.0552 -0.1061 -0.1195
11475W        W27659   3.526   3.848   5.583  0.1235 -0.0334  0.3305
11476W        W27660  16.310   4.890   3.085 -0.1495 -0.1056 -0.2404
11477W        W27661  11.536   2.040  15.491  0.1723 -0.1750 -0.2306
11478W        W27662  15.001  15.935   5.587  0.0286 -0.2974  0.0285
11479W        W27663  16.963   2.190  16.666  0.1271 -0.0509 -0.1720
11480W        W27664   9.104  17.462   0.928  0.2912  0.3329  0.1286
11481W        W27665   8.848   6.075  15.598 -0.3444 -0.2487 -0.2566
11482W        W27666   8.215  16.506  12.454 -0.2070  0.2753  0.0501
11483W        W27667   6.887   5.747  12.322  0.3102  0.2336  0.0956
11484W        W27668   0.999  14.138  11.507 -0.1725 -0.0239  0.1301
11485W        W27669  15.873  16.073   2.820 -0.0378  0.0661 -0.0600
11486W        W27670   8.340   2.565  13.866  0.1008 -0.1859 -0.0208
11487W        W27671  16.011  13.167  14.358 -0.0592 -0.0257 -0.2246
11488W        W27672   9.849  12.824   3.527 -0.1276 -0.0582 -0.3460
11489W        W27673   9.408  17.374   1.825 -0.0247 -0.0058 -0.1968
11490W        W27674  16.223  11.239  16.095  0.0768 -0.1346  0.1265
11491W        W27675   1.383  16.785  13.799  0.1353  0.1706 -0.0290
11492W        W27676   9.152   6.250   2.750 -0.3009  0.0178  0.1037
11493W        W27677  16.509  14.535   4.602 -0.1418 -0.2482 -0.0394
11494W        W27678   0.093  12.576  14.073 -0.0825  0.0867 -0.2126
11495W        W27679  10.232  13.836  13.698 -0.0377 -0.0408 -0.1808
11496W        W27680   0.050   1.674   3.522  0.2844  0.0835  0.1068
11497W        W27681  12.655   4.348  14.355  0.1379 -0.0262  0.2235
11498W        W27682   5.543  13.863   4.807 -0.0557  0.0237 -0.1393
11499W        W27683  16.617   6.516   1.091  0.1657 -0.1730 -0.1069
11500W        W27684  10.112   0.256   5.252  0.2327 -0.1160 -0.1817
11501W        W27685   0.706   9.391   5.633 -0.0435 -0.2004  0.0094
11502W        W27686   2.260  11.751   3.173 -0.0100  0.1702 -0.0253
11503W        W27687   4.042   9.309   2.364 -0.2364  0.0498 -0.1230
11504W        W27688  17.548   6.154  14.035 -0.0800 -0.1921  0.3835
11505W        W27689  10.775   4.345  13.672 -0.2310 -0.1611 -0.0803
11506W        W27690  16.186   5.272   4.365 -0.3095  0.1593  0.0851
11507W        W27691   5.969   6.560   5.872  0.0150 -0.0344  0.3921
11508W        W27692   6.230   1.970   4.289 -0.0132 -0.2378 -0.1607
11509W        W27693   2.499   9.984  13.522 -0.1826 -0.5009  0.3074
11510W        W27694  16.125  15.781   1.784  0.2379  0.0046 -0.0798
11511W        W27695   6.185   0.755   2.099 -0.2111  0.4191 -0.2288
11512W        W27696   2.985  10.435   2.570 -0.0633 -0.1505  0.1200
11513W        W27697  11.839  15.557   4.635  0.3309  0.0800 -0.2251
11514W        W27698   1.869   7.288   5.256 -0.0441  0.2892  0.0538
11515W        W27699  12.420   5.293  11.854  0.1275  0.3959 -0.0547
11516W        W27700   7.249  13.905  12.224  0.0760  0.1018  0.0829
11517W        W27701  15.922  14.741   3.667  0.0210 -0.0552  0.3043
11518W        W27702  13.166   9.592   0.471 -0.0772 -0.0800 -0.4503
11519W        W27703   1.739   6.539   0.705  0.4033  0.0128 -0.1873
11520W        W27704   9.055   4.558  15.357  0.0213  0.2481 -0.0211
11521W        W27705  10.933  12.558   1.990  0.0235 -0.1668  0.0043
11522W        W27706   7.101   7.200   3.604 -0.0386 -0.1781 -0.1506
11523W        W27707   6.590  15.840  10.074  0.1906  0.3244 -0.2188
11524W        W27708  12.406  14.469   2.186  0.0279  0.0977  0.2043
11525W        W27709   0.622   6.027   2.611  0.2388  0.1646  0.2433
11526W        W27710   8.422  16.154  10.757 -0.1620 -0.0706  0.1738
11527W        W27711   4.758  15.510   0.723 -0.1080  0.0420 -0.1004
11528W        W27712   6.321   3.040  16.764  0.2812 -0.0052  0.2888
11529W        W27713  12.420   8.453   5.450 -0.1176  0.1429  0.1933
11530W        W27714   9.776   8.582  14.738  0.0096  0.2671  0.4132
11531W        W27715  16.073   5.929   0.596  0.0837  0.0470  0.1227
11532W        W27716   7.745  10.985  11.885 -0.1031 -0.0422  0.0282
11533W        W27717  10.281  11.479  11.552  0.0206 -0.2566  0.1657
11534W        W27718  14.885  17.762  12.700  0.0974  0.0403 -0.1849
11535W        W27719   6.227   5.860  12.451  0.0815 -0.1248 -0.0319
11536W        W27720   9.088   7.743  15.957  0.0345 -0.0290  0.0331
11537W        W27721   1.318   5.236   5.530 -0.0036 -0.1686 -0.2550
11538W        W27722  11.109   8.268  14.569 -0.1521 -0.1838 -0.3346
11539W        W27723   7.748   0.335  15.490  0.0717  0.3899  0.2429
11540W        W27724   2.289   1.371  14.116 -0.1395 -0.0596 -0.2339
11541W        W27725   6.771   1.917  15.181 -0.2626  0.2716  0.5905
11542W        W27726  16.259  16.108   0.668  0.1834  0.1763  0.3463
11543W        W27727  14.199   7.214  10.697 -0.0916  0.4231  0.2861
11544W        W27728   0.489  17.534  16.199  0.0890  0.1104  0.2524
11545W        W27729   5.236  12.628   4.982  0.0537 -0.2361 -0.3276
11546W        W27730  17.441   5.783  11.885  0.1124  0.2085 -0.1180
11547W        W27731   1.971   3.030  13.162 -0.0088  0.0549  0.1162
11548W        W27732  17.251  15.932   3.205 -0.0695  0.1175  0.1600
11549W        W27733   1.870  10.190  12.263 -0.2078  0.1547 -0.2298
11550W        W27734   2.491  10.458   6.520 -0.0180 -0.1893  0.0077
11551W        W27735   5.354   6.891  15.130 -0.1644  0.1708  0.1510
11552W        W27736   3.626   0.331   1.940  0.0175 -0.0370 -0.1018
11553W        W27737  14.022  12.146  15.770  0.2679 -0.1581  0.1310
11554W        W27738   5.851  12.470  13.916  0.0243 -0.0301 -0.1800
11555W        W27739  13.665  11.955  11.704  0.3082 -0.0128  0.0292
11556W        W27740  15.881   3.776  13.713  0.0167  0.0016 -0.0368
11557W        W27741   9.892   8.240  16.137 -0.1453 -0.1531  0.0744
11558W        W27742   3.853  15.538   0.451  0.2082  0.1281  0.1827
11559W        W27743   1.174   8.534   2.156  0.3432 -0.2329 -0.1104
11560W        W27744  13.015   9.152  15.974  0.0417  0.1400 -0.0046
11561W        W27745   2.190  11.239  13.112 -0.2580  0.0403  0.1628
11562W        W27746  16.525  13.907   5.744  0.1014 -0.0464  0.0381
11563W        W27747   0.928  17.616   3.275 -0.1596 -0.2056  0.2681
11564W        W27748  13.248  10.241   3.575 -0.1966  0.1381  0.0070
11565W        W27749   2.104   7.399   4.112 -0.1639 -0.0301  0.1757
11566W        W27750   4.109   3.396   5.920 -0.0077  0.0101  0.0683
11567W        W27751   1.824   0.459   4.674 -0.3131  0.0660 -0.2716
11568W        W27752  15.121  17.672   0.473  0.1985 -0.4787 -0.1925
11569W        W27753  12.250   4.613  16.015  0.3591 -0.2457 -0.1710
11570W        W27754   4.714  11.724   2.980  0.2123  0.1578  0.0352
11571W        W27755   8.795  14.204  11.829 -0.0826  0.1034 -0.0652
11572W        W27756   4.574  12.937   3.296 -0.0149 -0.4953 -0.2173
11573W        W27757  14.480  14.785  16.878 -0.0154 -0.0561  0.0749
11574W        W27758   5.055   5.604   2.868  0.0338  0.0799 -0.0279
11575W        W27759  11.337   9.661  16.075 -0.1858  0.3405  0.4150
11576W        W27760  12.642  15.571   2.829  0.0084  0.1938 -0.2375
11577W        W27761  13.913   2.972   5.796  0.0275  0.1967 -0.1963
11578W        W27762   9.917  10.130   4.997  0.0506  0.1815 -0.1106
11579W        W27763   0.285   4.466  14.920 -0.0699 -0.2050 -0.1010
11580W        W27764  17.465   9.704   1.942  0.1418  0.2904  0.0483
11581W        W27765  13.336  15.053   5.116  0.2523  0.1005 -0.2318
11582W        W27766  17.288   7.094   2.619 -0.1716  0.0298  0.1526
11583W        W27767   8.240  12.097   0.993 -0.1786  0.2867 -0.2401
11584W        W27768  11.230   7.503   3.510 -0.2769  0.0655  0.1486
11585W        W27769   1.195  17.000  12.692 -0.0157  0.1029 -0.2655
11586W        W27770   0.635   9.430  12.893 -0.0552  0.1993 -0.3810
11587W        W27771  13.172  11.410   4.369  0.0053 -0.0808 -0.2172
11588W        W27772   0.160   1.023  15.384 -0.1562 -0.1850 -0.1309
11589W        W27773   0.788   6.633  14.557 -0.1308  0.0801 -0.3183
11590W        W27774  15.464  17.075   1.466 -0.3134 -0.0339 -0.0345
11591W        W27775  17.060  16.867   4.566 -0.1301  0.1614  0.1370
11592W        W27776   9.126   9.188  14.877 -0.1379 -0.0306  0.1352
11593W        W27777   2.463  10.360   1.853  0.1180  0.1032  0.0066
11594W        W27778   4.742   1.713  16.185  0.0572  0.0430  0.2376
11595W        W27779   3.989   2.764  16.785  0.1703  0.3276 -0.0184
11596W        W27780   0.717   6.351  12.420  0.1074  0.0681 -0.0011
11597W        W27781   7.182  15.158   1.966  0.2230  0.3365 -0.0532
11598W        W27782   6.524   1.774   4.979 -0.0061 -0.0176  0.2348
11599W        W27783  12.514   8.190  12.519 -0.0163  0.1828  0.0373
11600W        W27784   4.210  15.027   5.125  0.2188 -0.2028  0.2194
11601W        W27785  15.357  17.838  12.377  0.2157 -0.0639  0.0042
11602W        W27786  12.258   5.526  15.039  0.0206  0.1565  0.1650
11603W        W27787  11.772   5.733   1.458 -0.3330 -0.1295 -0.0392
11604W        W27788   0.094   7.972   1.661 -0.1234 -0.2067 -0.2516
11605W        W27789  12.233   0.788  14.814  0.3388  0.0416  0.0667
11606W        W27790   6.812   1.489  16.311 -0.2479  0.0493 -0.4348
11607W        W27791  10.167   1.035   3.098  0.0485  0.0082 -0.0872
11608W        W27792  16.943  16.469   4.088  0.0566 -0.3140 -0.1194
11609W        W27793  13.844   3.738  14.617  0.0347  0.2912  0.0815
11610W        W27794   8.630   5.889  14.424 -0.2179  0.0218 -0.1556
11611W        W27795   0.096   2.557   4.790 -0.0245 -0.0465  0.0671
11612W        W27796   3.163   3.161  12.204 -0.1627  0.0139 -0.0902
11613W        W27797  12.117  12.430   2.354  0.0254 -0.2032  0.3351
11614W        W27798   8.419  16.951   5.616 -0.3295 -0.0663  0.0105
11615W        W27799  15.804   5.805  11.695  0.0864  0.0036  0.1485
11616W        W27800   1.983   2.587   4.250  0.4055  0.3949  0.1339
11617W        W27801  14.456   6.679  12.535 -0.2362  0.5282 -0.1890
11618W        W27802  11.945  14.693   5.999 -0.1236 -0.0753 -0.1605
11619W        W27803  14.309  15.133  14.971 -0.0901 -0.1066  0.0329
11620W        W27804  16.004  13.737  12.216 -0.1648 -0.0237 -0.1632
11621W        W27805   7.298  14.097   0.641  0.1127 -0.1151  0.4345
11622W        W27806   0.733  11.701   3.855  0.0457  0.2015 -0.4224
11623W        W27807  14.268   2.228   2.149 -0.1330  0.0406  0.1591
11624W        W27808  15.747  12.774   2.628 -0.0569  0.1654  0.3139
11625W        W27809  14.749   2.051  14.575 -0.4188 -0.1967  0.1501
11626W        W27810  15.984  15.138   1.086 -0.0892  0.0124 -0.2136
11627W        W27811  13.993   5.539   4.558 -0.2521 -0.0521  0.0254
11628W        W27812   8.477  15.617  15.677 -0.3384  0.1188  0.1634
11629W        W27813  14.232   5.855  15.032 -0.0965 -0.1781 -0.0845
11630W        W27814  12.934   4.827   0.112 -0.2727  0.0296  0.0339
11631W        W27815  12.931  10.825   6.434 -0.1971  0.1584 -0.0628
11632W        W27816  14.592   0.239  13.566 -0.1495 -0.0244  0.1155
11633W        W27817   1.231  16.010   5.887 -0.2350 -0.2915  0.1249
11634W        W27818  16.449   7.351   2.159  0.1063  0.2050  0.2416
11635W        W27819  15.318   8.132   4.011  0.0250  0.3030  0.1891
11636W        W27820   7.917  17.075   5.066  0.0066 -0.5140 -0.3921
11637W        W27821   7.428  10.625   1.567 -0.4136 -0.0288 -0.1061
11638W        W27822  15.963  13.561  10.777  0.1094 -0.0156 -0.1341
11639W        W27823   5.642   1.950   5.091 -0.0600 -0.0276  0.1172
11640W        W27824  12.318   4.810   3.468 -0.1827 -0.0900 -0.0155
11641W        W27825   8.325  12.821  13.283 -0.2711 -0.1105 -0.1879
11642W        W27826   8.170   3.443   3.156 -0.2600  0.1075 -0.2285
11643W        W27827   7.966  13.464   4.186  0.4848  0.0042  0.2712
11644W        W27828  12.801   9.828  11.866 -0.0271 -0.4022  0.0817
11645W        W27829  14.518   3.851   5.134 -0.0429 -0.0617 -0.0142
11646W        W27830  11.447   4.453  16.441  0.0830  0.1373  0.2975
11647W        W27831  17.744  17.068  15.887 -0.0062 -0.0939  0.1345
11648W        W27832   1.624   9.872  13.233 -0.0595 -0.0989  0.2444
11649W        W27833  14.919   2.041  12.699  0.0215  0.1303  0.0246
11650W        W27834  14.970  14.008  14.363  0.0921 -0.1409  0.2355
11651W        W27835  11.479  13.196   0.608 -0.1268 -0.1534 -0.2925
11652W        W27836  10.786  17.709  15.395 -0.2867  0.2381  0.1507
11653W        W27837   7.017  16.016   2.543 -0.0062 -0.0876  0.0168
11654W        W27838   4.262   3.495   0.757  0.0826  0.0579  0.0462
11655W        W27839  13.967  11.186   3.589 -0.0991  0.2851 -0.3474
11656W        W27840   5.420   3.010  12.227 -0.3541  0.0952 -0.1397
11657W        W27841  17.201   4.460  13.967  0.1048  0.0983  0.0038
11658W        W27842  13.787   5.040  14.054 -0.2538 -0.2307  0.0802
11659W        W27843   3.046  17.603  11.659 -0.0250 -0.0004 -0.0279
11660W        W27844   1.954  14.215  11.362 -0.0714 -0.2618  0.1821
11661W        W27845   2.290  13.606  14.344 -0.1707  0.2061  0.0894
11662W        W27846   4.318   6.492  12.024 -0.2090 -0.0689  0.1459
11663W        W27847  14.136   5.122   3.953  0.0854  0.1514  0.0833
11664W        W27848   4.236   5.169   4.260  0.0535  0.0363 -0.1855
11665W        W27849   5.233  14.220   3.683  0.1696  0.0214 -0.0446
11666W        W27850  11.177  10.066   5.875  0.1254 -0.1181 -0.1916
11667W        W27851   7.830  12.423  11.273  0.0561  0.1050 -0.1818
11668W        W27852  12.749   2.412  13.246  0.0369  0.1465 -0.0386
11669W        W27853  12.620   6.792  13.052 -0.1176 -0.2178 -0.0623
11670W        W27854   3.902  14.805   1.293 -0.0018 -0.1016  0.1288
11671W        W27855  10.721   1.818  16.002  0.0291  0.0180 -0.1167
11672W        W27856   4.092  14.960   5.618 -0.0569 -0.0265 -0.3417
11673W        W27857   9.308   6.825  15.200  0.0955 -0.2352 -0.3483
11674W        W27858   7.649  13.890  13.046  0.0903  0.0366 -0.0393
11675W        W27859   5.733   1.476   4.406  0.2230  0.0148  0.1975
11676W        W27860  12.039  15.316   3.882 -0.1248 -0.2262 -0.0619
11677W        W27861  17.586  16.501   1.985  0.0530 -0.2411  0.1707
11678W        W27862  11.960   4.174   0.873  0.0616 -0.0759 -0.2270
11679W        W27863   0.956  13.395  15.477  0.1677 -0.4714  0.0128
11680W        W27864  12.284  11.319  15.368 -0.0945 -0.2878  0.0839
11681W        W27865  16.767   6.524  14.652  0.5039 -0.1882 -0.1208
11682W        W27866  14.204  11.707   4.236 -0.0367 -0.1978 -0.0606
11683W        W27867   3.111  15.538  15.292  0.3207 -0.0137 -0.0026
11684W        W27868  12.756   5.169   4.729 -0.1408  0.0074  0.2454
11685W        W27869   7.390  13.780   4.520  0.0180 -0.0999  0.0810
11686W        W27870   3.025  11.390  15.575  0.0900  0.0024  0.1064
11687W        W27871  12.865   5.262   3.997  0.1329 -0.1658  0.0245
11688W        W27872  17.088   7.249   5.408 -0.2644  0.3382 -0.0984
11689W        W27873  11.984   2.127  13.039 -0.0958  0.0055  0.1200
11690W        W27874  16.019   2.766  16.208 -0.1427  0.3603  0.1687
11691W        W27875  14.898  17.541   0.040  0.1336 -0.2383 -0.2218
11692W        W27876  13.191   4.563   4.571  0.3541  0.0036 -0.0743
11693W        W27877   1.534  17.837  13.512 -0.1671  0.1951  0.0253
11694W        W27878   6.156   9.620   5.939 -0.1982 -0.4734  0.1509
11695W        W27879  11.917   7.458  14.163  0.0621  0.1468  0.0350
11696W        W27880  10.664   3.276   5.037 -0.2520 -0.2754  0.0734
11697W        W27881   7.852   1.218   1.279  0.2473  0.0559  0.1345
11698W        W27882  11.620  15.927  14.832 -0.1400  0.0254 -0.1081
11699W        W27883  17.694   7.043   4.844 -0.1541  0.0518 -0.1050
11700W        W27884  14.994   3.531   1.196 -0.1520 -0.3021 -0.3012
11701W        W27885   3.330   7.799   4.174 -0.1515 -0.2683  0.0941
11702W        W27886  11.226   5.744   3.507  0.3239 -0.1246  0.2483
11703W        W27887   6.492   7.289  16.103 -0.0663 -0.1275 -0.1724
11704W        W27888   4.911  17.013   2.558  0.0579  0.2273  0.1555
11705W        W27889   1.385   9.690  12.778 -0.0429  0.0415 -0.2939
11706W        W27890   1.982   7.962   4.049 -0.3646  0.5742  0.2656
11707W        W27891   9.218   6.972  12.804 -0.0246 -0.1148  0.2525
11708W        W27892   9.726  12.337  14.293  0.1539 -0.1146 -0.2875
11709W        W27893   0.267   3.897  14.206 -0.1833  0.0394  0.0243
11710W        W27894  16.328  13.981  12.722 -0.0282  0.0745  0.0588
11711W        W27895   4.241   3.829   4.097 -0.2331  0.2213 -0.2620
11712W        W27896   1.069  16.009   3.085 -0.1460 -0.1875 -0.4539
11713W        W27897   6.373  10.830  11.702 -0.1478 -0.0837 -0.2792
11714W        W27898  17.046  15.692   5.095  0.0382  0.4800  0.0228
11715W        W27899   7.606   0.040   0.253  0.0795 -0.1035 -0.1513
11716W        W27900  17.775   2.989  15.317  0.2094  0.1429 -0.0985
11717W        W27901  15.088   6.159   1.718  0.2029  0.0183  0.1731
11718W        W27902  15.752  14.213   1.002  0.1583  0.1246 -0.0018
11719W        W27903  10.941   3.043   5.442  0.1196  0.2392  0.2195
11720W        W27904   9.919  11.239  14.465 -0.0327 -0.0784 -0.0153
11721W        W27905   6.255   7.683  14.373 -0.2117  0.1205  0.3101
11722W        W27906  16.566  14.873  13.250 -0.1163  0.1587  0.0622
11723W        W27907   3.353  11.540   0.667  0.1970  0.0274 -0.0190
11724W        W27908   2.859  12.315   4.645  0.3108  0.0848 -0.3609
11725W        W27909  10.863  17.292   1.644  0.1225 -0.1648 -0.2115
11726W        W27910   9.532   6.459  16.840 -0.4269  0.2901  0.0303
11727W        W27911  10.874   2.800  12.814  0.2120 -0.1744 -0.2166
11728W        W27912   1.251  12.616  14.452 -0.1023 -0.0523 -0.1171
11729W        W27913   0.578   3.703   0.696 -0.1727 -0.2021  0.0156
11730W        W27914   9.914  16.384  11.010 -0.1844  0.1537  0.0283
11731W        W27915  17.522   1.672  15.399  0.1397  0.0118  0.3233
11732W        W27916  16.913   5.131   5.365  0.3830 -0.1022  0.3406
11733W        W27917  13.493  13.728   1.626  0.2290 -0.0083 -0.5129
11734W        W27918   8.061  11.291  14.821 -0.2040  0.2293  0.3583
11735W        W27919   3.134  15.953   4.331  0.1351 -0.2127  0.1168
11736W        W27920   4.697  14.371  14.329 -0.1249 -0.1413  0.3400
11737W        W27921  16.099   4.750  16.906 -0.1822  0.5735  0.2463
11738W        W27922  15.057  11.039  15.574  0.4476  0.2024  0.3245
11739W        W27923   3.676  14.125   0.958 -0.0566  0.0448 -0.0134
11740W        W27924   4.269   7.810  14.530 -0.0066 -0.2453 -0.0809
11741W        W27925   6.889   7.076   4.010 -0.1323 -0.1140  0.3625
11742W        W27926  12.783   2.904  14.481 -0.2606  0.1811  0.0417
11743W        W27927  16.610  14.335   5.450  0.1520 -0.2724  0.1113
11744W        W27928   9.966   8.969   4.034 -0.0676 -0.0387  0.1042
11745W        W27929   5.916  11.017  14.965  0.2550 -0.0033 -0.1260
11746W        W27930   0.233   3.436  12.212 -0.0398  0.0205 -0.0524
11747W        W27931   6.243   0.375   4.098  0.0507 -0.0363  0.0856
11748W        W27932   4.105   0.211  13.581 -0.1046 -0.1591  0.1996
11749W        W27933   8.919   6.827   4.924  0.1484 -0.0991 -0.0097
11750W        W27934   6.240   1.837  14.451 -0.1037  0.0136 -0.1581
11751W        W27935   1.247   5.139  12.647 -0.0325 -0.1227 -0.0825
11752W        W27936  15.447  10.923   1.943 -0.2561  0.1055  0.0653
11753W        W27937  15.792  12.043   5.676 -0.0420  0.0523 -0.2359
11754W        W27938   2.744  17.007  12.658 -0.2271 -0.1416 -0.2398
11755W        W27939  13.785   1.472   1.162 -0.1149  0.0716  0.1318
11756W        W27940   4.188   0.366  12.649 -0.0069  0.0769  0.0919
11757W        W27941  10.153   7.400   1.378  0.3439 -0.0485 -0.0791
11758W        W27942  14.667  11.605   1.183  0.1180  0.0098  0.1492
11759W        W27943  11.016  12.652   5.674 -0.0228 -0.0792  0.0923
11760W        W27944   9.747   8.201   3.428  0.0143 -0.4112 -0.0262
11761W        W27945  13.867  16.913  11.688  0.2916  0.1188 -0.1185
11762W        W27946  17.254   5.327  12.918 -0.0637  0.4124  0.1918
11763W        W27947  10.892   0.365   1.777  0.2616 -0.0333  0.1693
11764W        W27948  14.342   5.258   0.200 -0.0836  0.1330  0.1449
11765W        W27949  15.785   2.644   5.181 -0.1587  0.0733  0.4984
11766W        W27950   8.015   9.769  16.836  0.0437  0.0055  0.3683
11767W        W27951  10.451  15.683  11.976  0.1313 -0.0643  0.0450
11768W        W27952   4.901  13.540  11.869  0.0285  0.1285 -0.5365
11769W        W27953   4.234  10.881   5.120 -0.1227  0.2013 -0.0638
11770W        W27954  15.092  15.985  16.093 -0.0548 -0.0322  0.2145
11771W        W27955  17.228  17.295   3.081  0.3324 -0.1832  0.3461
11772W        W27956   8.471  14.979   2.729 -0.0523  0.0805  0.3594
11773W        W27957  13.686   5.173   2.363 -0.0660 -0.4294 -0.0887
11774W        W27958  13.128  17.265   1.471  0.0987 -0.1373 -0.0405
11775W        W27959   0.399  14.192  13.311  0.2165 -0.2333  0.1063
11776W        W27960   4.181   4.576   1.557 -0.2309  0.2698 -0.2986
11777W        W27961  15.134   8.051  16.744  0.3562  0.0139  0.1080
11778W        W27962  10.220   2.771  15.857  0.0349  0.1324 -0.1830
11779W        W27963  15.687   6.931  14.415  0.3638  0.1110 -0.3161
11780W        W27964  15.143   7.184  16.200 -0.2659 -0.1638 -0.0916
11781W        W27965   4.188  17.414   1.807 -0.2417 -0.1898  0.2474
11782W        W27966   2.131  13.704  12.092  0.0978  0.1360  0.0436
11783W        W27967  15.648   1.015  14.774 -0.1053  0.0998  0.1647
11784W        W27968   7.415   3.264  16.593  0.4369  0.0491 -0.3297
11785W        W27969   8.955  14.156   4.716  0.0816 -0.0004  0.0008
11786W        W27970  13.863  13.237   5.328  0.0302  0.0750  0.1486
11787W        W27971   5.622  16.997   0.923 -0.1857  0.0567  0.0850
11788W        W27972  11.497   6.041   0.700  0.0013 -0.1238 -0.1146
11789W        W27973  14.860   4.870  12.975 -0.3917 -0.1094 -0.0888
11790W        W27974   0.279   8.173  11.588  0.2111 -0.0721 -0.1845
11791W        W27975  16.104   9.798   4.399 -0.2660  0.1449 -0.2102
11792W        W27976  15.281  13.254   4.691  0.1550 -0.2378  0.0871
11793W        W27977   1.314   1.656  16.581  0.1899 -0.0101 -0.0253
11794W        W27978   8.330   2.668  11.939 -0.4409  0.0092 -0.2487
11795W        W27979   1.833   5.140  15.630  0.3183 -0.2911 -0.1115
11796W        W27980   8.593  15.722  14.715 -0.5620 -0.1110  0.2347
11797W        W27981  11.079   9.161  12.653  0.1031  0.1593  0.0856
11798W        W27982   0.928   9.091   3.962  0.0236  0.1068  0.1347
11799W        W27983  15.484   8.885   0.876 -0.0207  0.2747 -0.1983
11800W        W27984   3.314  11.132   1.149 -0.0274  0.2380 -0.3026
11801W        W27985   0.522   4.606  12.820 -0.2925 -0.2783  0.0557
11802W        W27986  11.002   1.241  12.487 -0.1593 -0.0268 -0.0785
11803W        W27987   8.536   3.138   3.246 -0.0544 -0.1115 -0.2656
11804W        W27988   8.260  12.155   0.464  0.0339 -0.2098  0.2988
11805W        W27989   8.316   8.727   1.529 -0.1704  0.2057 -0.1106
11806W        W27990  12.967   6.062  16.750 -0.1251 -0.2160 -0.0655
11807W        W27991  17.549  16.092  14.589 -0.4352 -0.1195  0.0115
11808W        W27992   4.375  12.788  15.381 -0.1374  0.0300  0.1131
11809W        W27993  12.714  11.611   0.065 -0.2356 -0.1543  0.3517
11810W        W27994   6.564   6.523  14.720  0.0893  0.0600 -0.0650
11811W        W27995  15.541   7.897   4.401 -0.0562  0.0097  0.3016
11812W        W27996  13.248   9.699  11.664 -0.0852 -0.3861  0.1947
11813W        W27997   9.496   1.036   3.751 -0.1706 -0.0970  0.1741
11814W        W27998   1.051   0.802  12.372 -0.0518 -0.1994  0.2374
11815W        W27999  15.199  14.650  13.799 -0.2098  0.1305  0.2253
11816W        W28000   5.805  10.660  16.041 -0.2340 -0.2525  0.3512
11817W        W28001   8.905   9.724   1.956 -0.3046 -0.0413 -0.0235
11818W        W28002   4.808   3.283   3.980  0.2273 -0.3443  0.2179
11819W        W28003   4.955  13.202  12.275 -0.0707  0.1181 -0.2116
11820W        W28004  16.630  16.805   3.721 -0.0949 -0.0759 -0.0590
11821W        W28005  14.245   1.539   0.621 -0.0481  0.1504 -0.0035
11822W        W28006   3.796   1.279  15.824  0.2247 -0.0280 -0.0113
11823W        W28007   0.366   7.920   4.959  0.3915  0.1646 -0.2852
11824W        W28008   8.466  17.728  13.961  0.1223 -0.1430  0.1348
11825W        W28009   9.578   4.312  12.772  0.0736 -0.2218 -0.4982
11826W        W28010  12.809  11.555   5.284 -0.1026  0.1380  0.0143
11827W        W28011   3.236  17.863  12.602 -0.1405 -0.0455 -0.1106
11828W        W28012  11.620  16.478  16.075 -0.1439 -0.1176  0.0116
11829W        W28013   8.541   1.696   2.532  0.1074 -0.0381  0.1466
11830W        W28014   9.245   4.468   3.844  0.1968 -0.3326  0.0412
11831W        W28015  14.272   5.993   2.731  0.1420  0.2810  0.0777
11832W        W28016  11.774   6.789  16.737  0.1032  0.0668 -0.2651
11833W        W28017   6.337   2.213  15.456 -0.0577 -0.1782  0.0786
11834W        W28018   7.501   6.454  12.279  0.1167 -0.1455 -0.2679
11835W        W28019  12.935  17.853  14.449  0.0242  0.1709 -0.0397
11836W        W28020   0.601   8.524  16.735 -0.1789  0.1062 -0.1832
11837W        W28021  14.322  14.015   4.774 -0.3273 -0.0285  0.0331
11838W        W28022   1.630  17.791  15.574  0.1480  0.0977  0.0310
11839W        W28023  11.754   0.143   5.453  0.0971  0.1815 -0.1932
11840W        W28024  17.598   7.159   3.020 -0.0725  0.1759 -0.3458
11841W        W28025  16.079   9.492  13.009 -0.1299  0.2501 -0.0322
11842W        W28026   2.020  14.413   3.777 -0.0844  0.3544 -0.2307
11843W        W28027  13.485   2.122  11.772 -0.1777 -0.0237  0.0272
11844W        W28028   1.476  15.046  12.456  0.0637 -0.1716  0.2220
11845W        W28029  12.997   4.612  14.034 -0.0114  0.1862  0.2064
11846W        W28030   5.893   0.811  12.348  0.2238  0.1110  0.0343
11847W        W28031   1.324  17.112   2.943 -0.1364 -0.0021 -0.1766
11848W        W28032  11.125   0.617  14.132 -0.1736  0.0736  0.2588
11849W        W28033   0.586  13.613  15.065 -0.1042  0.2765  0.0914
11850W        W28034  13.282  15.888   3.878  0.0367  0.2178 -0.3014
11851W        W28035  16.829   4.189   1.408 -0.0029 -0.3096 -0.2860
11852W        W28036  13.277  10.906  14.260  0.0870  0.0327 -0.0610
11853W        W28037  16.647  12.105   3.767  0.2755 -0.1765  0.0978
11854W        W28038   5.596  14.382   5.044 -0.1292  0.1913  0.1821
11855W        W28039   3.886   3.836  15.921  0.3069 -0.1371 -0.0686
11856W        W28040   1.606  10.702  11.545 -0.2115 -0.2229  0.0366
11857W        W28041  11.225  16.152  15.304 -0.3348  0.3106  0.1612
11858W        W28042   8.126  14.221  15.122  0.0473 -0.3072 -0.0696
11859W        W28043   9.701  10.854  16.408  0.0815 -0.3949  0.2529
11860W        W28044  10.802   3.196  16.528  0.1537 -0.2155 -0.2402
11861W        W28045   1.342   5.781   2.677 -0.0219  0.2040 -0.1109
11862W        W28046   7.173   3.175  15.034  0.1481 -0.2113  0.0721
11863W        W28047   6.235  16.166  16.233 -0.1464  0.1438 -0.0069
11864W        W28048  17.779   3.332   1.821  0.0353 -0.1461  0.2628
11865W        W28049   0.658   5.238   1.350 -0.2656 -0.2496 -0.0328
11866W        W28050  16.205   4.499   0.426  0.4096 -0.0271  0.1218
11867W        W28051   7.887   2.394  13.118 -0.0457  0.1042  0.1607
11868W        W28052   1.759   7.011   0.272  0.0152 -0.2692 -0.2237
11869W        W28053  17.247  17.802  13.792  0.1502  0.0911  0.0138
11870W        W28054   8.383  12.953  15.835 -0.0485  0.3047 -0.0097
11871W        W28055   8.982   3.216  11.993 -0.0239  0.0061 -0.0510
11872W        W28056   1.758   8.779  11.804 -0.1788 -0.1679  0.1697
11873W        W28057   8.085  10.033  14.891  0.0168  0.0455 -0.4297
11874W        W28058   1.415  17.478  13.891  0.0392  0.2662 -0.5771
11875W        W28059   2.461  10.992  16.717  0.0570 -0.0340 -0.3422
11876W        W28060  10.057  16.867  14.213  0.4142  0.0698  0.0642
11877W        W28061   3.730   3.770  12.656 -0.1846 -0.1722 -0.0712
11878W        W28062  15.607   3.547   4.372  0.3311 -0.0887  0.3191
11879W        W28063  17.408  14.742   1.341 -0.0915 -0.0179  0.1084
11880W        W28064   1.349  17.281  14.630  0.2055 -0.4635 -0.3322
11881W        W28065   0.847   5.583   5.559 -0.0149 -0.1614  0.0629
11882W        W28066   0.120   7.243  15.438  0.1142 -0.0694  0.1502
11883W        W28067   4.385  12.522   2.397  0.3093 -0.0208 -0.1123
11884W        W28068   4.040   8.303  13.633 -0.0950 -0.0226  0.1489
11885W        W28069   3.492   2.710  16.895  0.2631  0.0714  0.2823
11886W        W28070   0.729   1.042   3.003 -0.1918 -0.0975  0.2105
11887W        W28071   4.817  14.095   0.600  0.0238  0.2481  0.0204
11888W        W28072   0.003   4.263   5.002  0.0848 -0.1258 -0.0560
11889W        W28073   0.967   2.652  13.496  0.2332  0.3860  0.0074
11890W        W28074   8.016   8.436  12.048  0.2786 -0.1314  0.3424
11891W        W28075  16.791   9.991   4.333  0.1148 -0.5515 -0.1074
11892W        W28076  17.633   5.564   4.065  0.0360 -0.1646  0.1268
11893W        W28077   5.502   4.698  15.271  0.1934  0.0515 -0.2204
11894W        W28078  14.462   1.905   1.651 -0.0186  0.2501 -0.3607
11895W        W28079  11.369   8.167   1.267  0.2695  0.3331  0.1985
11896W        W28080   6.091  16.269  14.213 -0.2431 -0.1113 -0.3589
11897W        W28081  13.263   1.809   3.973 -0.0424  0.0361  0.0228
11898W        W28082  10.843   6.574   5.429  0.1645  0.0653  0.0406
11899W        W28083  16.030   3.417   5.342 -0.1115  0.1062  0.1122
11900W        W28084   0.675  10.919  14.132  0.0656 -0.0379  0.3040
11901W        W28085   4.923  11.765  12.468 -0.1565  0.0675 -0.1957
11902W        W28086   4.858  15.760   1.185  0.1159  0.1506 -0.0550
11903W        W28087  10.722   0.031   6.079  0.1925 -0.1164  0.4679
11904W        W28088  12.072  16.233   1.966  0.0166  0.3732  0.1520
11905W        W28089   0.637  12.605   4.847 -0.0676 -0.0980  0.3104
11906W        W28090   8.018  17.245  14.218 -0.0585  0.0143 -0.1933
11907W        W28091   5.912   0.506  15.455  0.0360 -0.1395  0.0381
11908W        W28092  10.226   1.051  16.303 -0.3744  0.2253  0.0713
11909W        W28093   7.596   6.132   5.703  0.0679 -0.2213 -0.2126
11910W        W28094  12.601  10.713   3.233 -0.1314 -0.2921 -0.1115
11911W        W28095  12.600  12.626  14.196 -0.1378 -0.2040  0.0029
11912W        W28096   8.988  12.338  14.041 -0.1015 -0.0967  0.0266
11913W        W28097  17.778   2.956   4.625 -0.1834 -0.2217 -0.1445
11914W        W28098   2.407   5.371  13.337 -0.1179  0.0302 -0.1195
11915W        W28099   0.463   3.013  16.542 -0.1661  0.1897 -0.0768
11916W        W28100   4.060   6.452  16.203 -0.1995  0.0218  0.0283
11917W        W28101  14.165  15.405  13.769  0.1342 -0.0547  0.3762
11918W        W28102   0.053  15.441   4.385 -0.0316 -0.0486  0.0808
11919W        W28103  11.462   6.542   1.960  0.1379  0.1599 -0.1077
11920W        W28104  15.063  13.316  12.853  0.0115 -0.0941  0.3828
11921W        W28105   1.073  17.853   2.632  0.1281 -0.0627 -0.0817
11922W        W28106  14.489   8.299   5.294  0.0397  0.1834 -0.1701
11923W        W28107   5.800   0.668   4.967 -0.0115  0.1139  0.2013
11924W        W28108   7.530  11.974  15.357  0.1456 -0.0012  0.0102
11925W        W28109  10.816  11.086  15.396  0.0454 -0.0502 -0.0866
11926W        W28110   2.718   6.886   1.915 -0.0145 -0.2163 -0.2071
11927W        W28111  16.736   4.200   3.840 -0.0358 -0.0227  0.1398
11928W        W28112   7.927   9.100  16.234  0.2199 -0.5693 -0.4284
11929W        W28113   7.426  10.604   2.084  0.1328 -0.0700 -0.0555
11930W        W28114   0.098   4.054   3.431  0.0328 -0.0406 -0.0510
11931W        W28115   2.165   0.100   5.387  0.0069  0.2077 -0.1620
11932W        W28116   7.576   7.246   6.470 -0.0972  0.0607 -0.1852
11933W        W28117  15.468  17.320   5.117  0.0404  0.0025  0.1007
11934W        W28118   4.516   0.927   0.840  0.1229  0.1203 -0.0906
11935W        W28119  11.857   8.932   0.595  0.2231  0.3005  0.0566
11936W        W28120  15.279   8.135   0.341 -0.1523  0.2437  0.0966
11937W        W28121  17.265   8.620  15.448  0.0176  0.0484  0.0649
11938W        W28122  13.497  15.736   0.008  0.0307  0.0573  0.2939
11939W        W28123   1.758  13.866  13.688  0.0661 -0.1475 -0.0704
11940W        W28124   9.870   6.520  12.249  0.0815 -0.1902  0.2403
11941W        W28125   7.052   5.977   2.145 -0.0949 -0.3986  0.1197
11942W        W28126   7.069  12.526  16.168  0.1597 -0.1893  0.1681
11943W        W28127  10.571   2.393  15.856 -0.2204  0.1613  0.1892
11944W        W28128   9.047   0.737   2.602  0.0108  0.3642 -0.1376
11945W        W28129   7.333   9.647   0.641  0.3303 -0.2187  0.0929
11946W        W28130   0.831   9.183  13.316  0.1914 -0.3982 -0.1450
11947W        W28131   4.407  12.351   0.737 -0.6066  0.0273 -0.0218
11948W        W28132  16.134   8.110   6.646  0.1373 -0.1763 -0.0818
11949W        W28133   0.177  12.838   2.794  0.1029  0.1028 -0.0526
11950W        W28134   4.604  17.555  16.579  0.1171 -0.2550 -0.2490
11951W        W28135  15.135  11.399  12.538 -0.0583  0.1480  0.1709
11952W        W28136  15.451   0.512  13.545  0.1400  0.1440  0.0433
11953W        W28137  15.419   9.317  11.470  0.2717 -0.0031 -0.0331
11954W        W28138  15.292   6.664   1.511 -0.3879  0.0225  0.1071
11955W        W28139  12.276   6.663  16.472 -0.1894 -0.2059 -0.0402
11956W        W28140   2.015  12.860   3.589  0.1286 -0.1390 -0.2707
11957W        W28141   1.679  11.782  14.663  0.3404  0.0319  0.3374
11958W        W28142   5.468   1.012   3.071 -0.3604  0.0684 -0.3113
11959W        W28143  15.169   7.991   3.553  0.0926 -0.1278  0.0267
11960W        W28144   0.619   3.744   1.934  0.0266  0.0905 -0.2218
11961W        W28145   9.445  16.388  11.657  0.0180 -0.4121  0.0462
11962W        W28146   5.113   0.699  11.753 -0.1352 -0.1511  0.1526
11963W        W28147   8.841  13.382  11.672 -0.0132  0.0317  0.3715
11964W        W28148  10.410  16.038  13.639 -0.1436  0.0670  0.2131
11965W        W28149  17.220  16.157  13.250 -0.1809  0.0686 -0.0643
11966W        W28150  17.087  13.221   2.422 -0.1230 -0.1117 -0.0611
11967W        W28151  11.726   8.850   4.742 -0.0515 -0.0363 -0.0989
11968W        W28152  17.009   8.136  12.601 -0.1156 -0.4004  0.1022
11969W        W28153   5.541  10.430  13.665  0.0344 -0.0540 -0.0844
11970W        W28154  16.190   5.687   4.616 -0.0060 -0.0310 -0.0276
11971W        W28155   0.965   1.466  13.346  0.0931  0.2780 -0.1486
11972W        W28156   3.923   4.715  14.292  0.0345 -0.1101 -0.0007
11973W        W28157  13.031   5.236  15.676 -0.1607  0.1611 -0.0445
11974W        W28158   5.975   3.583   1.122  0.1068 -0.1665  0.1721
11975W        W28159   5.405   1.552   0.479  0.0732 -0.1103 -0.3349
11976W        W28160  10.965   0.390  14.583 -0.3390  0.1406 -0.2250
11977W        W28161   9.947  13.259  12.755  0.0870  0.4032 -0.0768
11978W        W28162   6.788  17.119   2.281  0.2769  0.2159 -0.2233
11979W        W28163  16.508   3.398  16.599  0.3842  0.1414  0.3347
11980W        W28164  13.865  12.910  15.397  0.1805  0.2831 -0.2699
11981W        W28165  10.668   9.754  16.563 -0.1820 -0.0336 -0.2219
11982W        W28166   3.307   0.586  11.817  0.1239  0.0858 -0.0084
11983W        W28167   1.261  11.440   0.628 -0.1301  0.0178  0.0871
11984W        W28168   3.405   2.535   2.453  0.0313  0.0561  0.0719
11985W        W28169  10.777  10.940   1.245 -0.1979  0.1628 -0.0238
11986W        W28170   6.009   5.296  11.137 -0.0026 -0.0301  0.0377
11987W        W28171  13.322   5.153   6.211 -0.0060  0.3180 -0.1778
11988W        W28172  11.612   5.184   3.915 -0.0231  0.1909  0.1136
11989W        W28173   1.658  16.696  14.385  0.1283  0.1555 -0.0306
11990W        W28174  14.797   1.413   0.015 -0.2719 -0.1898  0.2844
11991W        W28175   8.747   3.648   0.251  0.1445 -0.0959 -0.3801
11992W        W28176  10.121  14.874  14.724  0.1329  0.0662 -0.2906
11993W        W28177   5.604   5.590  15.547  0.2030  0.1195  0.1174
11994W        W28178   2.311   5.479   1.780 -0.3668 -0.1807 -0.2447
11995W        W28179  14.449   0.227   2.846 -0.0559 -0.0040 -0.0082
11996W        W28180   9.172   9.318   4.687  0.1664  0.0626 -0.0268
11997W        W28181   8.945  11.408   2.464  0.0188  0.0109  0.3082
11998W        W28182  15.754   0.757   2.465 -0.0213  0.0092 -0.0939
11999W        W28183  15.725   6.940  12.711 -0.1633 -0.1015  0.0044
12000W        W28184   8.698  16.031   4.248 -0.0121  0.1162  0.1054
12001W        W28185   6.990   9.818   0.298 -0.1160  0.1591 -0.0766
12002W        W28186   0.951   6.258  15.382  0.0038  0.1600  0.1004
12003W        W28187   5.702   3.867  16.591 -0.0910  0.0294 -0.0929
12004W        W28188  12.706  13.489  12.702  0.2591 -0.2301  0.1152
12005W        W28189   7.484  12.393   3.861  0.2411 -0.3027  0.0470
12006W        W28190   9.734   2.132   1.823  0.2958  0.0387  0.0116
12007W        W28191   3.503   2.258  12.577  0.0453 -0.0632  0.0472
12008W        W28192  17.834   0.181   6.446 -0.0292  0.2992  0.0504
12009W        W28193   8.362   7.665   4.244  0.1882  0.3291 -0.0697
12010W        W28194  10.841  13.969   4.475 -0.0933  0.1562 -0.2613
12011W        W28195   6.305  10.279   4.564 -0.2903 -0.0862 -0.1229
12012W        W28196   7.759  12.023   1.043  0.1706  0.1398 -0.0554
12013W        W28197  15.097   4.588  12.530  0.0368 -0.1160 -0.0862
12014W        W28198   1.134  12.803  13.381 -0.1588  0.0112  0.2786
12015W        W28199  15.692  10.032  12.309 -0.1991 -0.0747 -0.2016
12016W        W28200   5.093   8.313  13.341 -0.0841  0.1276  0.0132
12017W        W28201   3.665  10.884  15.168 -0.0551  0.2861 -0.0313
12018W        W28202   5.060   8.879  15.067  0.1399  0.2063  0.0200
12019W        W28203  13.848   2.317  15.351  0.0836 -0.2175 -0.0136
12020W        W28204   2.557   7.171  16.389  0.0498 -0.2092  0.0411
12021W        W28205   7.091  14.008   1.768  0.0062  0.1334 -0.1207
12022W        W28206   5.847  15.037   1.634  0.0631  0.1229  0.0578
12023W        W28207  11.647   7.143  15.775  0.0108 -0.0910 -0.2197
12024W        W28208   2.060  14.866   1.702 -0.0425 -0.2133  0.0078
12025W        W28209   3.830  10.720   3.490  0.0814  0.1542 -0.2725
12026W        W28210   3.254   1.854  13.358  0.0304 -0.4669 -0.2698
12027W        W28211  13.569   0.142  13.174  0.3833 -0.1208  0.2317
12028W        W28212  15.102   9.558  13.050  0.0528  0.1912  0.0060
12029W        W28213  11.703   2.790   1.174  0.2202 -0.1167 -0.1964
12030W        W28214  14.989  13.235  12.373  0.1297  0.2467 -0.2596
12031W        W28215  16.707   1.741  13.035 -0.2292 -0.0190 -0.1711
12032W        W28216   4.774   7.883   0.373 -0.2730  0.1157  0.2418
12033W        W28217   9.413   3.232  13.680  0.0254 -0.0038  0.2735
12034W        W28218   3.735   8.543  15.717 -0.0473  0.0320  0.3259
12035W        W28219   0.175  10.938   1.543  0.0776 -0.0079 -0.1913
12036W        W28220   6.446   2.135   3.090  0.0471  0.1319  0.0410
12037W        W28221   8.252  16.159  12.893  0.3114  0.2139  0.1317
12038W        W28222   4.366   6.403   0.136  0.0917  0.1200 -0.3063
12039W        W28223  15.144   5.561   5.118  0.2067  0.0739  0.1581
12040W        W28224   5.683   7.208   2.123 -0.0003 -0.0282 -0.0547
12041W        W28225   4.655   7.386   0.645 -0.0617 -0.2519 -0.1490
12042W        W28226   4.224   0.813  12.968  0.2728 -0.3214 -0.2976
12043W        W28227  11.710   8.603  16.498 -0.2513 -0.1215 -0.0901
12044W        W28228  16.438   3.710  14.951 -0.2799  0.0600 -0.1667
12045W        W28229   7.601  15.068  15.704  0.1713  0.0920 -0.0383
12046W        W28230  11.113  15.837  13.265  0.1284 -0.0659 -0.0013
12047W        W28231   3.732  13.690   5.045  0.0040  0.0790  0.1441
12048W        W28232   3.824   4.757  16.142 -0.2943 -0.2710 -0.0432
12049W        W28233  12.045   8.321  12.320 -0.0770  0.0490  0.2016
12050W        W28234   3.151   4.666   1.269 -0.2376  0.0399 -0.0220
12051W        W28235   5.629   9.345  14.355  0.1920 -0.0646  0.0002
12052W        W28236   9.368   8.788  15.053  0.1474  0.2563 -0.2850
12053W        W28237   0.105   7.293  12.203  0.2945  0.0526  0.3527
12054W        W28238  12.944  15.692  13.224  0.0717 -0.0006  0.0038
12055W        W28239   8.486  12.099  11.824  0.0860 -0.2217 -0.1888
12056W        W28240  14.452  12.616   2.585  0.0226 -0.4308 -0.3681
12057W        W28241   3.901   5.565   2.788  0.2880 -0.1297  0.3849
12058W        W28242   1.708   3.999   6.053  0.1756 -0.1400 -0.2896
12059W        W28243  16.126  14.604  13.151  0.3806  0.1885  0.4594
12060W        W28244  14.475  10.328   2.791 -0.0475 -0.1383  0.2523
12061W        W28245   5.902   6.716  14.337 -0.0288  0.3433  0.0178
12062W        W28246  11.776   3.300  16.309  0.0257  0.2061  0.2773
12063W        W28247   0.290   3.414   2.112 -0.0056  0.0434  0.1360
12064W        W28248   8.295  14.342   3.622 -0.1271 -0.1804  0.2646
12065W        W28249  17.632   9.207   6.559 -0.0214 -0.0008  0.1355
12066W        W28250   7.907   4.725  11.849  0.0171 -0.0880 -0.0363
12067W        W28251   3.635  13.759  16.596 -0.0049 -0.0964 -0.1872
12068W        W28252   8.781   6.391   5.125  0.2306 -0.0408 -0.3955
12069W        W28253  15.918  12.382  12.412  0.2581  0.0647  0.1517
12070W        W28254  17.075  15.157   4.592 -0.1373 -0.1400 -0.2853
12071W        W28255   0.636   0.799  12.031 -0.1744 -0.1286 -0.0706
12072W        W28256   9.132   4.755  14.104  0.1284  0.2850 -0.1325
12073W        W28257   2.782  12.222   2.664 -0.2703 -0.0698 -0.4058
12074W        W28258   5.336   8.499  14.218 -0.1635  0.1865 -0.0854
12075W        W28259  17.054  16.585  16.804 -0.1052 -0.2430  0.0634
12076W        W28260  12.806  12.337   4.312 -0.0782  0.1036  0.1899
12077W        W28261  15.857  16.079  13.880  0.0748 -0.0274 -0.0501
12078W        W28262  11.385  10.308   4.649  0.1587 -0.2030  0.0785
12079W        W28263   3.829  13.129   2.808 -0.1763  0.1682  0.0384
12080W        W28264  11.294   6.860  16.669 -0.2011  0.0679 -0.1010
12081W        W28265   5.036   0.947  15.681  0.2846 -0.3111  0.4335
12082W        W28266  17.210   9.366  14.714  0.0777  0.0091 -0.1882
12083W        W28267   7.450   4.339  12.561  0.0432  0.2939 -0.3122
12084W        W28268  12.988   7.477  12.015  0.0951  0.0770  0.0574
12085W        W28269  14.770   5.062   1.552  0.0366  0.0496  0.1392
12086W        W28270   8.356   6.336   3.187  0.2097 -0.1146  0.1814
12087W        W28271   4.937  16.887  14.887  0.0520  0.2573  0.1469
12088W        W28272  11.508  14.983  15.067 -0.1271 -0.0161 -0.0374
12089W        W28273  16.243   4.321  13.221  0.2054 -0.0331 -0.3616
12090W        W28274   2.238   8.927  15.166 -0.2281 -0.0926 -0.1296
12091W        W28275   4.824  15.889  15.599 -0.1123  0.1994 -0.1378
12092W        W28276   2.076   2.767   1.539 -0.3795 -0.0512 -0.2467
12093W        W28277   5.900   4.314  16.466  0.0661 -0.1654  0.1077
12094W        W28278   4.104   4.601   0.984  0.1194  0.1437  0.3147
12095W        W28279   4.185  13.138  16.566  0.0090 -0.1364  0.0553
12096W        W28280  14.381   6.607   2.801  0.1318  0.1318 -0.1358
12097W        W28281   9.813   8.492   2.555  0.0799  0.2050  0.0681
12098W        W28282   6.552  16.360  15.045  0.0824 -0.0802 -0.0265
12099W        W28283  15.614   7.950   1.203 -0.0456  0.0805 -0.2147
12100W        W28284   0.258  16.798   5.192 -0.2752 -0.0155 -0.0206
12101W        W28285   9.016  10.602  15.627 -0.2508 -0.0567  0.0010
12102W        W28286   9.448   5.664   1.002  0.0437 -0.3478  0.2310
12103W        W28287   9.039  11.813  12.718  0.0132 -0.2021 -0.0246
12104W        W28288  12.160   0.864  15.322 -0.0708 -0.2165 -0.5585
12105W        W28289   0.068   0.420   2.356 -0.4142  0.1649  0.2496
12106W        W28290  16.351   8.254   2.931  0.0554 -0.1488 -0.1622
12107W        W28291   4.466   5.336  14.402 -0.1678 -0.0524 -0.1019
12108W        W28292   4.657  10.064   2.295  0.1958 -0.0568 -0.6047
12109W        W28293   7.451   6.641  13.180  0.3176  0.4455 -0.1167
12110W        W28294  11.668   5.673   2.748 -0.1223  0.1535  0.1197
12111W        W28295  11.145   7.202  13.563  0.0874  0.2276  0.0640
12112W        W28296   8.134   1.152   4.078  0.0638  0.0106 -0.0574
12113W        W28297  11.191  13.577   4.126  0.2534  0.2413 -0.1179
12114W        W28298  14.680  17.418  15.018 -0.0204 -0.1059 -0.2480
12115W        W28299   3.975   5.155  11.965 -0.2644  0.0201 -0.0786
12116W        W28300  14.496   2.173   0.910 -0.3082  0.0774 -0.2570
12117W        W28301   9.132   8.122   0.282 -0.1010  0.0337 -0.1004
12118W        W28302   8.859  14.899  16.735 -0.1894  0.0608  0.1537
12119W        W28303   7.033   8.691   0.915  0.0728  0.2652 -0.1141
12120W        W28304   4.942   3.233  12.259 -0.0555  0.5397 -0.1967
12121W        W28305   3.097   1.799  11.855 -0.0967  0.1310 -0.0564
12122W        W28306   5.877  13.655   2.078 -0.3880  0.2798  0.0595
12123W        W28307   5.258  16.361   1.968 -0.0100 -0.1545 -0.1104
12124W        W28308  12.095  16.049   1.011 -0.1438  0.0463 -0.0498
12125W        W28309   6.951   4.279  15.195  0.2550  0.0125 -0.2466
12126W        W28310   8.307   7.320   1.323 -0.0906  0.0179 -0.1224
12127W        W28311  16.056  11.291   2.999 -0.2417 -0.2377  0.1129
12128W        W28312   6.387   2.668   2.962  0.0959 -0.0712  0.0368
12129W        W28313   5.495  17.529  11.686  0.3048 -0.2265  0.3910
12130W        W28314  12.332   5.892   0.245 -0.1021  0.0441  0.2394
12131W        W28315   2.854  16.865   4.345 -0.2947  0.0050 -0.0662
12132W        W28316  16.663   4.186  16.247  0.1469 -0.2362 -0.0424
12133W        W28317   6.783  15.063   0.585 -0.4546 -0.1484 -0.1719
12134W        W28318  13.723  10.098  13.578  0.0177 -0.2763 -0.2477
12135W        W28319   0.600  17.175  15.213  0.1633 -0.1899 -0.0193
12136W        W28320   1.462   3.067  12.210  0.4366  0.4020 -0.1088
12137W        W28321   2.131   3.792   3.112 -0.0838 -0.0429  0.0399
12138W        W28322  15.699   1.599   2.687 -0.2029  0.0150 -0.0479
12139W        W28323  14.349  11.263   1.508  0.3640  0.0324  0.0458
12140W        W28324   7.425   8.906  16.868 -0.2709 -0.3369  0.2306
12141W        W28325   4.540   4.100  13.405 -0.2190 -0.1832 -0.0340
12142W        W28326  12.541   0.759  14.406  0.1499  0.0602 -0.3960
12143W        W28327   8.832  12.888   5.982  0.0678  0.1579 -0.0005
12144W        W28328   4.791  13.580   1.946  0.2040 -0.0028 -0.0998
12145W        W28329  16.738   5.542  14.365 -0.3730  0.2972 -0.0258
12146W        W28330  15.402   4.124   3.445  0.0026  0.2554  0.3691
12147W        W28331   1.294   6.336  12.212 -0.0844 -0.1058 -0.0192
12148W        W28332  10.946   2.633  13.709 -0.0064 -0.3386 -0.1499
12149W        W28333   2.000  17.318  15.128 -0.0292  0.4021  0.0075
12150W        W28334   0.276  11.495  16.520  0.2148  0.1419  0.0442
12151W        W28335  17.664   9.992  15.368 -0.0174 -0.0772 -0.2466
12152W        W28336  17.185   9.352   5.398 -0.2125  0.0019  0.0460
12153W        W28337   8.698  16.553   1.643  0.1923 -0.2226  0.1170
12154W        W28338   0.237  17.266   3.754 -0.0018  0.2154  0.0823
12155W        W28339   1.659   2.218  11.817 -0.0750  0.0514 -0.1588
12156W        W28340  17.511  16.150   4.554 -0.3324 -0.3477 -0.0030
12157W        W28341  14.561   0.213   0.849 -0.0889 -0.0824  0.1123
12158W        W28342   3.215   8.883   0.065 -0.0322  0.0714 -0.2834
12159W        W28343  16.695  11.964   2.867  0.1026 -0.1626  0.1176
12160W        W28344   6.216  12.097   2.710 -0.1210 -0.1526 -0.1636
12161W        W28345   6.014  16.926  12.301 -0.3679 -0.0804  0.2411
12162W        W28346  12.402  10.570  15.899  0.1355  0.1505  0.0306
12163W        W28347  13.790   1.076   3.570  0.0640  0.0900  0.0936
12164W        W28348   7.478   1.142  16.883 -0.0455 -0.0227 -0.1744
12165W        W28349  12.296   4.470   4.398 -0.0992  0.1842 -0.0663
12166W        W28350   3.776  11.184   5.395  0.3074 -0.2678 -0.0597
12167W        W28351  10.132  14.378   2.413  0.0637 -0.1231 -0.1228
12168W        W28352  13.177   0.647   0.585 -0.0736 -0.4308 -0.0640
12169W        W28353   2.429  17.617   2.604  0.0062 -0.0466 -0.1521
12170W        W28354  13.061  13.439  15.847  0.0475 -0.1119 -0.3097
12171W        W28355  11.178  11.425  12.675  0.0572 -0.0616  0.0123
12172W        W28356   1.276   3.761   1.288  0.0473 -0.1056  0.2182
12173W        W28357  10.118   2.410  16.172 -0.0055  0.2251  0.1194
12174W        W28358   3.288  13.103   1.889  0.0035  0.0088 -0.1246
12175W        W28359   9.605   3.694  15.191 -0.1632  0.0723 -0.4177
12176W        W28360   6.438   3.364   2.360  0.0662  0.0009 -0.1158
12177W        W28361  15.491   0.675  15.338  0.2968  0.0968  0.1094
12178W        W28362  16.906  11.834   3.430  0.1099 -0.1990 -0.1397
12179W        W28363  15.250  11.389   3.819 -0.2982 -0.4249 -0.0392
12180W        W28364  11.357   0.159  14.293 -0.1275 -0.1756  0.0511
12181W        W28365   9.761   4.975   3.270 -0.1558  0.2176  0.2144
12182W        W28366   8.061  12.204   1.697 -0.0482  0.2062 -0.0790
12183W        W28367  13.775  12.304   4.903 -0.2858  0.1437 -0.2153
12184W        W28368   5.704   3.393   2.055 -0.1390  0.1827  0.1561
12185W        W28369   3.789  14.619   1.802  0.0738  0.2592 -0.1741
12186W        W28370  13.799   0.631  13.652 -0.0968  0.1087  0.1937
12187W        W28371  16.050   3.588   2.619 -0.1169 -0.0151 -0.1653
12188W        W28372  16.108   2.782  15.446 -0.0303 -0.0823  0.1507
12189W        W28373   3.806   8.921  14.962 -0.0625  0.0915  0.1636
12190W        W28374   8.718  16.535   1.076  0.0750 -0.1350 -0.1697
12191W        W28375   0.879   2.027   3.076  0.2976  0.0122 -0.2395
12192W        W28376   5.591  10.401   0.233 -0.0625 -0.0479 -0.3009
12193W        W28377   7.578   0.662   4.679  0.1428  0.0619 -0.2490
12194W        W28378  10.186   6.952  13.111 -0.1608  0.2466  0.1118
12195W        W28379  17.048  15.225   0.223 -0.0679  0.0921 -0.0165
12196W        W28380   9.532  16.160   4.932  0.1296  0.0868  0.0658
12197W        W28381  14.448  16.997  15.159 -0.1764 -0.0822  0.0086
12198W        W28382   0.592  10.014  11.679 -0.0606 -0.2616  0.0817
12199W        W28383   8.089  13.152  12.178  0.2003  0.1891  0.3217
12200W        W28384  10.008   0.545  12.079  0.0691  0.0193  0.0173
12201W        W28385  16.422  14.121   4.334  0.1443 -0.1956  0.0422
12202W        W28386   5.294   9.919   5.393 -0.1106 -0.3769 -0.6437
12203W        W28387   3.924   6.250   1.056  0.1804 -0.1080  0.0546
12204W        W28388  16.361  11.323  13.040 -0.2941 -0.1842  0.0614
12205W        W28389   7.945  15.627  12.716  0.1001 -0.0071 -0.0828
12206W        W28390  11.660   9.850  14.604 -0.1291  0.0161 -0.1442
12207W        W28391  17.746  10.631   2.221  0.2373 -0.0450 -0.3938
12208W        W28392   4.584  11.794   5.196 -0.1352 -0.2033  0.3118
12209W        W28393  11.617   0.641   5.308  0.1260 -0.1674 -0.0934
12210W        W28394   9.403  16.412  15.480  0.1691 -0.0395  0.0652
12211W        W28395  10.167   7.674   0.003  0.0727  0.3262 -0.0111
12212W        W28396  11.399  14.556  11.753 -0.0163  0.1034  0.0811
12213W        W28397   4.925  17.478   1.444 -0.1789  0.3518  0.1481
12214W        W28398   3.318  12.761  15.487 -0.0160  0.0530 -0.2026
12215W        W28399  15.769   0.953   3.873 -0.0852 -0.3734  0.0160
12216W        W28400  12.671  10.405  16.314 -0.0750  0.1598 -0.2050
12217W        W28401   3.346  15.607  16.199 -0.2009 -0.2017  0.2230
12218W        W28402  13.218   4.579   6.428 -0.3063 -0.1337  0.2295
12219W        W28403   1.821   1.029   2.672  0.0494  0.1213 -0.0521
12220W        W28404   0.416   5.384   2.194  0.2148  0.1769  0.0472
12221W        W28405  15.834   0.827   0.807  0.1875  0.0611 -0.0454
12222W        W28406   3.877  14.410   4.841  0.2004  0.0222 -0.2689
12223W        W28407  10.145  14.026   0.546  0.4967 -0.0682 -0.0573
12224W        W28408  13.841  14.097   3.139 -0.4892 -0.0352 -0.0562
12225W        W28409  15.326  15.102  16.427 -0.0141 -0.0100  0.1677
12226W        W28410   5.158  14.435  16.156  0.0210  0.1612 -0.3432
12227W        W28411  10.542   5.738   0.692  0.1059  0.1681  0.2023
12228W        W28412   2.927   5.394  16.249 -0.0313  0.0892  0.1290
12229W        W28413  10.839   7.390   3.859 -0.1721  0.0061  0.3152
12230W        W28414  11.357   2.761  16.862  0.2999 -0.2670 -0.5041
12231W        W28415  11.560  17.094   1.224 -0.0942 -0.3286  0.1327
12232W        W28416   4.594   4.738   6.009  0.0423  0.3168  0.0555
12233W        W28417   7.220   3.710   5.755  0.0072 -0.2439  0.1361
12234W        W28418   7.407   1.038   3.456  0.1900  0.1447  0.0969
12235W        W28419  12.585  10.346  11.913  0.2124  0.3417  0.3261
12236W        W28420  10.865   7.478  15.205  0.2328  0.2530 -0.3202
12237W        W28421   7.109  12.147   5.685  0.2119 -0.0496 -0.1637
12238W        W28422  16.437   3.193  14.238  0.0408 -0.2218 -0.1692
12239W        W28423   1.316  16.862   2.335 -0.0354  0.1320 -0.1078
12240W        W28424   2.242   8.119   5.707  0.0426 -0.2697  0.2180
12241W        W28425  13.950  14.489  14.383 -0.3037 -0.0461  0.1309
12242W        W28426  10.138   8.259  14.410 -0.2323 -0.0453  0.0839
12243W        W28427   7.046   7.986  15.380  0.1204 -0.0412 -0.1418
12244W        W28428   2.735   3.832  14.012 -0.1932  0.0519 -0.0451
12245W        W28429  12.278   0.219  15.992  0.0219 -0.0118 -0.0716
12246W        W28430  14.529   1.377  12.248 -0.0496  0.1469 -0.2596
12247W        W28431   9.413   0.789   2.987  0.2356  0.0177  0.0186
12248W        W28432   5.084  13.291  13.484 -0.1643  0.3456  0.1243
12249W        W28433   4.256  14.309  14.097 -0.1120 -0.1906 -0.0743
12250W        W28434  15.438  10.705   3.220  0.0903  0.3058  0.1562
12251W        W28435  15.357   6.055  16.671  0.0678 -0.0219  0.3444
12252W        W28436   1.668   5.355  14.164 -0.1256  0.0822 -0.0161
12253W        W28437   9.593   8.697  13.875  0.0493 -0.1109  0.0771
12254W        W28438   6.773  10.056  15.521 -0.1185  0.0462  0.0058
12255W        W28439  11.004   6.382  13.794 -0.0171 -0.1021  0.0459
12256W        W28440   8.319  11.596  16.596  0.0841  0.0859 -0.1422
12257W        W28441   0.365  14.620   2.477  0.2224 -0.0505  0.0425
12258W        W28442   7.066  10.949  14.096  0.0560 -0.1001 -0.0536
12259W        W28443   8.101  13.297  16.650  0.2777 -0.2729 -0.1003
12260W        W28444  14.098   8.624   5.788  0.0394  0.0501 -0.2618
12261W        W28445   4.784  14.573   4.548  0.1786 -0.0583  0.2280
12262W        W28446   7.255   0.970   2.334  0.2654 -0.3134 -0.0975
12263W        W28447  14.453  17.524   0.912  0.1394 -0.2018  0.2101
12264W        W28448  10.965  14.204  13.934  0.3868  0.0678 -0.0341
12265W        W28449  10.000  15.935   0.501  0.0741  0.4038 -0.1875
12266W        W28450   6.170  12.669   2.420  0.2979  0.1788 -0.2885
12267W        W28451   7.894   5.250  13.547  0.2015 -0.0086 -0.3474
12268W        W28452   7.939   7.974  15.439  0.0062  0.2671 -0.1124
12269W        W28453   7.326  15.283   3.969 -0.0833 -0.1878 -0.1502
12270W        W28454   4.544  16.193   3.950 -0.0996 -0.0822  0.2961
12271W        W28455  17.600   6.266   1.430 -0.2902 -0.1404 -0.0446
12272W        W28456  16.260   0.352  11.578  0.1951  0.2585  0.2664
12273W        W28457   6.576  12.569  15.373 -0.3810 -0.1167 -0.0753
12274W        W28458   7.084   0.344  15.778 -0.0042  0.2552  0.0742
12275W        W28459  17.135   6.801  15.775  0.0084 -0.2306 -0.1981
12276W        W28460  13.482   7.014   4.026  0.0174  0.0998 -0.0865
12277W        W28461   1.441  11.140  11.780  0.1816 -0.1869  0.2203
12278W        W28462  11.744   3.986   3.703 -0.0465 -0.1153 -0.3836
12279W        W28463   9.514  10.517   0.849 -0.2130  0.2210  0.0962
12280W        W28464   7.175   2.164   2.892 -0.0127 -0.0359  0.1895
12281W        W28465   9.388   5.038   3.717  0.0841  0.1167 -0.0653
12282W        W28466  10.124   8.628  11.671 -0.0656  0.0103 -0.0708
12283W        W28467   3.910  15.701  14.390 -0.2884  0.0291 -0.0415
12284W        W28468   0.334   6.874  15.084  0.1111 -0.0990 -0.0257
12285W        W28469   8.309  12.163  12.292 -0.3582 -0.1820  0.2128
12286W        W28470  13.495  12.775   5.483  0.1348  0.0101  0.0823
12287W        W28471  10.353  10.777   2.663  0.0201  0.1541 -0.2157
12288W        W28472  17.624   0.692   6.308 -0.0122  0.0012 -0.2824
12289W        W28473  15.019  12.689  12.205  0.0974 -0.0112  0.0603
12290W        W28474  17.462  17.442   2.224 -0.0114  0.0728 -0.1312
12291W        W28475   3.890   7.291   0.887  0.4093 -0.3185  0.3700
12292W        W28476  14.211   9.133   5.819  0.1299 -0.0279  0.1335
12293W        W28477  10.844  12.985   4.212 -0.0140 -0.2419 -0.0890
12294W        W28478   4.562   8.269   1.314  0.2372  0.0248 -0.0932
12295W        W28479   2.045   8.809  14.300 -0.0660  0.0586 -0.1131
12296W        W28480   1.137   1.029   1.526  0.1359 -0.0190 -0.1683
12297W        W28481  13.526   1.554  15.577  0.3034 -0.0071  0.0943
12298W        W28482   6.859   6.904   0.349 -0.0124  0.0345  0.0429
12299W        W28483  14.734  10.970  16.081  0.2540 -0.0520  0.1153
12300W        W28484  13.204  16.678   0.765  0.0157 -0.0777  0.3701
12301W        W28485   0.441   8.914   3.310 -0.1194 -0.1880 -0.0473
12302W        W28486   9.102  17.074  13.192  0.0686  0.1038  0.1648
12303W        W28487   6.250  16.319  12.758  0.0750  0.2902  0.1320
12304W        W28488   2.881   8.109  16.465 -0.0160  0.0214 -0.0705
12305W        W28489   8.903  16.613   3.184  0.1260  0.1092 -0.0081
12306W        W28490   2.779   6.132   0.247 -0.3437 -0.1290 -0.1292
12307W        W28491   4.649   6.680  14.384  0.1240 -0.0261  0.1899
12308W        W28492  12.674  16.747   0.935 -0.2272 -0.1739 -0.0178
12309W        W28493  14.347  13.110  16.213  0.1712 -0.2653 -0.2068
12310W        W28494  13.552   6.152  15.896 -0.0829  0.0831 -0.1864
12311W        W28495  16.322  12.131  13.144 -0.2788 -0.0671  0.0786
12312W        W28496   9.406   1.214   4.221 -0.0492 -0.3734 -0.1013
12313W        W28497  12.553  13.326  15.983 -0.0591  0.1483 -0.2382
12314W        W28498   6.673  13.461  11.616 -0.0439  0.2188  0.0822
12315W        W28499  12.534  11.736   3.703  0.0390  0.1496  0.1144
12316W        W28500   3.319   3.550  16.662  0.1798  0.1764  0.2065
12317W        W28501   7.619   0.794   6.157  0.3323  0.2029  0.0578
12318W        W28502   3.000   5.519   1.619  0.2354 -0.0041 -0.2405
12319W        W28503  17.092   5.225   2.922 -0.2002  0.0631 -0.0393
12320W        W28504  11.663  14.801  14.633 -0.1231  0.0091  0.1226
12321W        W28505   7.270  12.928  12.851 -0.4193 -0.2205  0.1506
12322W        W28506   3.756  13.786  11.527 -0.1619  0.1233  0.0980
12323W        W28507  17.441  14.018  11.630  0.0715  0.3338  0.0119
12324W        W28508   9.212  11.382  15.188 -0.0057  0.0488  0.0643
12325W        W28509  12.399   6.403   0.376 -0.2520  0.0146 -0.0875
12326W        W28510   9.299  15.260   0.554 -0.1241 -0.2013 -0.1255
12327W        W28511   8.353  12.426   5.180  0.0590 -0.2605  0.0808
12328W        W28512   7.719  15.136   3.118  0.1341  0.0203 -0.0898
12329W        W28513   8.844   8.212   5.543 -0.2598  0.2256  0.0664
12330W        W28514   4.657   9.028  14.607 -0.1569  0.1992  0.2139
12331W        W28515  14.823   6.463  12.830 -0.0887 -0.0629  0.1858
12332W        W28516  17.068  14.079   5.363  0.0142 -0.1235 -0.1040
12333W        W28517   0.464   4.030   5.881 -0.0756  0.0056  0.0326
12334W        W28518   6.021  11.700  14.501  0.2466 -0.1059 -0.1562
12335W        W28519  11.536   7.133   3.804 -0.1713  0.0651 -0.0769
12336W        W28520  10.285   3.037  12.003 -0.0882 -0.2309  0.1369
12337W        W28521   0.784   5.922   3.819  0.0405  0.0851  0.0177
12338W        W28522  11.888  13.192  14.095 -0.1157 -0.0371 -0.0008
12339W        W28523   6.264   5.616   6.036  0.0659  0.1345 -0.3019
12340W        W28524   6.410   9.937   5.529  0.0759  0.0185 -0.1336
12341W        W28525   5.239   6.691   4.174  0.1446 -0.0003 -0.0533
12342W        W28526  11.516   9.115  15.043  0.1972 -0.2750  0.0258
12343W        W28527  15.934   1.537  14.633 -0.2133 -0.0031  0.0878
12344W        W28528   4.447  14.170   3.944  0.0470 -0.3244  0.1514
12345W        W28529  17.826   3.831   3.023  0.1120 -0.1542 -0.1349
12346W        W28530  14.761   2.962  11.921  0.2694  0.3345  0.0024
12347W        W28531  17.140   5.466   0.281  0.0550 -0.0729 -0.2075
12348W        W28532   9.732   6.091  14.463  0.1182  0.3502  0.1580
12349W        W28533   8.163  13.762  14.791 -0.1146 -0.1056  0.1311
12350W        W28534  14.587  14.974   0.528 -0.0964  0.2725 -0.0956
12351W        W28535   0.943   0.706  15.399  0.1914 -0.0819  0.0554
12352W        W28536   6.628  15.752  14.473  0.2225  0.1464  0.0634
12353W        W28537   4.436  17.267   0.385 -0.0617 -0.1803 -0.1012
12354W        W28538   0.051   2.668  13.370 -0.1672  0.0205 -0.1754
12355W        W28539   2.046   3.632  13.152 -0.0693 -0.1020 -0.1866
12356W        W28540   4.106   8.536   5.161  0.1294 -0.0268  0.2308
12357W        W28541  17.267  17.045   5.433  0.1284 -0.0512  0.1404
12358W        W28542   7.440  15.513  11.571 -0.0280  0.0976  0.0005
12359W        W28543  15.082  13.484  11.633  0.2389  0.3093 -0.0915
12360W        W28544  14.430  14.492   5.623  0.0510 -0.2471  0.3614
12361W        W28545  13.214   7.387   4.923  0.2021 -0.1961 -0.2817
12362W        W28546   0.132   4.411   2.296  0.3403 -0.0256  0.0173
12363W        W28547   0.961   7.591   2.073  0.0629 -0.1783  0.0511
12364W        W28548  15.670  14.467   4.027 -0.1538  0.2176  0.0683
12365W        W28549   7.359   7.121  15.017  0.0607 -0.0060  0.2752
12366W        W28550   0.056   4.456  13.027  0.1241 -0.0406 -0.0256
12367W        W28551   3.357   2.565  15.690 -0.0784  0.1055 -0.0418
12368W        W28552   5.675  16.105  13.249  0.3237  0.1169  0.0560
12369W        W28553  16.488  17.494  14.139  0.0260 -0.2365  0.0617
12370W        W28554  10.529  11.111  15.021 -0.1467 -0.1498 -0.0054
12371W        W28555   3.049   1.923   4.117 -0.0781  0.0404 -0.1825
12372W        W28556   4.871   3.831  12.279 -0.0076 -0.2422 -0.1819
12373W        W28557   5.342  12.815   4.026 -0.3847 -0.0282 -0.3269
12374W        W28558   0.986   2.450   2.839 -0.2333 -0.2271  0.2954
12375W        W28559  11.620   6.644  15.757 -0.0571  0.1581  0.1320
12376W        W28560   7.288  11.094   2.192  0.0681 -0.0661  0.5180
12377W        W28561  14.276   8.336  15.046  0.0907 -0.1032  0.0493
12378W        W28562  10.763  12.144   0.458 -0.1687 -0.0821 -0.0884
12379W        W28563   0.610   2.120   0.822  0.0156  0.4640  0.1552
12380W        W28564  15.709   5.005   1.227 -0.2651  0.0898 -0.0759
12381W        W28565  14.107  11.160   4.128 -0.1272 -0.2911  0.2318
12382W        W28566   4.224   6.365   1.422  0.1032 -0.0968  0.0326
12383W        W28567  15.124  14.379  16.319 -0.0346 -0.0631 -0.0490
12384W        W28568   7.920  15.908   0.517  0.1138  0.0436 -0.3590
12385W        W28569  15.646  13.271   3.077 -0.3293  0.0803 -0.1652
12386W        W28570  12.284  10.526  12.792 -0.1717  0.1442 -0.1670
12387W        W28571   2.867   2.442  15.845 -0.0741 -0.1327  0.1312
12388W        W28572   2.249   6.321  13.360 -0.0385  0.0317  0.0726
12389W        W28573  13.570  16.488  13.464 -0.1506  0.1421 -0.2171
12390W        W28574  14.398   6.833  16.227 -0.2861  0.1590 -0.0676
12391W        W28575   4.247  14.481   4.432 -0.0030 -0.2547 -0.2079
12392W        W28576   5.386  15.202  14.588  0.1514 -0.1422  0.1001
12393W        W28577  17.477   7.058  16.491 -0.0245  0.2342  0.0222
12394W        W28578   0.612  12.106   1.306 -0.1484 -0.0258  0.0282
12395W        W28579   1.155  15.011   3.148  0.1884 -0.2395  0.0959
12396W        W28580   9.809  12.619  10.622  0.0264 -0.1147 -0.0006
12397W        W28581   4.865  13.083   1.911 -0.1917  0.1123 -0.1326
12398W        W28582   2.081  13.480  14.767 -0.1298  0.1819 -0.4727
12399W        W28583  17.204   6.841  15.264  0.2004 -0.0984  0.0517
12400W        W28584  16.431  14.572  14.524  0.2509  0.0952  0.0209
12401W        W28585   7.013  17.373  10.939 -0.1587  0.2353  0.4099
12402W        W28586  12.634  12.855   4.187  0.3012 -0.2709  0.0098
12403W        W28587  13.108  17.256   2.917  0.1637  0.0206  0.3479
12404W        W28588   1.551  15.341   3.621  0.0248  0.0849 -0.5162
12405W        W28589   2.294  16.225   0.971  0.0168 -0.3401 -0.1886
12406W        W28590  16.088   2.010   4.267  0.0515 -0.0455 -0.2261
12407W        W28591  13.882  11.858  13.470 -0.2261  0.0533 -0.2891
12408W        W28592  12.861  15.904   4.755  0.1469 -0.0856  0.2874
12409W        W28593  13.090   6.820  16.767  0.2650 -0.3836 -0.0830
12410W        W28594  11.949  12.096  13.538  0.2037  0.0199 -0.1886
12411W        W28595  11.458  11.986  14.522  0.0902 -0.0204  0.0492
12412W        W28596  15.687   5.176   4.408 -0.4564 -0.3745  0.0619
12413W        W28597  15.495  11.385  12.060  0.4366 -0.1051 -0.0500
12414W        W28598  15.203   7.605  15.063 -0.0025  0.0153  0.0195
12415W        W28599   3.866   1.677   5.628  0.1496  0.1740  0.2314
12416W        W28600   9.894  10.172   6.049  0.1774 -0.3962 -0.3453
12417W        W28601  16.271  12.589  15.154  0.0975 -0.0368  0.0136
12418W        W28602   3.599  14.346   3.458 -0.3750  0.1604  0.2217
12419W        W28603   0.484  13.983   4.917  0.4156 -0.0943  0.0848
12420W        W28604  12.626   0.172   2.311 -0.0002 -0.1182  0.4816
12421W        W28605  13.209  12.920   3.065 -0.0905 -0.2410  0.0184
12422W        W28606   4.446   2.604  13.856 -0.0128  0.1579 -0.1955
12423W        W28607  12.415   9.892   4.821  0.1573 -0.0287 -0.1412
12424W        W28608   6.848   6.777  15.063 -0.2420  0.2284  0.0335
12425W        W28609  12.158   1.827  14.828 -0.0040 -0.1166 -0.0199
12426W        W28610  10.300  13.857   5.386 -0.2141  0.1239  0.1452
12427W        W28611  16.946  13.249   0.477  0.0239  0.1762  0.0316
12428W        W28612  16.933  17.139   1.139 -0.0125 -0.1814 -0.5087
12429W        W28613  17.022  16.767   3.180 -0.1323  0.1255 -0.3329
12430W        W28614   7.410  12.451  12.076  0.1311  0.2633 -0.2882
12431W        W28615   2.657   2.557  13.393 -0.0138 -0.2045 -0.0355
12432W        W28616  12.577   4.835  13.897  0.4017 -0.2315 -0.3128
12433W        W28617   7.991  13.561  12.526 -0.1243 -0.1434  0.0703
12434W        W28618   9.869   0.695   1.511  0.1968 -0.1202  0.0508
12435W        W28619   4.846   9.438   3.120  0.0956  0.1769 -0.0944
12436W        W28620  17.269   9.588   3.650  0.0758  0.1421 -0.0148
12437W        W28621  10.280  10.394  14.533  0.2666  0.1489  0.0664
12438W        W28622   9.043  16.589  12.997 -0.0125  0.0578 -0.0731
12439W        W28623  13.855   9.748   1.612 -0.2911  0.1554  0.2848
12440W        W28624   8.867   6.190   0.458 -0.2163 -0.1829 -0.1782
12441W        W28625  15.539   0.667   1.382 -0.1394  0.0507 -0.4448
12442W        W28626  10.249   9.333  14.246  0.4385  0.1625  0.0634
12443W        W28627  10.925  17.770  14.332  0.0918 -0.0671 -0.2493
12444W        W28628  12.711   3.793   0.867  0.0533 -0.0535  0.2968
12445W        W28629   8.106   9.682  12.148 -0.1535 -0.0754  0.0204
12446W        W28630  15.807  10.608   3.692  0.0620  0.0191 -0.0244
12447W        W28631   4.814  10.904   3.558  0.0333 -0.0282  0.1951
12448W        W28632   3.060   7.995  12.273 -0.2647  0.0803 -0.2189
12449W        W28633   9.407   1.211  13.550  0.2157 -0.1973  0.1348
12450W        W28634   2.319   3.174  12.260  0.0609 -0.1030  0.0779
12451W        W28635  10.899   3.818  12.426 -0.0283  0.1073  0.0924
12452W        W28636   7.978  17.181   0.267 -0.1292 -0.2289  0.2665
12453W        W28637   5.017   5.261  12.001 -0.0721  0.0909  0.0362
12454W        W28638  11.756  12.461  14.597  0.2135 -0.1696  0.0391
12455W        W28639  11.727  13.596   2.424  0.2339 -0.0783  0.0612
12456W        W28640  12.547   1.840  15.148  0.0325 -0.1109  0.0072
12457W        W28641   4.540  14.967   5.945  0.1203 -0.0904  0.3810
12458W        W28642  16.456   8.956  14.440  0.2693  0.1921  0.1648
12459W        W28643   8.857  15.330  11.190 -0.0905 -0.3401  0.1882
12460W        W28644   3.355   4.034  15.692  0.0396 -0.0430  0.0902
12461W        W28645  16.064  16.123   0.054 -0.0316  0.1164  0.0454
12462W        W28646   7.386   4.546  11.909 -0.0026 -0.3259 -0.2164
12463W        W28647  10.275  12.735   2.149  0.2405 -0.2483  0.3659
12464W        W28648  13.113  10.419  13.973  0.2190  0.0459 -0.0799
12465W        W28649   8.777   0.882  15.719  0.1515  0.3280 -0.2122
12466W        W28650   8.039   2.214   1.308 -0.0224  0.0882  0.1540
12467W        W28651   6.013   4.820  12.067  0.3733  0.3357  0.0038
12468W        W28652  14.286   7.764   3.963 -0.2834 -0.0594  0.0437
12469W        W28653   4.905   5.768   4.539 -0.0037  0.0227 -0.0463
12470W        W28654  13.276  14.504  14.909  0.1591 -0.1948 -0.0991
12471W        W28655   5.908   3.539   0.116  0.1848  0.0676 -0.2754
12472W        W28656   0.628   4.391  16.103 -0.3912  0.1333 -0.1253
12473W        W28657  15.351   7.655  16.063  0.1987  0.2518 -0.0403
12474W        W28658  15.876   0.962  15.224 -0.1667 -0.0598 -0.1631
12475W        W28659  17.371   5.592   1.765  0.0745 -0.3605 -0.2209
12476W        W28660   7.199   2.398  16.086  0.0236 -0.2915  0.2507
12477W        W28661  14.632   7.168   2.887  0.0917  0.1139  0.0550
12478W        W28662   4.247  11.586  12.364  0.0561 -0.1523  0.0538
12479W        W28663   4.154   8.550   4.652  0.1067  0.0004 -0.0370
12480W        W28664  11.414   6.268  13.521  0.2144 -0.2470 -0.0791
12481W        W28665  11.428  16.025  16.225  0.1320 -0.0467 -0.0041
12482W        W28666  10.272   3.328  16.438 -0.0447 -0.0043  0.2145
12483W        W28667   5.350   8.470  15.437 -0.0349 -0.2921  0.0958
12484W        W28668   5.479   4.963   4.571 -0.1000  0.1330  0.2512
12485W        W28669   4.657   9.699  15.642 -0.0850  0.1409 -0.1293
12486W        W28670  16.035  14.114   5.586 -0.1145  0.0229  0.1479
12487W        W28671  10.519  15.039   2.947  0.1351  0.3860  0.2010
12488W        W28672   2.877   8.479   1.295 -0.1001 -0.1698  0.1112
12489W        W28673  13.987  10.241   0.397 -0.3498  0.1839 -0.1811
12490W        W28674   2.852  12.327   1.057 -0.4414 -0.0475  0.4482
12491W        W28675   0.900  14.061  13.782  0.1783 -0.0475  0.0075
12492W        W28676   2.994   6.788   0.980  0.0227  0.2830 -0.0468
12493W        W28677   3.669   0.616   1.258 -0.0670 -0.2017  0.0189
12494W        W28678  16.643   0.516   0.544  0.2941 -0.0053 -0.2284
12495W        W28679  16.818   3.820  12.290  0.0389 -0.0454  0.0792
12496W        W28680   2.202  12.957  11.532 -0.1163 -0.1652 -0.0004
12497W        W28681   6.216  17.628   1.281 -0.0863  0.0686  0.1913
12498W        W28682   0.162  11.950   3.862  0.1225 -0.3487 -0.0523
12499W        W28683   8.834   1.845  13.339  0.0570 -0.0288 -0.0674
12500W        W28684   8.135  14.512  11.531 -0.4090 -0.0098  0.2041
12501W        W28685   4.963  11.537  15.381 -0.3091 -0.0568  0.0728
12502W        W28686  17.400  14.410  12.935  0.2536 -0.3799 -0.3096
12503W        W28687  10.155   2.891   4.428  0.5938  0.0844 -0.2062
12504W        W28688  16.960  17.177   3.547  0.0417 -0.1221  0.0165
12505W        W28689   6.856   3.019   4.092  0.0372 -0.0901 -0.2527
12506W        W28690  11.034   1.315  14.057 -0.1353 -0.1291  0.0331
12507W        W28691   8.670  10.137   2.187 -0.0614  0.1843 -0.2007
12508W        W28692   5.412  17.620  15.389 -0.1507 -0.2496 -0.0226
12509W        W28693   3.556  17.256  12.236 -0.1176  0.2232  0.1391
12510W        W28694  15.230   6.044   5.863  0.3225  0.0772  0.1264
12511W        W28695  13.493   7.025  15.897  0.0171 -0.0026 -0.0616
12512W        W28696  13.315   1.522  14.547  0.1937  0.0043 -0.1284
12513W        W28697   3.698   5.455  12.359 -0.0412  0.0793 -0.0145
12514W        W28698   5.038   0.851   0.190 -0.1449  0.0173 -0.1987
12515W        W28699  13.906   5.227  16.166  0.3143  0.1151  0.3956
12516W        W28700   0.500   7.690  13.860 -0.0977  0.2494  0.1909
12517W        W28701   2.635   0.883   3.304  0.1256  0.0096 -0.1265
12518W        W28702  13.809   8.305  14.930 -0.1290 -0.0158 -0.0536
12519W        W28703  17.232  14.742  16.489  0.2447 -0.0073 -0.1710
12520W        W28704   6.226  11.016  13.635 -0.0599  0.1236 -0.0553
12521W        W28705   0.984  16.652  11.585  0.0899  0.1301  0.1756
12522W        W28706   0.048   9.066   0.315  0.0620 -0.1426 -0.2835
12523W        W28707   1.834   4.480  14.234  0.0690 -0.0007 -0.0683
12524W        W28708   0.023   4.684  12.521  0.0189 -0.1081  0.1998
12525W        W28709   9.594  15.690   4.402 -0.1956 -0.1746  0.2311
12526W        W28710   5.039   4.092   2.649  0.1507  0.0165 -0.2378
12527W        W28711  15.945   5.579  14.615 -0.2128 -0.1558  0.0446
12528W        W28712   6.683  15.963  10.622  0.0474  0.1836  0.1395
12529W        W28713  13.468  15.810   1.070 -0.1834 -0.0105 -0.0298
12530W        W28714   2.253  16.526   4.192  0.1143  0.1623  0.0228
12531W        W28715   0.315   8.593   5.918  0.0291  0.2397  0.4151
12532W        W28716   1.693  17.834   5.617 -0.0758  0.1089 -0.1350
12533W        W28717  12.049  14.468  16.554 -0.1162  0.0885  0.0781
12534W        W28718  15.556   7.745   2.594 -0.0439  0.0920  0.0813
12535W        W28719   8.817  15.332  13.486  0.2440  0.1492  0.2140
12536W        W28720   4.428  14.499   0.083 -0.0091  0.2174 -0.0277
12537W        W28721   5.857  14.561   1.638 -0.0276  0.0934  0.2254
12538W        W28722   0.899   9.091  12.517  0.1211  0.3341  0.0697
12539W        W28723  17.502   5.544  12.373 -0.0329  0.0678  0.0446
12540W        W28724   0.426   4.011   4.761  0.1463 -0.0702  0.2243
12541W        W28725  13.505  10.632  14.610 -0.2241 -0.3782 -0.1076
12542W        W28726   8.442   3.087  15.099  0.0531 -0.0552  0.0225
12543W        W28727  15.998   3.789  16.367  0.0683  0.1889  0.0173
12544W        W28728  15.317  13.695  16.614 -0.0383 -0.1579  0.2914
12545W        W28729  13.877   2.931  11.710 -0.1793 -0.1715 -0.0124
12546W        W28730   4.546   4.445   4.869  0.2207 -0.3188 -0.0485
12547W        W28731   7.236   5.391   5.047  0.1735  0.3102 -0.1914
12548W        W28732   8.589   1.690  15.175 -0.1883  0.1121  0.1640
12549W        W28733   4.397   6.682   3.634  0.1672  0.2720  0.3970
12550W        W28734   5.157  14.000  12.058 -0.0365  0.0813  0.3369
12551W        W28735  14.822   6.309  11.645  0.0743 -0.5302 -0.1565
12552W        W28736   0.150  16.430  11.065 -0.0065 -0.0632  0.0843
12553W        W28737   2.407  10.731  11.802  0.4762  0.3374  0.2962
12554W        W28738   1.479   3.003  13.052  0.3093  0.0196 -0.1747
12555W        W28739   3.953   7.467  13.054  0.2579 -0.0296  0.2443
12556W        W28740   0.327  14.924   0.916 -0.2027  0.1107  0.0660
12557W        W28741  13.599  15.956   2.780 -0.0954  0.1826  0.3214
12558W        W28742   7.976  17.560   5.513  0.0291  0.0709 -0.0537
12559W        W28743   3.181  16.119  15.973 -0.3910 -0.2085 -0.2114
12560W        W28744   0.997   3.646   6.671 -0.1141 -0.1069  0.0847
12561W        W28745  13.060  13.150  14.717 -0.0160  0.0005  0.0813
12562W        W28746  17.268  10.570   3.945  0.2213  0.0192  0.0415
12563W        W28747   0.600   0.076  16.006 -0.1272  0.2341  0.0106
12564W        W28748  17.667  12.833  16.607 -0.0019 -0.0326 -0.0476
12565W        W28749   0.664   2.959   3.930  0.3774  0.0830 -0.0623
12566W        W28750   4.537  14.510  11.560  0.0507  0.0800 -0.0825
12567W        W28751  14.039   3.038   3.537  0.0879 -0.0645 -0.2011
12568W        W28752  13.384   7.382  13.490 -0.0693 -0.2080  0.1208
12569W        W28753   8.922   2.310   6.338 -0.0347 -0.0003 -0.0495
12570W        W28754   0.542   5.017  14.106  0.1194 -0.4864 -0.0363
12571W        W28755   9.975  12.383   1.882 -0.1103  0.0383  0.2481
12572W        W28756  12.662  15.311   1.636  0.0211  0.1183  0.1743
12573W        W28757  15.104  13.610  15.244  0.0611  0.4336  0.1368
12574W        W28758   3.187  13.741  16.314  0.0544  0.1019 -0.0245
12575W        W28759  10.246  15.218  15.209  0.3680 -0.0241 -0.0147
12576W        W28760   4.805   3.193   1.842  0.1400 -0.1543  0.0455
12577W        W28761   5.044   7.013   5.602 -0.3534  0.0639  0.1344
12578W        W28762   6.002   5.550   2.922 -0.4186 -0.2843  0.1528
12579W        W28763  17.749  13.968   2.136 -0.3106  0.2575  0.0660
12580W        W28764   6.374  12.474  14.075  0.0070 -0.0226 -0.1693
12581W        W28765  12.605   7.000   2.917  0.1259  0.2332 -0.1588
12582W        W28766   5.782  11.838   4.912 -0.1996 -0.1137  0.0422
12583W        W28767   0.239   4.701  14.440 -0.1849 -0.2600 -0.1758
12584W        W28768   1.168   7.160  15.502  0.1425  0.2548  0.2369
12585W        W28769   3.378  13.683  15.346  0.1234 -0.2510 -0.2184
12586W        W28770   5.671   9.846  14.221 -0.4426 -0.2015  0.1681
12587W        W28771  12.417  14.438   3.001  0.1479 -0.1452  0.1905
12588W        W28772  17.836  15.261   3.955 -0.2124 -0.2233 -0.2328
12589W        W28773   5.632  13.586  12.847 -0.1996  0.1019 -0.5342
12590W        W28774  15.025   4.627   5.336  0.0840 -0.3325  0.0440
12591W        W28775   1.847  10.602   3.574 -0.2167 -0.0142 -0.0165
12592W        W28776  16.233   6.113  12.395  0.1234  0.0723 -0.2206
12593W        W28777  10.436   5.238   0.664 -0.1969  0.0522 -0.1015
12594W        W28778  16.013  12.199  15.027 -0.1716 -0.1568 -0.1086
12595W        W28779  14.523   2.957  15.280 -0.3150  0.1333  0.0858
12596W        W28780   8.430  12.036   3.760 -0.1473 -0.1040 -0.0433
12597W        W28781   6.061   9.199   3.561 -0.1805  0.1719  0.0716
12598W        W28782  16.404   8.186   0.627  0.0751  0.1733  0.0781
12599W        W28783  14.256   6.680  13.748  0.2087  0.1108 -0.2261
12600W        W28784  13.931   1.150   0.762  0.0116  0.0435 -0.0538
12601W        W28785   4.404   6.681  16.617 -0.1852 -0.1674 -0.0047
12602W        W28786   4.943   9.302   2.566  0.1893  0.0933 -0.1077
12603W        W28787  10.274   8.646  16.130  0.2742  0.1872 -0.2079
12604W        W28788  12.698   6.683   3.558 -0.2291 -0.3678  0.0495
12605W        W28789   5.227  12.174   0.277  0.0406 -0.0993 -0.5321
12606W        W28790  16.620   8.358   2.496  0.3525 -0.0481 -0.0112
12607W        W28791   0.369   2.147  12.459  0.0874  0.0791 -0.2211
12608W        W28792   7.980   9.448  13.174  0.0866 -0.2317  0.1690
12609W        W28793  16.160  17.792  16.286  0.2169  0.1275  0.2613
12610W        W28794  10.755  13.222   3.730  0.4678 -0.0881 -0.1772
12611W        W28795  14.988   1.194  14.672  0.1229  0.0955 -0.0060
12612W        W28796  12.105   0.703   0.538 -0.0294  0.1644  0.1376
12613W        W28797   9.513  10.532   1.487  0.2830 -0.1108  0.1170
12614W        W28798  16.712  12.835   0.639  0.3237 -0.2677  0.3001
12615W        W28799  13.021   5.134   0.801  0.0026  0.1937  0.1429
12616W        W28800   8.472   2.944   2.466 -0.1248  0.1734 -0.0591
12617W        W28801  11.394  15.294   5.692 -0.0776  0.1048  0.0496
12618W        W28802   3.846   1.702  12.226  0.0609 -0.1099 -0.0919
12619W        W28803   1.492   3.461  11.880 -0.2024 -0.1956  0.3780
12620W        W28804  15.485   8.802  15.230 -0.1656 -0.2561  0.1857
12621W        W28805  10.968  14.547   6.108 -0.1399 -0.1532 -0.1863
12622W        W28806  12.296  15.509  11.987  0.3428 -0.1847  0.1524
12623W        W28807  15.780  12.984  16.123 -0.0227 -0.1090 -0.3117
12624W        W28808  13.444   6.408   3.020  0.1856 -0.2605 -0.1661
12625W        W28809  11.240   5.962  11.526 -0.0268  0.0788 -0.2456
12626W        W28810   9.669  14.548  10.964  0.2808 -0.2968 -0.1028
12627W        W28811   3.853   1.126  16.813 -0.0460  0.2660 -0.2322
12628W        W28812   2.800   2.559  12.929  0.0555 -0.2213  0.1111
12629W        W28813   0.088   7.572   0.675 -0.2260  0.0025 -0.0774
12630W        W28814   9.811  14.914   4.115 -0.1668 -0.0315  0.0258
12631W        W28815   9.483   5.718   3.062  0.1090  0.0504 -0.1176
12632W        W28816  11.343  17.153  14.247 -0.1770 -0.0470  0.2841
12633W        W28817   7.582  11.607   1.840  0.1165  0.0446  0.0375
12634W        W28818  14.952   2.144   0.607 -0.1436  0.0290  0.0964
12635W        W28819  14.376   2.987   5.548  0.1316  0.5388  0.0261
12636W        W28820  17.821   5.194  14.918 -0.1547 -0.1175  0.1350
12637W        W28821  12.908   2.729   4.128  0.0145  0.1285  0.1848
12638W        W28822   8.415   2.699   3.762 -0.0899 -0.0676  0.1973
12639W        W28823   9.104  14.979   5.368  0.5429  0.1568 -0.0173
12640W        W28824   8.950   2.000  12.483 -0.1746  0.1113  0.2242
12641W        W28825   3.696   1.254  12.271 -0.2509  0.1203 -0.1547
12642W        W28826   1.485  12.970  14.126 -0.0883 -0.1241  0.3871
12643W        W28827  12.630   4.823   1.652 -0.2649  0.1272  0.1244
12644W        W28828   6.416  13.112  11.243  0.0776  0.2170 -0.4235
12645W        W28829   9.908  14.992  11.089 -0.0533 -0.2817  0.1197
12646W        W28830  15.334   1.843  13.491  0.0153 -0.1558 -0.0144
12647W        W28831   8.079   3.460   6.006 -0.1035  0.0342 -0.1208
12648W        W28832   8.241  14.349  14.240  0.2306 -0.1995 -0.0026
12649W        W28833   7.348   6.250  13.544  0.0657 -0.1843  0.0077
12650W        W28834  15.651  14.952  10.892  0.1722  0.2089 -0.0855
12651W        W28835   2.628   9.675  13.073  0.1427 -0.2442  0.1110
12652W        W28836   8.766  13.693   3.725  0.0147 -0.0534  0.1045
12653W        W28837   0.986   6.795  15.805  0.2545  0.2733  0.2099
12654W        W28838   2.091  16.720  14.769 -0.0076 -0.0134 -0.1726
12655W        W28839  14.109  11.282   4.626 -0.0756  0.2501 -0.0805
12656W        W28840   4.223   0.123   2.150  0.1084  0.1119 -0.1599
12657W        W28841  15.491  16.512  13.143 -0.0483 -0.0728 -0.1543
12658W        W28842   9.054  15.098  12.882  0.4264  0.1135 -0.0195
12659W        W28843   7.987  11.405  14.288  0.0582 -0.3149  0.0897
12660W        W28844   1.953  11.021  11.776 -0.0293 -0.1637 -0.1805
12661W        W28845   4.167   2.484  14.231  0.0780  0.0922  0.0870
12662W        W28846  10.704   4.398  15.842 -0.0359 -0.0569  0.0938
12663W        W28847  15.611  16.086  14.657 -0.3169  0.2071 -0.1947
12664W        W28848   8.218   7.002  14.674 -0.2217 -0.0880 -0.1563
12665W        W28849  12.747   4.831   3.712  0.1244 -0.3332 -0.1153
12666W        W28850  16.629   9.379  14.863  0.1346  0.4379 -0.2069
12667W        W28851  17.291  10.439  13.940 -0.0814  0.2853  0.1538
12668W        W28852  15.832   1.426  15.084  0.1862 -0.4416 -0.1282
12669W        W28853   8.950  14.504  15.506 -0.2753  0.2302 -0.1272
12670W        W28854   5.272   5.640   2.378 -0.1948 -0.1125  0.0971
12671W        W28855  13.898   7.319  15.147  0.2444  0.2009 -0.0150
12672W        W28856  13.387  11.153  12.689  0.1700 -0.0770 -0.0138
12673W        W28857  12.566   2.856  13.504 -0.1765  0.0723 -0.0874
12674W        W28858   8.523   5.469  14.864 -0.0506 -0.3704 -0.2887
12675W        W28859  17.624   8.016   2.150 -0.0702  0.3137  0.0915
12676W        W28860   4.033  12.407   3.691 -0.3152 -0.0649 -0.0710
12677W        W28861  15.785   4.474   4.821  0.1677 -0.1476 -0.0292
12678W        W28862   1.188  13.105  16.135 -0.0702  0.1732 -0.0173
12679W        W28863   9.980  13.230   3.312 -0.0832 -0.2175  0.1049
12680W        W28864  10.039   9.826  14.042 -0.1632  0.2333  0.1148
12681W        W28865  11.579  13.539   1.174 -0.0504  0.0026 -0.1850
12682W        W28866   7.293   4.421   4.775  0.3761 -0.0086  0.0963
12683W        W28867  11.968  16.501  13.329 -0.1412  0.2391  0.1488
12684W        W28868   4.088   6.717   5.023 -0.0550  0.1702  0.1949
12685W        W28869  14.199   3.287   4.364 -0.0527  0.2542 -0.2074
12686W        W28870   7.015  14.776  13.103 -0.0793  0.1596 -0.2999
12687W        W28871   8.032  13.275  15.762  0.1663 -0.0640  0.3061
12688W        W28872  17.023   8.180  15.447  0.1258  0.1489 -0.0092
12689W        W28873   1.216  10.473  14.280  0.1133  0.1774 -0.3439
12690W        W28874   7.941   7.728  12.670 -0.0367 -0.1349  0.1662
12691W        W28875  13.434   0.620  14.466 -0.1518  0.1992 -0.0004
12692W        W28876  15.096  15.781  14.997 -0.0114  0.0027 -0.0318
12693W        W28877   3.753  13.926  10.919 -0.0097  0.3775 -0.2486
12694W        W28878  10.855  15.317   3.275  0.1046  0.2821  0.2302
12695W        W28879   7.675  10.268  16.258  0.0706 -0.3050  0.0976
12696W        W28880  16.006  13.434  15.898 -0.0095  0.3244  0.0402
12697W        W28881   6.291   6.802  15.289  0.1546  0.3065 -0.1466
12698W        W28882  13.016   7.230   2.016  0.0563 -0.1438  0.0568
12699W        W28883  15.063  15.401   0.409  0.1428 -0.1616 -0.1045
12700W        W28884   2.310  13.330   2.022 -0.1381  0.1125  0.0660
12701W        W28885   0.773   4.640  15.648  0.5812  0.1185  0.0122
12702W        W28886   8.579   3.517  12.117  0.0496 -0.2651 -0.0623
12703W        W28887   9.924  13.805  15.435 -0.1842  0.1185 -0.1025
12704W        W28888   6.956  13.337  14.121 -0.1922 -0.4344 -0.2026
12705W        W28889  15.803   8.749  16.728 -0.3737  0.0088 -0.3227
12706W        W28890  15.658   6.790   0.464  0.2876 -0.1405  0.1053
12707W        W28891   2.548  15.308  16.638  0.0309  0.0113  0.1610
12708W        W28892  13.643  11.376  16.873  0.2167 -0.1779  0.1600
12709W        W28893   2.524  17.628   5.463  0.0312  0.1806 -0.1209
12710W        W28894   5.358   8.731   3.050  0.0069  0.0249  0.3453
12711W        W28895   3.061   8.784  12.748 -0.1338  0.1612  0.1148
12712W        W28896   2.272  13.369  12.406 -0.0579  0.1981  0.2236
12713W        W28897   3.306   0.935   1.348  0.0322  0.2922 -0.1324
12714W        W28898   6.805  12.573   5.507 -0.3025  0.3319  0.0777
12715W        W28899   1.091  16.525   5.966  0.1122  0.1461 -0.0634
12716W        W28900   2.160   5.667   3.605 -0.2144 -0.2741 -0.1773
12717W        W28901  14.973   0.698   3.573  0.2531  0.0381 -0.2209
12718W        W28902  16.483   2.637  12.892  0.1988  0.2388  0.2604
12719W        W28903   3.200   8.277  16.864 -0.0755 -0.0654 -0.0317
12720W        W28904   0.967   4.015  13.722  0.1281  0.0596  0.0010
12721W        W28905  13.225  16.065  12.310 -0.1326  0.0767 -0.3904
12722W        W28906   6.212   5.878   1.103 -0.3431  0.1163  0.0342
12723W        W28907   8.945   3.828   3.333 -0.0940 -0.0611 -0.2197
12724W        W28908  13.017   8.052  11.765  0.0810  0.2230 -0.1336
12725W        W28909   0.298  16.082   1.019  0.2248 -0.0995 -0.0476
12726W        W28910   7.773   9.637  15.110 -0.3781  0.0812 -0.1059
12727W        W28911   4.324  17.172  16.761 -0.0090 -0.0226 -0.1989
12728W        W28912   3.777   6.519   4.371  0.2521  0.1495  0.1344
12729W        W28913  12.487   7.594   5.646  0.2949  0.0165 -0.0663
12730W        W28914   7.436   3.794   4.313 -0.2026 -0.0029 -0.1911
12731W        W28915   5.002  12.547   0.059 -0.4806 -0.1356 -0.1924
12732W        W28916   9.395   7.121   4.257 -0.1523  0.2319  0.0684
12733W        W28917   9.058  10.366   3.248 -0.1459  0.0312 -0.0617
12734W        W28918   2.440   8.111  12.394  0.2771 -0.1097  0.1974
12735W        W28919  11.700   2.357  14.277 -0.0985 -0.3352 -0.2283
12736W        W28920  16.306  14.994   2.261 -0.0308  0.0333 -0.1999
12737W        W28921   5.406   5.261   1.847 -0.0779 -0.0753 -0.2088
12738W        W28922  13.096   6.789  13.202 -0.1026  0.0335 -0.2739
12739W        W28923   9.000   3.587   5.088  0.0767  0.1054  0.0600
12740W        W28924   9.851  16.375   0.148 -0.1241 -0.2611 -0.0385
12741W        W28925   6.320  15.509  15.587  0.1358 -0.1506  0.0791
12742W        W28926  14.101   2.381   4.135  0.0072  0.1926  0.0311
12743W        W28927   2.297   3.337  15.052 -0.2897  0.1380  0.0067
12744W        W28928  11.071   4.389   6.340 -0.1366 -0.0804  0.0713
12745W        W28929  13.059   8.509   3.450 -0.1231  0.1501  0.1074
12746W        W28930   3.233   5.278   4.954  0.3359 -0.1247 -0.3951
12747W        W28931   9.386  11.913  15.287 -0.1956 -0.1539 -0.1502
12748W        W28932  17.621   8.484   2.396  0.0030  0.2659  0.0830
12749W        W28933   7.082  14.033  15.961 -0.0596  0.0555  0.4046
12750W        W28934   7.764  13.210   5.580 -0.1562  0.4092  0.0785
12751W        W28935   8.660  16.210  14.806  0.0511 -0.0579 -0.1708
12752W        W28936  12.593   6.367   1.210  0.0126  0.2343 -0.0907
12753W        W28937   0.414   3.972   0.133  0.2043 -0.3076  0.1557
12754W        W28938  14.792   4.991  12.500 -0.1984 -0.2714  0.1611
12755W        W28939  12.440   3.801   1.663  0.3622 -0.0643 -0.0205
12756W        W28940  17.809   3.769  16.093  0.2484 -0.0445 -0.0665
12757W        W28941   3.521  11.381  12.857 -0.0346 -0.1094  0.2152
12758W        W28942   5.375   2.303  16.383 -0.0016 -0.0015  0.0375
12759W        W28943   8.110  10.375  15.738  0.2610 -0.1044  0.2641
12760W        W28944   1.287  15.551   4.802 -0.0483  0.0418 -0.0596
12761W        W28945   2.512   3.808   4.889 -0.0208 -0.2961  0.1258
12762W        W28946   1.251   4.806  14.876 -0.0371  0.1345 -0.1667
12763W        W28947  17.125   6.520   5.364  0.2658  0.0385  0.1515
12764W        W28948   6.935  13.363   5.005 -0.0600  0.3355 -0.2156
12765W        W28949   1.406   5.669   0.218  0.1819 -0.1446  0.2570
12766W        W28950   7.614  12.855   1.037 -0.0372 -0.0568 -0.0029
12767W        W28951   1.617   4.789   2.188 -0.3973  0.2534  0.2089
12768W        W28952   3.153   0.439   1.136 -0.0228  0.1198  0.0268
12769W        W28953  17.260  16.881  11.239  0.2497  0.0111  0.1291
12770W        W28954   0.892  12.832   5.190  0.1640 -0.2053  0.2618
12771W        W28955   7.522   6.415  16.175  0.1206  0.0678 -0.1674
12772W        W28956  11.990  17.774  11.824 -0.3517 -0.0356  0.0783
12773W        W28957   4.134   4.423   2.806  0.0607  0.2969  0.2582
12774W        W28958   8.632  13.383   3.095  0.1141 -0.0053  0.2142
12775W        W28959  12.785   6.681   5.618  0.0464 -0.1116 -0.1225
12776W        W28960   8.841  11.127   3.880  0.1445  0.2354 -0.4381
12777W        W28961   2.015   1.142  12.566 -0.0021  0.0687 -0.0164
12778W        W28962  10.576  15.780  11.475 -0.1309  0.0787  0.2097
12779W        W28963  10.119  16.765   4.172  0.1312  0.2596 -0.3701
12780W        W28964   2.461   5.788   4.909  0.0350 -0.2234  0.0128
12781W        W28965  16.265  15.690   1.220  0.0615 -0.1166 -0.0494
12782W        W28966  11.569   1.560   3.576  0.0229  0.3777  0.0973
12783W        W28967   9.203  15.952   2.027  0.0444  0.0279  0.0332
12784W        W28968  15.916   4.201   0.819  0.1602 -0.1318  0.0148
12785W        W28969  16.741  15.888   2.342 -0.2710  0.2000 -0.0174
12786W        W28970  16.734   7.976  13.555 -0.0412 -0.1793 -0.1474
12787W        W28971   4.032   9.986   1.283 -0.0707  0.3804 -0.3363
12788W        W28972  13.904   3.739  16.625 -0.4492  0.1247 -0.0465
12789W        W28973   6.085   7.982  15.580  0.0237  0.1758 -0.1291
12790W        W28974   4.948  17.584  12.736 -0.4128 -0.1166 -0.0588
12791W        W28975  15.605   7.791   1.972 -0.0724 -0.1202 -0.3762
12792W        W28976  14.919  13.637   6.180 -0.1142 -0.1219  0.1454
12793W        W28977  12.080   0.456  14.469  0.0671  0.1206 -0.0458
12794W        W28978  12.527  16.475  15.728 -0.2877 -0.1445 -0.1049
12795W        W28979   8.581   6.636  12.370  0.2344 -0.0896  0.2413
12796W        W28980   2.711  10.546  14.731  0.1032  0.1588  0.2292
12797W        W28981   4.643  13.380   1.079  0.0434  0.1014 -0.1146
12798W        W28982   5.549  15.757  11.848 -0.0531  0.0927 -0.0365
12799W        W28983  10.738   1.583  15.529 -0.1562  0.0630 -0.0985
12800W        W28984  12.599  11.569   3.132  0.1167 -0.0656 -0.0320
12801W        W28985  12.818  16.756   3.377 -0.3647  0.0230  0.0523
12802W        W28986   4.690  14.428  13.836  0.1927  0.4506 -0.0338
12803W        W28987  15.726   1.717  16.647 -0.3024  0.0865  0.2936
12804W        W28988   5.313   8.274   5.438 -0.1814 -0.0567  0.1594
12805W        W28989  12.960  12.473  11.819  0.1212 -0.2707 -0.1117
12806W        W28990   4.077  14.087   5.788  0.1552 -0.2638 -0.0319
12807W        W28991   2.960   7.939   1.117  0.1228 -0.0739  0.1594
12808W        W28992   8.011   5.009   3.622  0.2020  0.2329  0.1702
12809W        W28993   8.641  12.815  12.838 -0.0348 -0.2888 -0.4318
12810W        W28994  17.620  12.409   4.758 -0.0508  0.0162 -0.1238
12811W        W28995  14.079   0.609   0.898 -0.0042 -0.0512 -0.3570
12812W        W28996  15.694  11.037  11.769  0.1577  0.2166  0.0895
12813W        W28997   6.879  13.730   3.255 -0.0815 -0.0520  0.0135
12814W        W28998  17.572  17.399   1.027  0.0679  0.0408 -0.2136
12815W        W28999   3.798   7.075  14.709 -0.0751  0.0894 -0.2306
12816W        W29000   5.820  15.653  13.415  0.0301  0.0807 -0.1925
12817W        W29001  14.105   2.769   5.062 -0.1321 -0.4092  0.1737
12818W        W29002   1.204  17.700   5.436 -0.0375 -0.3221 -0.0090
12819W        W29003   5.617  12.702  15.386  0.1803 -0.4614  0.0894
12820W        W29004  12.954   5.672   1.556  0.0764  0.0429 -0.0513
12821W        W29005  11.137  16.315   3.683  0.1077  0.2518 -0.1918
12822W        W29006   2.212  16.953  15.771  0.0889 -0.0565 -0.0517
12823W        W29007   7.774  17.872   0.736  0.1767  0.1962 -0.0120
12824W        W29008  10.157   6.158   3.224  0.1117  0.0670  0.0600
12825W        W29009   2.742   5.276  15.342  0.1136 -0.1484 -0.2984
12826W        W29010   9.412   3.965   5.935 -0.0852  0.3498  0.0285
12827W        W29011   0.410   2.670  16.161 -0.2887 -0.0029  0.0262
12828W        W29012   1.147   7.049  14.063  0.0799 -0.4581 -0.0957
12829W        W29013   7.478   4.718  16.473  0.1059  0.1774 -0.0461
12830W        W29014  11.167   7.351  14.282 -0.0915  0.3035  0.0539
12831W        W29015   5.218  14.628  12.175  0.1938  0.0956 -0.2222
12832W        W29016   4.569  10.138   1.224  0.0263 -0.0170  0.2022
12833W        W29017  17.163   5.490  16.161 -0.1643  0.2987  0.1870
12834W        W29018   9.227  14.882  15.653  0.0035 -0.0557 -0.0476
12835W        W29019  10.639  13.973  13.436 -0.1454  0.1844 -0.0081
12836W        W29020   3.834   3.202  11.529 -0.0591 -0.2843 -0.0569
12837W        W29021   1.270  15.742   3.879  0.0175 -0.0798 -0.0748
12838W        W29022   0.591  14.147  16.699 -0.0720  0.0093 -0.0156
12839W        W29023  14.305   4.137   2.068  0.0245 -0.1784 -0.1583
12840W        W29024  15.784   5.708  13.572  0.0906 -0.4534  0.0236
12841W        W29025   2.567  12.959   2.966  0.1165  0.2351 -0.0508
12842W        W29026   1.457  12.981  12.123  0.0487 -0.2904  0.1110
12843W        W29027  16.254   1.786  12.802  0.1384 -0.1979 -0.0125
12844W        W29028   3.422   5.140  16.154 -0.0073 -0.0052 -0.2827
12845W        W29029  13.352  11.608   1.362 -0.1243 -0.1150 -0.2479
12846W        W29030   0.510  14.054  14.251  0.2706  0.2120 -0.1151
12847W        W29031  12.815   4.890   5.251  0.0717  0.0726 -0.1983
12848W        W29032  16.368   2.167   0.499  0.1776  0.0970  0.1150
12849W        W29033   4.127   0.995  14.708  0.0699 -0.1370 -0.1595
12850W        W29034   5.813   9.248  11.810 -0.2758 -0.0445  0.3421
12851W        W29035   8.731  15.323  12.573 -0.0919  0.0459  0.1566
12852W        W29036  11.608  13.380   4.418 -0.0067  0.2103  0.0478
12853W        W29037   1.497   2.318  16.776 -0.4301  0.2191 -0.1000
12854W        W29038  17.143  12.457   4.523  0.1185  0.0649  0.1544
12855W        W29039   9.944   3.298   0.817  0.1082 -0.1763 -0.1247
12856W        W29040   8.119   7.220  11.946  0.0712  0.1030 -0.1735
12857W        W29041  10.064  15.791  11.713 -0.1674 -0.2258  0.1816
12858W        W29042  16.143  13.159   4.335  0.0039  0.0082  0.1482
12859W        W29043  13.975  11.618  15.579 -0.0519 -0.1258  0.2963
12860W        W29044   3.444   4.574   0.005  0.1299 -0.2942 -0.2306
12861W        W29045   2.821  16.317  11.558 -0.3192  0.1264 -0.0975
12862W        W29046   3.455  13.130   0.531  0.0510 -0.0007 -0.0766
12863W        W29047   0.252  13.045  12.182  0.0712 -0.3414  0.1226
12864W        W29048  12.817  15.661  16.147 -0.1561 -0.0776  0.3051
12865W        W29049   6.590  17.170   1.253  0.2811  0.0507 -0.1887
12866W        W29050  14.425  15.583   2.106  0.3011 -0.1591  0.1226
12867W        W29051   9.031   6.438  13.927  0.1777  0.1429 -0.1180
12868W        W29052   8.377   1.035  15.960 -0.1102  0.1112  0.0268
12869W        W29053  11.478   8.763   3.325  0.1324 -0.0198  0.3204
12870W        W29054   2.184   5.956  12.476  0.4571  0.0110 -0.1652
12871W        W29055   8.429  17.554   4.680  0.0687  0.1134 -0.3177
12872W        W29056   8.628   7.294  14.648 -0.2012  0.4489  0.0231
12873W        W29057   7.982   0.414   0.932  0.0958 -0.0075  0.3565
12874W        W29058  17.089  13.151  11.659  0.0782 -0.2857  0.0703
12875W        W29059   0.655   3.125  12.293 -0.1819 -0.2262 -0.2316
12876W        W29060   9.111   8.570   0.858 -0.0697 -0.0527 -0.0532
12877W        W29061  13.239  13.390   3.442 -0.4016  0.1812  0.0163
12878W        W29062  16.054   2.000   4.769  0.0289  0.0342 -0.1275
12879W        W29063  13.921   0.192   3.045  0.2774  0.1276 -0.1104
12880W        W29064  15.109   4.615  14.554  0.0261  0.0057  0.1963
12881W        W29065  12.043   9.807   1.755  0.0139 -0.1469 -0.2938
12882W        W29066  13.953  11.715  16.046  0.0704 -0.1234  0.0068
12883W        W29067   7.044  12.365  12.544  0.1460 -0.2242  0.0576
12884W        W29068   7.729  11.181  15.838  0.0799 -0.1494 -0.1393
12885W        W29069  11.385   7.535  13.364 -0.3568  0.3082 -0.1670
12886W        W29070  12.477  17.048   0.211  0.2231 -0.1344 -0.0097
12887W        W29071  17.432   2.013  12.310 -0.1035 -0.1098  0.2517
12888W        W29072  11.638   4.098  16.090  0.1319 -0.0111 -0.2916
12889W        W29073   6.743  13.596  12.613  0.0539 -0.2209 -0.1234
12890W        W29074  16.733  16.812   2.835  0.4883 -0.1795  0.0431
12891W        W29075  10.463   3.555  12.974  0.1030  0.2278 -0.0266
12892W        W29076  15.447   5.353  13.351  0.0706 -0.0360 -0.1008
12893W        W29077  14.718  10.448   2.140 -0.0165 -0.0481 -0.1462
12894W        W29078   1.559   8.271  11.768  0.0536  0.0419 -0.2820
12895W        W29079  16.536  16.222   1.133 -0.1672  0.1880  0.2120
12896W        W29080   2.923  11.786  13.211  0.0369  0.3629 -0.0237
12897W        W29081   5.415   1.952   0.830 -0.0009 -0.0302  0.1501
12898W        W29082   6.905   0.146  11.773 -0.1416 -0.1661  0.0958
12899W        W29083  11.530  14.291   4.704  0.1606 -0.1075  0.0785
12900W        W29084   9.582  16.009  16.615  0.2010 -0.1911 -0.2675
12901W        W29085  11.301  10.171  14.367 -0.0634  0.2141  0.0030
12902W        W29086  11.868  11.755   2.530 -0.2855 -0.3850 -0.2941
12903W        W29087   5.925   8.114  12.321  0.0848  0.0067 -0.3003
12904W        W29088   8.103  14.804  15.941  0.0974 -0.0166 -0.0665
12905W        W29089   7.500   1.081  15.873 -0.0684  0.0642 -0.0019
12906W        W29090  10.759  13.313  14.550 -0.0183 -0.0610 -0.0455
12907W        W29091   6.331  16.499  13.658  0.1263 -0.0121 -0.0332
12908W        W29092   4.421  16.633   4.065  0.4202  0.1833 -0.0979
12909W        W29093   4.026  15.571   1.937  0.0102 -0.0393  0.1578
12910W        W29094  15.381  14.288  14.119 -0.2223  0.0869  0.1626
12911W        W29095   1.044   3.019   2.952  0.1568  0.3733  0.3684
12912W        W29096   4.328  17.664   5.168  0.0087 -0.0320  0.2203
12913W        W29097  14.043  13.149  13.386  0.1299  0.1347 -0.0541
12914W        W29098  15.088   4.315  11.934  0.0829  0.3285 -0.0429
12915W        W29099  16.179   6.831  12.788  0.0344  0.1252  0.1607
12916W        W29100   5.105   5.337   4.612 -0.1351 -0.0300  0.0265
12917W        W29101  11.841   8.674   3.706  0.0688  0.1497 -0.1224
12918W        W29102  12.628  16.715   1.539 -0.2083  0.0695  0.1676
12919W        W29103   1.620   2.183  13.589 -0.0758 -0.0253  0.3577
12920W        W29104  12.965  14.421  12.608  0.0832 -0.1234  0.1041
12921W        W29105   9.939   4.456  13.931 -0.0841  0.1094  0.2914
12922W        W29106   4.853   0.234   3.146  0.0553  0.0486 -0.1540
12923W        W29107   5.475   4.233   6.553  0.1032 -0.2774  0.1689
12924W        W29108  16.429   4.152  12.465  0.0970 -0.0451 -0.0602
12925W        W29109   0.520   9.479  16.274  0.0473  0.0391 -0.0769
12926W        W29110  15.297   9.683   0.242  0.0886 -0.2323  0.1069
12927W        W29111   5.728   6.307  14.079  0.0140  0.0058  0.2411
12928W        W29112   1.096  12.931   2.302  0.0287 -0.1305  0.0117
12929W        W29113  16.590  15.858  14.436  0.0743 -0.6978  0.1124
12930W        W29114  14.338   1.371  15.104 -0.2135  0.0817 -0.0681
12931W        W29115  14.107   6.944   0.228 -0.0385  0.0099 -0.2015
12932W        W29116   7.330   1.855   2.427  0.0564  0.0678 -0.1689
12933W        W29117   0.149   4.077   2.667 -0.1114 -0.0186 -0.0804
12934W        W29118   6.420   5.864  16.175 -0.0691  0.1232 -0.2271
12935W        W29119  14.064  17.056   2.910  0.0347 -0.0347 -0.0522
12936W        W29120   8.115   0.315   4.050  0.0894  0.3415  0.0930
12937W        W29121  13.863   2.216   5.251 -0.0346 -0.4062  0.0277
12938W        W29122   4.567   7.258   5.089  0.0596 -0.2434 -0.1175
12939W        W29123  11.879  14.037   1.291  0.1204 -0.2039  0.0573
12940W        W29124   9.745   7.439  15.415 -0.1284 -0.0200 -0.2514
12941W        W29125   0.861   6.589   1.801  0.1728 -0.2287 -0.2445
12942W        W29126  15.475   1.723   0.608 -0.0705  0.2710  0.1418
12943W        W29127   1.561  13.018  13.589 -0.0863  0.0589  0.1052
12944W        W29128   9.335   6.058  12.629  0.5024 -0.1418  0.0835
12945W        W29129  14.359   1.230  11.809  0.0033 -0.3395 -0.0615
12946W        W29130  16.786  14.791  15.858 -0.2879  0.1164 -0.0265
12947W        W29131   2.026   2.888   0.437  0.0402  0.0104 -0.0100
12948W        W29132   4.192  13.553  13.707  0.2193  0.0449  0.0575
12949W        W29133  16.278   7.380  14.240  0.1546  0.0149 -0.0964
12950W        W29134   1.731   4.794   3.224 -0.1585 -0.1682 -0.4413
12951W        W29135   6.013  17.580  14.951 -0.3460  0.0878  0.1426
12952W        W29136   2.324  14.708  13.704 -0.0647 -0.1239  0.0016
12953W        W29137  14.371  12.978  15.671 -0.2444  0.1533 -0.1951
12954W        W29138   9.053  11.486   0.916 -0.1590 -0.0368  0.4298
12955W        W29139  13.013  12.429   1.598  0.1363 -0.1556 -0.1608
12956W        W29140   0.807   8.073   2.713 -0.0405 -0.1913 -0.4217
12957W        W29141   5.364   4.387   2.916 -0.1329  0.1675 -0.0546
12958W        W29142  16.876   8.112   5.613 -0.1983 -0.1015 -0.2080
12959W        W29143   6.449  10.882   1.260  0.2687  0.1468  0.1265
12960W        W29144   1.621   4.858   5.532  0.0262  0.2078 -0.2054
12961W        W29145   8.498  17.334   6.110 -0.0239 -0.1948 -0.1039
12962W        W29146   1.912  10.081   0.486 -0.2806 -0.6874  0.1484
12963W        W29147   7.915  12.313   5.423 -0.4242  0.0141 -0.1805
12964W        W29148   1.361  16.420  11.865  0.2405 -0.1447 -0.3381
12965W        W29149  17.067  11.072   1.567  0.1665 -0.0561 -0.5265
12966W        W29150  13.251  12.847   4.904  0.0300 -0.1401  0.0657
12967W        W29151   7.915   0.604   0.470  0.1603 -0.0951 -0.0183
12968W        W29152  15.181  12.812  14.450  0.1591 -0.0757  0.0454
12969W        W29153   5.753  17.674   1.828  0.1454  0.3095  0.0735
12970W        W29154  12.404   0.923  13.607  0.0919 -0.1998 -0.1102
12971W        W29155   3.223   5.823   0.459  0.0036  0.3183 -0.1793
12972W        W29156  16.576  11.411   2.672  0.0906 -0.2345  0.0921
12973W        W29157   2.595  13.545   4.865  0.2046 -0.0796 -0.1924
12974W        W29158  11.090   1.928   4.773 -0.0930 -0.1297 -0.1504
12975W        W29159  17.710  14.237   1.213  0.3236  0.2447 -0.1883
12976W        W29160  17.351   6.025  12.322  0.1009  0.2405  0.2571
12977W        W29161   2.461  16.314  13.253  0.0662  0.3790  0.0523
12978W        W29162   6.068   7.082   5.677 -0.1179  0.1882 -0.1573
12979W        W29163  10.930   2.611  12.095  0.0789 -0.0259  0.1753
12980W        W29164  12.880   6.623   0.401  0.1887 -0.1233  0.0426
12981W        W29165  15.894  10.172   0.122  0.0521 -0.0674  0.0203
12982W        W29166   7.186   9.093  13.820  0.1120 -0.2548  0.0028
12983W        W29167   7.080  17.095  13.716  0.1595  0.1558 -0.1275
12984W        W29168  14.573  14.610  12.878  0.2551 -0.2967  0.2166
12985W        W29169  16.781   1.136  15.294 -0.3190  0.1614  0.1727
12986W        W29170   3.696   0.207  15.278  0.0305  0.2118  0.2408
12987W        W29171  14.717  14.611   3.444  0.0652  0.0901 -0.2066
12988W        W29172  17.484   7.398   2.244 -0.1508  0.0732  0.0995
12989W        W29173  16.771   1.880   0.335 -0.0629 -0.3357  0.0800
12990W        W29174   6.249   7.400  13.047 -0.0102  0.2675  0.1901
12991W        W29175   8.548   8.117   0.200 -0.1610  0.1674 -0.1531
12992W        W29176   3.522   7.228  13.327 -0.0290  0.1293  0.1905
12993W        W29177   7.995  14.047   6.092  0.1579 -0.3570 -0.2388
12994W        W29178   7.300   7.385   3.177 -0.0285  0.0117  0.4213
12995W        W29179  14.129   8.329  13.500  0.0008 -0.1135  0.1316
12996W        W29180  17.789   2.421  15.208 -0.0834 -0.0972 -0.0949
12997W        W29181   5.964  10.595  13.340 -0.3266 -0.0900  0.1742
12998W        W29182   6.481   5.302   5.620  0.0540  0.3298  0.0943
12999W        W29183   8.389   3.295  16.160  0.0871  0.3210  0.1710
13000W        W29184   7.582  11.156  16.636 -0.1500 -0.1660  0.1235
13001W        W29185  17.276   7.490  13.024  0.0487  0.1328 -0.0308
13002W        W29186   3.655   5.062   0.194  0.0112  0.0024 -0.0544
13003W        W29187  17.579   2.972  13.692  0.3191  0.0331 -0.1757
13004W        W29188  13.450  11.931   3.056  0.0130 -0.0592  0.0702
13005W        W29189   4.232   2.482   3.852  0.1287  0.0317 -0.1472
13006W        W29190  10.506   5.544   3.787 -0.1651 -0.1597  0.0396
13007W        W29191  16.451  14.456   0.426  0.1573  0.0661 -0.1254
13008W        W29192  15.662  17.279  11.599  0.3971 -0.1044  0.1837
13009W        W29193  16.504   3.456   5.754  0.2665 -0.1556  0.0819
13010W        W29194   1.897  17.100   4.304 -0.4986 -0.0753  0.1702
13011W        W29195   2.021  10.603   3.107 -0.3544 -0.0717 -0.0265
13012W        W29196  17.812   4.743  15.116  0.0784 -0.1070  0.0058
13013W        W29197   9.888   5.013  16.874 -0.1221  0.0725 -0.1542
13014W        W29198   7.326  10.929  15.070  0.1180  0.0126  0.2733
13015W        W29199   3.904  15.385   5.353  0.1681  0.1946 -0.3462
13016W        W29200   2.937  15.346   0.759  0.2334  0.0536 -0.0274
13017W        W29201  13.095  10.904  13.820 -0.0237  0.1961  0.1022
13018W        W29202   6.566  15.893  15.361 -0.2683  0.2633  0.0497
13019W        W29203   7.215   4.464  15.601 -0.2358 -0.2049 -0.1068
13020W        W29204  10.482   5.614  16.580  0.0723 -0.0160 -0.0039
13021W        W29205  11.192   4.354  13.947  0.2131  0.2425  0.1078
13022W        W29206  17.460  10.763   2.899  0.0875 -0.2340 -0.0117
13023W        W29207  11.412  15.479  15.026 -0.0206 -0.1315  0.0100
13024W        W29208   0.721  15.721  12.694 -0.0985  0.0181 -0.2556
13025W        W29209  11.810  11.373   3.120  0.0907 -0.0736 -0.2590
13026W        W29210  10.340  14.948  16.434 -0.1372 -0.0104  0.1097
13027W        W29211  11.864   1.070   0.816 -0.3854 -0.1866 -0.0955
13028W        W29212   4.857  12.908   4.301  0.0214  0.2035  0.3785
13029W        W29213  12.845   4.887   6.182 -0.1096  0.0582  0.1087
13030W        W29214   0.926   8.474  14.286  0.1857 -0.0207  0.1578
13031W        W29215  13.711  10.960   3.945 -0.2263 -0.0047  0.1958
13032W        W29216   4.436   2.409  15.899  0.0319  0.0952  0.0164
13033W        W29217  12.235  13.567   2.397  0.3033 -0.1390 -0.1621
13034W        W29218   1.171   1.569  15.655 -0.1520  0.2559  0.4163
13035W        W29219  15.403   1.257  16.564  0.0476  0.1000 -0.1749
13036W        W29220   6.256  16.347   3.671  0.2315  0.1539 -0.0803
13037W        W29221  17.710   1.604  12.164 -0.0395  0.0250 -0.1529
13038W        W29222   9.183  16.569   5.019  0.0665 -0.0293  0.1054
13039W        W29223   2.527   9.597  16.714  0.0661 -0.0466 -0.1299
13040W        W29224   6.938  13.088   2.189  0.0794 -0.0328 -0.2605
13041W        W29225  13.204  17.748  13.555 -0.1794 -0.2013 -0.0531
13042W        W29226  13.395  12.668  15.422  0.1227  0.1406  0.1701
13043W        W29227   6.073   5.963  15.332 -0.1963  0.0941  0.3408
13044W        W29228  16.285   4.817   4.204  0.0312 -0.1667 -0.1463
13045W        W29229  11.619  16.623  15.579 -0.0691  0.1703 -0.5191
13046W        W29230  16.553   1.955  12.250 -0.1067 -0.2208 -0.0012
13047W        W29231  16.158  14.359   3.944 -0.1438  0.0654 -0.1013
13048W        W29232   5.108   4.671  14.916 -0.2325 -0.0406  0.0305
13049W        W29233  10.428   5.481  12.188 -0.0297 -0.1539 -0.0735
13050W        W29234  11.846   5.976  13.889 -0.3335 -0.2719 -0.0243
13051W        W29235  15.106  16.318  12.266 -0.0936  0.1292 -0.1826
13052W        W29236   1.298   0.513  12.671 -0.0682  0.0287  0.2265
13053W        W29237  12.201   5.029  15.091  0.2506 -0.1138  0.0312
13054W        W29238  14.971  13.339  16.396 -0.1351  0.1284 -0.3149
13055W        W29239  13.364  17.745  16.225 -0.3131  0.1315  0.0460
13056W        W29240   4.463  15.784  12.043  0.1891 -0.1460  0.0173
13057W        W29241   1.470   4.846   4.488 -0.1310 -0.2688 -0.1269
13058W        W29242   3.344   1.158  11.891  0.2279 -0.1175  0.0743
13059W        W29243   1.020   8.770  14.804 -0.1196 -0.2587  0.1813
13060W        W29244   9.426  10.449   6.104 -0.2268  0.0125  0.1917
13061W        W29245   4.529  11.536   0.064 -0.2410  0.0981  0.0507
13062W        W29246   2.790  11.275  16.513  0.1163 -0.1600 -0.1652
13063W        W29247  14.408   4.806   5.039  0.0002 -0.1974 -0.0442
13064W        W29248   2.886   4.258   5.275  0.2445  0.0417  0.4178
13065W        W29249   2.814   0.843  16.043 -0.0852 -0.0059  0.1390
13066W        W29250   5.450  16.508  15.678  0.1335  0.0563 -0.0652
13067W        W29251  15.992   7.237  15.522 -0.1341 -0.0960 -0.1558
13068W        W29252   2.567   1.814  12.696  0.0703 -0.0759  0.1596
13069W        W29253   1.902  16.337   2.754 -0.2918  0.0680 -0.0897
13070W        W29254  16.253   3.503  11.714 -0.1316 -0.1048  0.0472
13071W        W29255  14.221  11.895   1.267  0.0635 -0.2011 -0.0139
13072W        W29256   5.174  13.785   4.424  0.1747  0.0500  0.2800
13073W        W29257  13.603   8.976   1.815  0.0248  0.1943 -0.1918
13074W        W29258   6.042  15.328  15.110 -0.0361  0.1183  0.2541
13075W        W29259  11.357   9.713   3.333 -0.4898  0.0663 -0.1892
13076W        W29260  10.388   8.624   4.287  0.1870  0.0647  0.1810
13077W        W29261   4.721   9.364  12.552  0.4384  0.0246 -0.1725
13078W        W29262   4.894  14.077   1.365  0.1802  0.0139  0.0490
13079W        W29263   2.888   5.432   3.048  0.0280 -0.2195 -0.1048
13080W        W29264   7.532  15.636   0.832 -0.2566 -0.1311 -0.0832
13081W        W29265   5.859  11.866  13.465  0.1255  0.0725  0.0540
13082W        W29266   9.748  16.622   5.147  0.2555  0.1403  0.3111
13083W        W29267   5.603   2.117   3.725  0.1683  0.1006  0.1061
13084W        W29268   1.385   1.441   2.574  0.1844 -0.0929 -0.0728
13085W        W29269   7.907  12.448  16.719 -0.0885 -0.0541 -0.0179
13086W        W29270  14.547  10.953  15.600 -0.2509  0.0772  0.0957
13087W        W29271   4.389  13.980  10.946  0.3074  0.2197 -0.2119
13088W        W29272  10.532   9.912  15.910 -0.0894  0.1501  0.0867
13089W        W29273  15.813  10.825   5.284  0.2248 -0.0296 -0.1374
13090W        W29274  12.260   3.036  15.506  0.1426 -0.0264 -0.0627
13091W        W29275  10.928  13.713  12.718  0.0765 -0.0664  0.2950
13092W        W29276   2.559   0.027   0.390  0.3245 -0.0716 -0.1442
13093W        W29277   3.629   6.496  12.376  0.1843 -0.2098  0.0390
13094W        W29278   9.658  12.919  15.584 -0.3275  0.0547 -0.3106
13095W        W29279  13.714  12.742  12.213 -0.1754 -0.1895 -0.2199
13096W        W29280   2.648  10.058  14.487  0.0609 -0.0012  0.1010
13097W        W29281   9.380  10.633   4.531  0.1211 -0.4086  0.0416
13098W        W29282   3.841   5.990   4.137 -0.0021  0.1324  0.1225
13099W        W29283   2.081   2.016   2.291 -0.0160 -0.3612 -0.2136
13100W        W29284   4.989   3.413  14.924 -0.1802  0.2515 -0.0501
13101W        W29285   9.282   7.995   3.754  0.1337  0.1789 -0.0987
13102W        W29286  15.984  14.007  16.288  0.2887  0.1952 -0.1623
13103W        W29287   3.655  16.974  12.736 -0.2801  0.2622 -0.0036
13104W        W29288  10.865  17.755   3.316  0.0096 -0.2375 -0.2397
13105W        W29289  17.834  15.679  14.640  0.1509 -0.0080  0.0333
13106W        W29290  17.736  13.530   5.392 -0.0205 -0.0895  0.1658
13107W        W29291  16.988  11.998  15.148  0.1122 -0.0756  0.0948
13108W        W29292   6.852  13.112   6.005 -0.1953 -0.0666 -0.0492
13109W        W29293   7.116  14.512  13.980  0.1814  0.0157  0.1567
13110W        W29294  13.174  10.213  12.722  0.2645  0.1834 -0.0662
13111W        W29295   6.798   3.894  14.876  0.0042 -0.1788  0.3606
13112W        W29296   9.780   6.441  16.383  0.1992  0.2692 -0.0751
13113W        W29297   2.452   6.489  16.656  0.0035  0.0989 -0.1185
13114W        W29298  14.729   0.003  15.195  0.1490  0.1684  0.1071
13115W        W29299   2.963   6.572   0.165  0.3386  0.0212  0.1337
13116W        W29300  14.651   2.580  15.542 -0.0358  0.3239 -0.3104
13117W        W29301   4.548   6.542  10.979  0.1324  0.1674 -0.2838
13118W        W29302   0.356   5.566   6.333 -0.1136  0.3308 -0.0833
13119W        W29303  12.689  11.079   1.852 -0.1102  0.0460 -0.0572
13120W        W29304   7.502  17.629  15.116 -0.2880 -0.0012 -0.2132
13121W        W29305  15.209  17.771   2.325 -0.3108 -0.0698 -0.2884
13122W        W29306   7.939   3.851  13.155 -0.1826 -0.2716 -0.3758
13123W        W29307   6.986   1.316  14.898 -0.0953 -0.0591 -0.1305
13124W        W29308  11.104   4.936   0.715 -0.0775 -0.0724  0.0585
13125W        W29309   5.965   1.929   0.801  0.1985 -0.1080 -0.1711
13126W        W29310   2.108   6.673   0.294  0.0084 -0.0252  0.0782
13127W        W29311  17.716  13.144  15.860 -0.0608  0.1630 -0.0315
13128W        W29312   3.200  12.681  13.566  0.0974 -0.3242  0.0186
13129W        W29313   7.632   7.246   4.889 -0.2930 -0.3173  0.1365
13130W        W29314  11.408  14.384  16.060 -0.1036 -0.0635 -0.0865
13131W        W29315   0.247   5.074  15.415  0.2494  0.2646  0.1180
13132W        W29316   0.785   5.067  15.322 -0.0660 -0.0963  0.0759
13133W        W29317   5.810   1.151  13.657 -0.0965 -0.3693  0.2737
13134W        W29318   1.719  12.581  13.424 -0.2993  0.0790  0.3798
13135W        W29319   5.726  13.585   0.478 -0.1323  0.0561 -0.0870
13136W        W29320   7.758   5.386   5.022 -0.1527  0.2244 -0.3034
13137W        W29321  11.795   1.903  15.933 -0.2568 -0.0110  0.1693
13138W        W29322  11.715   7.629  15.726  0.1516  0.1338  0.2765
13139W        W29323   5.693  12.175   1.871 -0.3195 -0.1182 -0.1902
13140W        W29324  17.080  16.084  16.747 -0.1693 -0.0662  0.0384
13141W        W29325  16.817  10.950  12.295 -0.0215  0.0310  0.0102
13142W        W29326   4.491   2.537   1.587  0.2422 -0.0616 -0.2703
13143W        W29327   9.242   0.324   4.584 -0.3281 -0.1231 -0.3863
13144W        W29328   4.519  17.046   2.291  0.2307  0.1483 -0.0885
13145W        W29329   1.693   7.715   0.797 -0.1527 -0.0753 -0.0811
13146W        W29330   6.924   0.162   2.599 -0.0524  0.1496  0.1219
13147W        W29331   9.585  11.492   4.104  0.0431 -0.1986 -0.0521
13148W        W29332  10.566  12.526   0.716 -0.1340  0.0244 -0.1582
13149W        W29333   6.478   8.972   1.292 -0.1610  0.0329 -0.1784
13150W        W29334   9.776  17.171  12.528  0.1274  0.1619  0.0010
13151W        W29335   5.863  16.109   1.735  0.0525 -0.1995 -0.1658
13152W        W29336   3.118  15.251   5.805 -0.2517  0.2233  0.2459
13153W        W29337   0.865  11.601   0.942 -0.1802 -0.0182  0.1435
13154W        W29338   9.346  11.731   0.004  0.0847 -0.1651 -0.2549
13155W        W29339   2.275  13.013  12.725  0.1416  0.0086 -0.0329
13156W        W29340   1.922   8.382   3.775 -0.1130 -0.4089 -0.0196
13157W        W29341   8.832   2.536  14.081 -0.3310  0.0184  0.4241
13158W        W29342  10.320  13.084   1.513  0.1454 -0.0350 -0.0672
13159W        W29343   9.622   3.518   5.680 -0.1717 -0.0645  0.1849
13160W        W29344  17.460   1.153  12.177 -0.2106  0.1609  0.2688
13161W        W29345  16.462   4.655  16.159 -0.5974  0.1194 -0.0024
13162W        W29346   9.574  14.356   2.518  0.3138 -0.0717 -0.4072
13163W        W29347   9.448   1.959  16.617 -0.1436  0.0921 -0.0004
13164W        W29348   7.166  10.241  16.720 -0.0788 -0.3216  0.0520
13165W        W29349   6.846  10.754  15.062 -0.0253  0.2617 -0.0381
13166W        W29350   5.739  11.588   0.597 -0.0444  0.0914 -0.1993
13167W        W29351   5.650   0.375   5.420 -0.4615  0.0505 -0.1644
13168W        W29352   9.622   0.398   0.084 -0.0682  0.0670 -0.1500
13169W        W29353  12.366  17.173   1.532  0.1305 -0.2664 -0.2999
13170W        W29354   8.447   8.088  12.059 -0.1290  0.0688 -0.1014
13171W        W29355   6.526  11.156  15.784  0.0668 -0.0791 -0.1421
13172W        W29356   2.747   7.928   5.775  0.0214 -0.0133 -0.0430
13173W        W29357   6.822   4.722  12.438  0.1886 -0.1268  0.1957
13174W        W29358   7.925   4.662   2.594  0.0062  0.0719  0.0143
13175W        W29359  17.841  12.417   2.868  0.1506  0.1926 -0.0445
13176W        W29360   0.156  10.675  15.659  0.1032 -0.0013  0.0250
13177W        W29361   0.885   7.543   0.340  0.0751  0.0095 -0.2787
13178W        W29362  15.320  13.076   2.644  0.0436  0.0029 -0.0125
13179W        W29363   8.173   4.649  15.480  0.1020  0.1376  0.0396
13180W        W29364  14.885   9.853   1.159 -0.1928  0.1538  0.1096
13181W        W29365  14.826   6.039  16.475 -0.1313 -0.0307  0.1308
13182W        W29366   6.806   1.086   1.034 -0.1329  0.1309  0.1786
13183W        W29367  15.669   0.253  15.615 -0.0805  0.1271 -0.0095
13184W        W29368   9.530   4.062   0.089 -0.2367  0.0316 -0.1934
13185W        W29369   0.595   9.358   3.054 -0.2063  0.3154 -0.1914
13186W        W29370  10.499  17.061   2.150  0.2317 -0.5467  0.1965
13187W        W29371   2.710   2.603  15.199 -0.1302  0.1982 -0.2077
13188W        W29372   7.102   7.639  14.891  0.1074  0.0049  0.2345
13189W        W29373  11.779   4.152  11.668 -0.0046 -0.0866 -0.0861
13190W        W29374   6.747   3.171  13.488  0.2871  0.0442  0.0570
13191W        W29375  17.449   2.994  16.597  0.0206 -0.0607 -0.1251
13192W        W29376  17.233   6.860  14.673  0.0490 -0.2683 -0.0551
13193W        W29377  14.946   1.406  10.858 -0.0141 -0.4655 -0.2797
13194W        W29378  10.924   0.269  12.893 -0.0815  0.0184  0.1927
13195W        W29379   4.342   9.952   0.341  0.2114 -0.1287 -0.0743
13196W        W29380   8.260  10.592  11.940 -0.0041  0.1360  0.1690
13197W        W29381   0.804  14.353   2.362  0.0689  0.0395 -0.0453
13198W        W29382  15.326  14.085   4.996  0.2081 -0.0942 -0.1239
13199W        W29383  11.022   3.651  16.703  0.2575  0.0428 -0.2599
13200W        W29384   6.721   7.811  12.983 -0.0301  0.0269 -0.4952
13201W        W29385   1.883  14.693   5.575  0.3823  0.3216 -0.2326
13202W        W29386  14.168  16.387   0.954 -0.0004 -0.1746  0.3363
13203W        W29387   4.891  16.452  15.653  0.1147 -0.1074 -0.1412
13204W        W29388  16.495  11.784   1.280 -0.2238  0.0918 -0.1121
13205W        W29389   7.010   3.523  16.373  0.1351  0.0551  0.1109
13206W        W29390   4.631  10.763  12.639  0.1612  0.1440  0.1422
13207W        W29391  11.435   2.415  16.547 -0.3090 -0.2611  0.1791
13208W        W29392  13.122   1.176  13.689 -0.0877  0.1695 -0.0689
13209W        W29393   3.106  15.424  14.835 -0.1322  0.0694 -0.1509
13210W        W29394   1.797  10.969   0.630  0.0485 -0.1773 -0.5658
13211W        W29395  11.646  17.821  12.218  0.0118 -0.3553 -0.0632
13212W        W29396  17.205   9.229   2.016 -0.0443 -0.4017  0.2071
13213W        W29397  15.764   2.270   3.903  0.0761 -0.1285  0.1178
13214W        W29398  12.345   0.086  14.260  0.1408  0.2166  0.0477
13215W        W29399  13.129  16.210   2.561 -0.0303 -0.0118  0.1664
13216W        W29400   0.016  15.106  15.807 -0.2151 -0.0112 -0.0645
13217W        W29401   8.069   3.010  13.829  0.1692  0.1770 -0.0537
13218W        W29402  10.388  10.239  13.399  0.1329 -0.0397 -0.1823
13219W        W29403  14.528  11.612  13.279  0.1213  0.0246 -0.1287
13220W        W29404   4.535  16.830   0.113  0.0746  0.0121  0.0900
13221W        W29405  15.773  11.664  16.168 -0.4502 -0.1059 -0.2690
13222W        W29406  11.140   1.662   4.350 -0.1748 -0.2718 -0.0270
13223W        W29407  16.599  13.108   3.107 -0.0385  0.0484 -0.2085
13224W        W29408   1.661   2.098  12.727  0.0749 -0.0534  0.1441
13225W        W29409   5.678   6.692  13.284 -0.0995  0.2367  0.0796
13226W        W29410   3.366  15.599   1.570 -0.1718  0.3192 -0.1711
13227W        W29411   4.825   2.717  12.503  0.0669 -0.0403 -0.0183
13228W        W29412  15.296   1.247   4.939  0.1413 -0.2172 -0.0293
13229W        W29413   6.170   9.431  12.626  0.2074 -0.1542  0.0541
13230W        W29414   1.524   8.339   1.880 -0.1218 -0.2062 -0.0179
13231W        W29415   0.859  11.081   5.556  0.0588 -0.0696  0.0483
13232W        W29416   9.302  13.207  11.899 -0.0421  0.3655 -0.0648
13233W        W29417   7.777  14.048   4.755 -0.0903 -0.0337  0.1795
13234W        W29418  15.634  14.338   2.795  0.0129  0.1205  0.1655
13235W        W29419   0.050  10.660  12.786  0.1413  0.1619 -0.0689
13236W        W29420   6.302   1.060  13.618 -0.0835  0.0086  0.2857
13237W        W29421  14.164  12.855  12.954  0.0721  0.2664  0.2383
13238W        W29422   8.134  16.318  10.382  0.1464 -0.3991 -0.0061
13239W        W29423  17.530   2.393   4.640  0.2625  0.0401  0.1380
13240W        W29424   4.570   2.748   2.264  0.0270  0.1473  0.0840
13241W        W29425   1.518   8.367   6.216 -0.2313  0.0079 -0.0236
13242W        W29426  12.796   2.167  12.265 -0.3505  0.0884  0.1075
13243W        W29427   9.096   7.004  14.657 -0.0756  0.2679 -0.1356
13244W        W29428  12.766   0.526   1.100 -0.0863 -0.0240 -0.0020
13245W        W29429   3.566   5.965  12.372 -0.1522  0.0301 -0.2072
13246W        W29430   9.359   6.541  12.128 -0.2239  0.2011  0.0909
13247W        W29431   4.203   2.633  16.393  0.0587  0.2217 -0.0125
13248W        W29432   8.039  16.628   2.817 -0.0388 -0.1577 -0.1789
13249W        W29433  17.453  15.191   1.478 -0.1038 -0.0510  0.0486
13250W        W29434   8.936  13.368  12.166 -0.0727  0.0366  0.0923
13251W        W29435   4.302  12.992   4.554 -0.0299 -0.1900  0.0210
13252W        W29436  12.587  10.841   5.618 -0.0677 -0.0075 -0.2565
13253W        W29437   2.596   5.447   2.652 -0.0446  0.2300 -0.0112
13254W        W29438  11.770  16.230   2.431 -0.1940 -0.3098  0.2101
13255W        W29439   9.158   1.664  16.322  0.2299  0.0430  0.1692
13256W        W29440   8.363   7.515   5.402  0.3100  0.2349  0.0442
13257W        W29441   7.783   5.770   3.324  0.0290 -0.0713  0.2337
13258W        W29442   8.068  12.857  11.357 -0.3178 -0.4119 -0.0648
13259W        W29443  14.823  12.033  13.532  0.0423  0.0903 -0.2441
13260W        W29444  14.720  14.396  13.823 -0.0765 -0.0757 -0.1404
13261W        W29445   3.046   1.767   5.379  0.3785  0.0028 -0.1478
13262W        W29446   4.539   7.959  14.112 -0.0486 -0.0832 -0.3061
13263W        W29447   8.306   8.205   1.111  0.0533  0.1165  0.0538
13264W        W29448   3.107  15.869   1.227 -0.1416 -0.3215 -0.1818
13265W        W29449   0.725  17.423  13.987  0.3375 -0.1109  0.2145
13266W        W29450  13.787   8.691   2.592 -0.1195  0.2160 -0.0487
13267W        W29451   3.131   1.961  15.702  0.1563 -0.0042 -0.0518
13268W        W29452   1.849  15.485   1.548  0.0572  0.2259 -0.1896
13269W        W29453   5.995  13.886  14.636  0.1016 -0.3228  0.1655
13270W        W29454  11.523   9.813  12.198 -0.0089  0.1579 -0.2525
13271W        W29455   2.877   5.430  13.550  0.3400 -0.3514  0.0151
13272W        W29456   3.488   6.986  13.732  0.3296  0.0650  0.0035
13273W        W29457  16.975   2.993   1.983  0.1313 -0.0861 -0.3330
13274W        W29458   0.856  16.547   3.890  0.2556 -0.1268 -0.1919
13275W        W29459  17.559  11.581   4.541 -0.2333 -0.0828 -0.0109
13276W        W29460  14.255   4.858   0.617 -0.0703  0.2943 -0.4102
13277W        W29461   3.010   2.088  12.932 -0.0896 -0.0607 -0.1810
13278W        W29462   9.792   1.851  12.831  0.1299  0.1692 -0.0340
13279W        W29463  17.603  11.400   3.747 -0.1774 -0.0108  0.0036
13280W        W29464  14.344   9.918  16.074  0.0927 -0.0616 -0.2806
13281W        W29465   8.603  13.095   0.651  0.1950 -0.2094 -0.1315
13282W        W29466   0.916  12.870   1.704  0.1019  0.3527 -0.0753
13283W        W29467  14.181   8.016  14.224 -0.0331  0.1062 -0.2183
13284W        W29468  12.903   6.519   4.775  0.0625  0.3069  0.3920
13285W        W29469   9.510   4.261  14.150 -0.0825  0.0752  0.1841
13286W        W29470  14.795   6.537   0.807  0.2101 -0.0771 -0.2154
13287W        W29471   0.067   5.821  15.709 -0.1623  0.0526  0.0586
13288W        W29472  16.379   6.582  12.324  0.0088  0.2229 -0.1050
13289W        W29473  17.059  13.726  12.266 -0.0889 -0.0246 -0.0161
13290W        W29474   5.653   9.345  16.343 -0.1635  0.0360  0.2055
13291W        W29475   5.230  17.323  15.743  0.0078  0.2118  0.0447
13292W        W29476   7.126   8.321   2.354  0.2085  0.0032  0.1953
13293W        W29477   1.234   2.435  15.404 -0.0968 -0.1395 -0.1318
13294W        W29478   6.514   8.396   3.640 -0.0226  0.1224 -0.1736
13295W        W29479  11.682  15.702  12.759 -0.1291 -0.0426 -0.0303
13296W        W29480  10.420   7.723   1.650  0.2369 -0.0305  0.0134
13297W        W29481   6.394  16.139   4.291  0.0725 -0.0149  0.2699
13298W        W29482   2.765   4.524   0.328  0.1411  0.1471  0.2062
13299W        W29483   0.812  15.102   1.785  0.1138 -0.0000  0.1542
13300W        W29484   5.721  12.376   4.917  0.0804  0.2933  0.3960
13301W        W29485  13.305   7.500  12.549  0.0284  0.0470  0.0553
13302W        W29486  16.563  11.172  15.135  0.0109  0.1258  0.1930
13303W        W29487   0.659  10.353  14.111 -0.2039 -0.1156  0.1449
13304W        W29488  15.188   6.793   3.556 -0.2650 -0.1083  0.3704
13305W        W29489   4.262  10.605  16.885 -0.0278  0.3884 -0.1305
13306W        W29490   1.097  15.705   0.966  0.0149 -0.1154 -0.0429
13307W        W29491  11.893  14.778   4.723  0.3978  0.0539  0.0739
13308W        W29492   0.365   5.273   0.253  0.0477 -0.1948  0.1479
13309W        W29493  14.865   8.489   3.443  0.1375  0.2187 -0.2379
13310W        W29494   7.685  17.587  14.395 -0.2639 -0.0553  0.2166
13311W        W29495   1.435   9.387  14.021  0.0263 -0.2311  0.0033
13312W        W29496  14.188  15.660  15.740 -0.0995  0.0691 -0.1199
13313W        W29497   8.126   2.973   2.942 -0.0722 -0.1053  0.0537
13314W        W29498  14.693   3.411  11.948  0.0275  0.0561 -0.0850
13315W        W29499  10.355  17.004   1.221 -0.1538  0.0876  0.3089
13316W        W29500  16.318   4.729  15.689  0.1044 -0.1312  0.4874
13317W        W29501   6.828   7.746  12.265  0.3544  0.0885  0.0428
13318W        W29502   8.664   6.186  16.900  0.0589  0.0454  0.0008
13319W        W29503   9.751  16.614  16.502 -0.0451  0.0904 -0.1051
13320W        W29504  14.381   6.756   1.687 -0.1512  0.1612  0.2110
13321W        W29505  16.806   4.671   5.160  0.0652 -0.0661  0.1623
13322W        W29506  11.109   7.251  13.057 -0.0276 -0.0593  0.2306
13323W        W29507   4.795  16.154  13.781  0.2248  0.3014  0.0200
13324W        W29508  10.891   6.730   0.999 -0.1213  0.0625 -0.3114
13325W        W29509  16.512   7.099   6.027 -0.1582 -0.1417 -0.0465
13326W        W29510   7.945   4.313   6.104 -0.2709 -0.1394  0.0487
13327W        W29511   7.170  11.443  12.693 -0.0633 -0.2268 -0.0404
13328W        W29512   7.858   6.776   4.661 -0.2817 -0.0168 -0.0593
13329W        W29513   0.659  16.386   3.368 -0.1018 -0.2325  0.3604
13330W        W29514  10.342   4.191  14.224  0.0133 -0.0279  0.1493
13331W        W29515  16.235   4.009  14.088 -0.0890 -0.1684 -0.1997
13332W        W29516   5.945  17.068   2.979 -0.2308  0.2031  0.4675
13333W        W29517   8.155   5.397   3.284  0.2454 -0.1358 -0.1979
13334W        W29518   3.068  15.659   3.135  0.2187  0.0779 -0.1117
13335W        W29519   6.288  10.218  13.313 -0.4633  0.1046 -0.1566
13336W        W29520   1.731   2.525   1.175  0.1457 -0.4206 -0.1069
13337W        W29521  13.663  17.637   1.135 -0.4687  0.1442  0.1679
13338W        W29522  15.147   4.867   1.244 -0.0907 -0.4662 -0.0841
13339W        W29523   3.804   2.798  15.782 -0.0279 -0.1414 -0.1240
13340W        W29524  16.601  16.697  15.974 -0.3119  0.0538 -0.0960
13341W        W29525  10.479   8.940  13.905  0.1678 -0.1473 -0.1064
13342W        W29526  13.170   9.204  14.805 -0.0260  0.1340  0.0353
13343W        W29527   4.474  14.632  16.106 -0.0497  0.0376  0.2150
13344W        W29528  16.872  15.838  11.508  0.2314  0.2375  0.3622
13345W        W29529   2.664  13.580  14.000  0.2004  0.2677 -0.2935
13346W        W29530   2.116   4.087  12.026 -0.5522 -0.0368 -0.2353
13347W        W29531  16.541   7.936  14.027  0.0880  0.0165 -0.2444
13348W        W29532   2.595  17.092   1.025  0.1564 -0.1452  0.1412
13349W        W29533   0.277   0.259   1.054 -0.1015  0.2537  0.0445
13350W        W29534   1.895   4.209  12.980  0.0111  0.3037  0.3198
13351W        W29535  15.168  15.236   3.720 -0.0342 -0.0156  0.0764
13352W        W29536  14.373   3.998   3.517  0.4251  0.2918  0.1323
13353W        W29537  15.239   2.030   4.647 -0.1855 -0.0523  0.1158
13354W        W29538  15.697   4.859  13.309  0.1486 -0.1708 -0.2050
13355W        W29539   7.786  12.865   0.526 -0.1069 -0.0436 -0.0428
13356W        W29540   0.916   9.425  13.846  0.1389 -0.2643 -0.0136
13357W        W29541  11.039   4.861   6.082 -0.1561  0.1490  0.1509
13358W        W29542   5.951   2.521  15.664  0.4637 -0.1010 -0.0445
13359W        W29543   2.858   2.193  14.885 -0.1105 -0.1114 -0.1899
13360W        W29544   0.539   8.485   0.359  0.2759 -0.1409 -0.2345
13361W        W29545  15.126   4.089  14.510  0.0709 -0.2812 -0.3856
13362W        W29546  16.541   7.515   1.387 -0.1090 -0.0084  0.0508
13363W        W29547  12.332   0.326   1.847  0.2258  0.0752  0.1702
13364W        W29548  12.748  16.613   2.471 -0.0149 -0.0323 -0.1333
13365W        W29549  12.261   6.601   5.430  0.2904  0.1821 -0.1251
13366W        W29550   6.320  11.478   1.355  0.2078 -0.1736 -0.0427
13367W        W29551  12.534   8.538   0.095  0.1845 -0.1454 -0.1144
13368W        W29552   3.291  14.914   6.171  0.0987  0.0372  0.1118
13369W        W29553  14.497   1.982   2.587  0.0764  0.1815 -0.1000
13370W        W29554  10.642   0.794   0.759 -0.2192 -0.2666 -0.0683
13371W        W29555  16.225   9.100   1.597  0.2236  0.1320  0.1163
13372W        W29556  10.699  12.900   3.329 -0.1562 -0.0386  0.0786
13373W        W29557   9.984   0.579   2.462  0.0580 -0.1806  0.1847
13374W        W29558   8.957  17.552   5.918  0.0111  0.0760  0.0476
13375W        W29559  11.379   1.431   2.966 -0.3399 -0.2021  0.1849
13376W        W29560   9.472  10.007   3.886 -0.0756 -0.0392 -0.1605
13377W        W29561   3.581   1.647  11.766  0.0170  0.1079  0.0033
13378W        W29562   2.151   4.860   1.365 -0.2990 -0.0301  0.4170
13379W        W29563   2.581  16.702   0.571  0.1066  0.0970  0.0032
13380W        W29564   3.052   7.903   2.016  0.1945  0.1775 -0.2372
13381W        W29565  16.372   3.498  13.309 -0.1525  0.0174 -0.0747
13382W        W29566   6.926   2.728  13.125  0.3882 -0.1205 -0.1407
13383W        W29567   4.214   3.674  13.515 -0.2289  0.0132 -0.0698
13384W        W29568  15.320  15.548  13.423  0.1349 -0.1297  0.1083
13385W        W29569  13.754  16.603  15.754 -0.2732  0.1882  0.1669
13386W        W29570   8.637  10.804   0.938  0.2398 -0.0363  0.4152
13387W        W29571  10.395  16.231   4.684  0.1706  0.2405  0.2777
13388W        W29572  12.879  13.494   2.005 -0.0379 -0.0187  0.0749
13389W        W29573   8.415   2.840   4.337 -0.3183  0.2741  0.1586
13390W        W29574   2.150  12.226  14.116  0.0306  0.0883  0.2415
13391W        W29575  16.252  11.703  16.386  0.2504 -0.1260 -0.2723
13392W        W29576   4.298   4.335  16.678  0.0778  0.0376 -0.0328
13393W        W29577   5.517   0.261   1.744  0.2228  0.0097  0.2519
13394W        W29578  11.176   4.337  14.454 -0.2384 -0.0198  0.2050
13395W        W29579  14.451   2.511   5.365  0.1254 -0.1118  0.0864
13396W        W29580   1.316  14.330   2.271  0.1832 -0.1938  0.2015
13397W        W29581   5.496   1.518  16.884 -0.0866  0.3006  0.1083
13398W        W29582   6.406  10.189   3.825 -0.2273  0.0572 -0.2997
13399W        W29583   7.884  12.426  14.063  0.0348  0.2952 -0.1356
13400W        W29584  12.902  17.872  16.394  0.0700 -0.2248  0.3711
13401W        W29585   4.889   1.375   4.126 -0.1993 -0.0874  0.2077
13402W        W29586   2.094  10.986   4.933  0.0878 -0.0323  0.0043
13403W        W29587  12.970   7.217  16.384  0.0991 -0.0848 -0.3323
13404W        W29588   5.351   8.744  16.424  0.1004  0.0231  0.2263
13405W        W29589  17.327  16.766   2.791  0.0951  0.0735 -0.1097
13406W        W29590  11.670  17.629   0.459  0.0984 -0.0239 -0.0870
13407W        W29591  10.495  13.908   1.606  0.0373  0.1159 -0.1827
13408W        W29592   8.054   6.122  12.929  0.2320  0.0315 -0.1766
13409W        W29593   8.628  16.676  15.101 -0.1506 -0.1572 -0.1419
13410W        W29594   4.174  16.752   3.638  0.0726  0.2073 -0.0982
13411W        W29595  15.002  10.969   5.744 -0.1078  0.1356  0.2484
13412W        W29596   0.158   5.210   2.891  0.2337 -0.2270 -0.3958
13413W        W29597   7.593   9.247   4.300 -0.0340  0.0198  0.6357
13414W        W29598   9.452  10.446  16.386 -0.2428  0.1388  0.0610
13415W        W29599  11.425   3.189  15.966  0.1932  0.0430 -0.1208
13416W        W29600   2.839   1.453  12.506 -0.1149 -0.2240  0.0019
13417W        W29601  10.040   2.926  14.108 -0.1028  0.0096 -0.0340
13418W        W29602  11.777   4.384  15.447  0.1914 -0.1708 -0.2390
13419W        W29603  14.309  15.842   1.467  0.1685 -0.2837 -0.1348
13420W        W29604   9.773   3.646  14.718 -0.0948  0.0060 -0.0724
13421W        W29605   1.275   8.295   0.466 -0.1987  0.1495 -0.0164
13422W        W29606   3.933  10.325  15.053  0.1132 -0.2735  0.0465
13423W        W29607   2.120   4.448   0.067  0.1210 -0.1258  0.0836
13424W        W29608  14.363   0.888   2.859  0.0066  0.1175  0.0033
13425W        W29609  17.728  17.807  16.717 -0.1111  0.1242 -0.1451
13426W        W29610   7.014  10.547  13.612  0.3329 -0.0014  0.3810
13427W        W29611   3.209   8.640  13.844  0.0893  0.3430  0.0828
13428W        W29612  16.367  10.007   3.923 -0.1156 -0.4252 -0.1085
13429W        W29613   2.877  12.085  16.129 -0.0127  0.1176 -0.1746
13430W        W29614  10.629   1.264  15.949  0.0811 -0.0544 -0.1736
13431W        W29615   6.971  10.379   0.407 -0.1340 -0.0916 -0.2010
13432W        W29616   6.587  17.347   5.579  0.0940  0.1547 -0.2645
13433W        W29617  16.785  16.298  12.915  0.2526 -0.0025  0.2924
13434W        W29618   0.786   0.407  12.302 -0.0503  0.2913  0.1233
13435W        W29619  15.523  12.508   1.227  0.2290 -0.1978 -0.1623
13436W        W29620   2.241  12.109   3.514  0.1085 -0.1321 -0.0314
13437W        W29621   3.377   3.671   1.421 -0.2047  0.1500 -0.0396
13438W        W29622  16.161  17.495  15.873  0.1000 -0.1102  0.0567
13439W        W29623   6.665  13.650  13.845 -0.1461 -0.1595  0.1300
13440W        W29624  10.601   5.966  12.283  0.0757 -0.1199 -0.0579
13441W        W29625   7.703   7.641  16.662 -0.0528  0.0203 -0.1366
13442W        W29626   5.899   1.980   2.907 -0.0417 -0.1255  0.0195
13443W        W29627   4.345  10.471   2.099 -0.0397 -0.0387  0.0052
13444W        W29628  10.070  17.442  11.189  0.2415  0.2784  0.0372
13445W        W29629  12.303   6.707  13.470 -0.1807  0.0131 -0.3292
13446W        W29630   1.919   4.395  12.474 -0.0434  0.3962 -0.1974
13447W        W29631  12.164   5.015   1.690 -0.0803 -0.0426 -0.1465
13448W        W29632  16.277   9.798   2.866  0.2938  0.0322 -0.1007
13449W        W29633  11.277  13.194  11.914 -0.0823  0.1318  0.2159
13450W        W29634  10.540   8.184   1.997  0.2249  0.1757  0.0835
13451W        W29635   2.981  16.929   2.952 -0.0403 -0.2858  0.1647
13452W        W29636  15.226  15.196   4.787  0.1015 -0.1160  0.2635
13453W        W29637   5.098  17.222  14.503 -0.1528 -0.1066 -0.6064
13454W        W29638  14.172  14.510   1.809 -0.1080  0.1536  0.1210
13455W        W29639  10.659   9.448   2.430  0.1672  0.1573  0.2114
13456W        W29640  10.273   4.943  15.047 -0.2597  0.1246 -0.2197
13457W        W29641  12.902   3.311   5.286  0.1801 -0.2944 -0.2136
13458W        W29642  14.002  17.561  12.508 -0.0830  0.1661  0.2315
13459W        W29643  10.033   1.500  14.256  0.1980  0.4177 -0.1178
13460W        W29644  14.583   5.074   3.764 -0.0138  0.0647  0.1476
13461W        W29645   1.195   2.908  15.221  0.0948 -0.0893 -0.0438
13462W        W29646   7.317  12.044  13.367  0.0845 -0.0840 -0.2265
13463W        W29647  14.446  15.243  13.322 -0.2620  0.2431  0.0634
13464W        W29648   7.475  14.345  12.487 -0.3614  0.0886  0.2093
13465W        W29649   3.706  16.296   5.804  0.1095  0.3280 -0.1156
13466W        W29650  11.300   3.312  15.459 -0.1320 -0.0152 -0.2911
13467W        W29651   4.708   5.722  11.145  0.2583 -0.1158  0.1351
13468W        W29652   7.513   2.460   4.272  0.0692  0.0060  0.2563
13469W        W29653   7.800   7.615   0.724  0.0233  0.0236  0.1899
13470W        W29654   6.084   3.907   0.389  0.2640 -0.2897  0.0138
13471W        W29655   1.931   1.675   3.661  0.0607  0.0087  0.1584
13472W        W29656  11.719   1.402  13.041  0.1853  0.0613 -0.1456
13473W        W29657  11.897   8.930  16.175  0.0574 -0.2783 -0.0445
13474W        W29658   1.868  10.511   0.834  0.1273  0.0619  0.2731
13475W        W29659   6.811   2.762   3.210  0.1306 -0.0942 -0.2087
13476W        W29660   0.701  13.149  13.493  0.0324  0.2585  0.1786
13477W        W29661  17.668  10.395  12.067 -0.0076  0.1581 -0.0613
13478W        W29662  11.149   9.582   6.094 -0.0902 -0.0295 -0.3505
13479W        W29663  16.195  15.055  14.379 -0.0065 -0.2493  0.0118
13480W        W29664  12.656   6.529  15.924 -0.0174 -0.0884 -0.3762
13481W        W29665  11.214  10.181   3.274 -0.1303 -0.1663 -0.1149
13482W        W29666   3.234  12.680   2.110  0.1227 -0.0393 -0.1611
13483W        W29667   3.923  16.174  15.812  0.0149  0.0826  0.1448
13484W        W29668  14.148  12.880  13.865 -0.0095  0.1340 -0.0070
13485W        W29669   7.101  11.520   1.644  0.3113 -0.0701  0.3606
13486W        W29670   3.093  13.563   1.297  0.2073  0.0239  0.1047
13487W        W29671   4.816  16.428  14.881 -0.0064  0.4795  0.0575
13488W        W29672  12.546   6.152  14.278 -0.0908 -0.1062 -0.1684
13489W        W29673   7.692  11.957   4.564  0.1103  0.0092  0.0194
13490W        W29674   7.298   6.743  12.687  0.0681 -0.2243 -0.0019
13491W        W29675  14.840  16.114   2.986 -0.0154  0.1059  0.3572
13492W        W29676  15.935  11.343   1.913  0.0591  0.1839 -0.1206
13493W        W29677  17.518   4.169   4.478 -0.0295  0.1592  0.3358
13494W        W29678   7.311   5.685   0.225 -0.2736  0.2492  0.1924
13495W        W29679   6.587  10.150  12.816 -0.0463  0.0527 -0.0893
13496W        W29680   7.149  11.971  12.916  0.2392  0.0782  0.2586
13497W        W29681  10.798   0.779  16.824 -0.1786  0.3640  0.0358
13498W        W29682  11.341  17.567   3.041 -0.0574  0.1290  0.0944
13499W        W29683   2.235   3.531   5.662 -0.3139 -0.2418  0.0581
13500W        W29684   1.325   0.333   2.245 -0.0412  0.0206  0.0956
13501W        W29685  15.188   0.380   4.150 -0.1843 -0.0106  0.1120
13502W        W29686  17.438   5.035  15.326  0.2276 -0.2920  0.0182
13503W        W29687   7.369   0.942  14.898  0.2691 -0.0294 -0.0581
13504W        W29688  13.248   6.118  15.486  0.0721 -0.0097 -0.3002
13505W        W29689   8.828   2.932   3.650 -0.1749  0.1515 -0.1028
13506W        W29690  13.503   9.451   0.097  0.0445  0.0845  0.0223
13507W        W29691  12.834  15.357   0.601 -0.1888  0.2083 -0.0087
13508W        W29692  13.481  14.415  14.426  0.0895  0.1033 -0.3707
13509W        W29693   1.618   2.024   6.352 -0.1126  0.1294  0.1273
13510W        W29694   5.004   3.160  13.955  0.1307 -0.3186 -0.0085
13511W        W29695  17.020  16.675   5.068 -0.2258  0.0287 -0.1494
13512W        W29696   7.130  15.996  13.253 -0.1091  0.0386  0.2193
13513W        W29697   5.525   3.142   4.788 -0.0471  0.0618 -0.3432
13514W        W29698  15.407   2.978   3.006 -0.0544  0.2134 -0.1382
13515W        W29699  14.150  13.985  14.506 -0.0317  0.0504  0.0455
13516W        W29700  16.623  10.684  11.841  0.0195 -0.0240  0.2118
13517W        W29701  10.109   1.568   3.268 -0.2104 -0.0026 -0.3392
13518W        W29702  15.659   1.822   4.442  0.3294  0.2295  0.2073
13519W        W29703   4.940   5.554   3.398 -0.0282 -0.1258  0.0760
13520W        W29704  11.105  15.100  15.697  0.0740 -0.1014  0.4912
13521W        W29705  16.734   3.717  11.771  0.0826  0.3531 -0.0814
13522W        W29706   3.446  16.536   3.746  0.4992 -0.1818 -0.0922
13523W        W29707   4.373  14.340   9.823 -0.0696  0.0751  0.0668
13524W        W29708  17.282   2.666  14.512  0.0109  0.1449  0.4051
13525W        W29709   9.881  10.768   1.241 -0.0708 -0.0077  0.2461
13526W        W29710  11.300   7.079  16.188 -0.0244  0.0909 -0.0550
13527W        W29711   8.772   7.586   1.780  0.0863 -0.0995 -0.0512
13528W        W29712   4.886   4.634  14.113 -0.1200  0.0394 -0.1041
13529W        W29713  10.321   0.245   4.335  0.0244  0.0740 -0.5193
13530W        W29714  15.650  14.603  13.122 -0.1387 -0.0222 -0.0214
13531W        W29715  14.883   7.860  15.345 -0.2550 -0.1585 -0.0980
13532W        W29716  13.072  11.929   5.197 -0.2817  0.0389 -0.0450
13533W        W29717   9.312  14.374  11.590 -0.1106 -0.0825  0.3060
13534W        W29718  15.790   7.581   1.504 -0.2978 -0.2745  0.0330
13535W        W29719  13.737   9.349   3.457  0.2936  0.3975  0.2020
13536W        W29720   1.883  11.053   3.326  0.3090  0.3158  0.0072
13537W        W29721  13.551   4.560   1.724 -0.0266  0.1179  0.1342
13538W        W29722  15.196  15.263   5.654 -0.0778 -0.1680  0.2523
13539W        W29723  13.250   3.509   4.461 -0.1769  0.1917 -0.0643
13540W        W29724   1.259  13.761  12.487  0.2070  0.0853 -0.0707
13541W        W29725  14.872  15.647  15.654 -0.0968  0.1314  0.2851
13542W        W29726   3.889   4.240   1.317 -0.0883  0.1477 -0.0190
13543W        W29727   0.998   9.224  12.055  0.0362 -0.1752  0.0367
13544W        W29728  11.737  14.367  14.155 -0.2080  0.0620 -0.0392
13545W        W29729   2.836   7.276  15.315  0.0550 -0.1294  0.1380
13546W        W29730   2.884   2.297  13.862 -0.0896  0.0409  0.0580
13547W        W29731   1.818   4.054  14.960  0.2305 -0.0775 -0.1041
13548W        W29732   8.559   2.524  12.952  0.1318  0.2445 -0.0326
13549W        W29733   5.934   8.370  15.125  0.0366  0.3006  0.1025
13550W        W29734   1.928   9.592   0.550  0.0763 -0.0924  0.1861
13551W        W29735   3.999   9.018  11.930  0.1867  0.1925 -0.0834
13552W        W29736   5.534  16.691   3.022 -0.0548 -0.2227  0.3768
13553W        W29737   9.740  15.631  15.856  0.1280 -0.0131  0.2168
13554W        W29738   5.128  16.200  16.516 -0.1071 -0.1129  0.1069
13555W        W29739  12.379   3.392  16.558 -0.0243 -0.2075  0.0304
13556W        W29740  14.864  10.984  15.131 -0.1061  0.2310  0.1520
13557W        W29741   3.300  10.521   5.027 -0.1660  0.0207  0.1657
13558W        W29742   6.167   0.129   2.627 -0.1750 -0.0851  0.1030
13559W        W29743  12.878   2.843   1.701 -0.0164  0.2958  0.1160
13560W        W29744   3.359  10.055   1.306 -0.0456 -0.3404 -0.1167
13561W        W29745   4.099  10.224   3.590  0.1181 -0.0074 -0.0892
13562W        W29746   8.877   3.414   0.791  0.5745 -0.3168  0.1375
13563W        W29747  16.186   9.344   5.391  0.1526  0.2540 -0.0735
13564W        W29748  12.582  16.537   0.154  0.3042 -0.4164 -0.0307
13565W        W29749  15.674   2.301   4.825  0.0127 -0.1979 -0.2330
13566W        W29750   4.519   9.463  12.982 -0.1274 -0.0598 -0.1849
13567W        W29751   9.379   0.035  13.692 -0.0677  0.3772  0.2582
13568W        W29752  13.268  17.847   4.613  0.3980  0.0889 -0.2510
13569W        W29753  16.417   2.841   4.716  0.0180  0.0951 -0.0107
13570W        W29754  14.941   4.063   3.586  0.0069 -0.0824 -0.0674
13571W        W29755   3.158  16.033  16.470 -0.3154 -0.0918  0.4767
13572W        W29756   8.058   2.829   1.223  0.0736  0.1289 -0.2271
13573W        W29757  17.068   6.890  16.712  0.0370 -0.0656 -0.0033
13574W        W29758  15.946   4.410   1.306  0.1877 -0.2174  0.1998
13575W        W29759  16.017   6.884   2.914  0.0423 -0.1417  0.4135
13576W        W29760   9.628   7.518   2.225 -0.0098  0.0885  0.3327
13577W        W29761   2.214   2.945   4.572 -0.0110 -0.1597 -0.1936
13578W        W29762  14.249   8.381  12.956 -0.2162  0.0566  0.1267
13579W        W29763   9.247   3.389   2.750 -0.0090 -0.1535 -0.0891
13580W        W29764  12.570  14.674   3.511  0.2510  0.3122 -0.0760
13581W        W29765   4.835  11.332  13.560 -0.1500 -0.2022 -0.3411
13582W        W29766   3.791   1.787   3.088 -0.1926  0.0816 -0.0164
13583W        W29767  16.115   5.359   1.354  0.0020 -0.0169  0.1070
13584W        W29768   7.580   6.548  15.678  0.1356  0.1580 -0.3484
13585W        W29769  14.532   3.616  13.409  0.1037 -0.0651  0.2356
13586W        W29770   9.190   0.185  14.487  0.0259  0.0027  0.2189
13587W        W29771  17.502  16.903   3.305 -0.0168  0.2701 -0.0661
13588W        W29772  12.837   9.185   2.305  0.0238 -0.0015  0.0209
13589W        W29773   0.850   9.910  14.970 -0.0681 -0.0232 -0.1798
13590W        W29774  17.070  13.759   0.424  0.0818 -0.3521 -0.1183
13591W        W29775   4.804  14.621   1.540  0.1042 -0.0632  0.1859
13592W        W29776  17.326   3.526  12.675 -0.1483 -0.2106  0.1090
13593W        W29777   5.098   4.673   0.783 -0.1162 -0.1211 -0.3175
13594W        W29778  15.659  11.451  12.631  0.1768  0.0667  0.1263
13595W        W29779   1.662  12.407  12.991  0.1695  0.2074  0.0911
13596W        W29780   2.023   0.578  11.349  0.1082 -0.1201  0.2451
13597W        W29781  14.662  14.630   5.167 -0.0479 -0.1516 -0.0886
13598W        W29782  11.729   8.339   3.379 -0.0557 -0.2796  0.3103
13599W        W29783  14.983  14.742   4.789 -0.0691  0.0185 -0.1063
13600W        W29784   3.116   7.191   1.663 -0.0945 -0.0272  0.3447
13601W        W29785  16.792  14.969  14.466  0.1598  0.2817  0.1424
13602W        W29786   4.881   0.733  15.280  0.0658  0.0083 -0.1988
13603W        W29787   5.292  12.260   4.133  0.1046 -0.0878 -0.1903
13604W        W29788  16.528   8.887  11.712 -0.3440 -0.0363 -0.0565
13605W        W29789   6.660   1.956  15.738  0.0764  0.1167  0.3538
13606W        W29790   1.385   6.230   0.413  0.1045  0.1197 -0.0132
13607W        W29791  15.339   2.173  15.275  0.2104  0.0345  0.0603
13608W        W29792   7.584   0.546  15.876  0.2904  0.2005 -0.1211
13609W        W29793   3.626   6.394  14.562  0.0516  0.0263  0.1557
13610W        W29794   6.293  17.478   0.318 -0.0871  0.1726 -0.1896
13611W        W29795   7.309   0.664   0.211  0.0518  0.2036  0.0918
13612W        W29796  10.690   7.013  15.421  0.1011 -0.0871 -0.3643
13613W        W29797   6.145  10.125  14.262 -0.1378  0.1342  0.0196
13614W        W29798  13.750   8.737  14.167 -0.0455 -0.0192 -0.0570
13615W        W29799  13.213  12.992  13.123 -0.0499 -0.0438 -0.2094
13616W        W29800   1.853   6.197   0.363  0.1244  0.1932 -0.0249
13617W        W29801   8.128  10.944  14.014  0.1420 -0.1647 -0.0003
13618W        W29802  15.544   5.520   2.176 -0.1772  0.0844  0.2047
13619W        W29803  14.464  12.468   2.027 -0.1044  0.0068 -0.2792
13620W        W29804  11.793   6.446   3.298  0.1510 -0.1521  0.0421
13621W        W29805   5.237   3.358   3.792 -0.2592 -0.0206  0.0243
13622W        W29806  16.730   7.906   4.340  0.0264  0.0048 -0.0367
13623W        W29807   6.759   5.393   2.407  0.0218  0.0735  0.0557
13624W        W29808  12.072  11.730  12.074  0.2779 -0.0145 -0.2006
13625W        W29809   9.264   1.316   5.678 -0.0848  0.0756 -0.0948
13626W        W29810   1.542   2.919  15.677  0.0239 -0.1526 -0.0977
13627W        W29811  14.978   1.678   5.047 -0.3231 -0.0718 -0.0104
13628W        W29812   1.594  17.030  15.008 -0.0035  0.1324  0.2966
13629W        W29813   4.978   6.929   2.666  0.1178 -0.0975 -0.0051
13630W        W29814  16.710  13.255  14.035  0.2484  0.0336 -0.2862
13631W        W29815  17.703   1.571   4.566  0.0000  0.3851  0.2052
13632W        W29816   5.218  11.051   3.957  0.0705  0.0060 -0.1760
13633W        W29817  13.478   0.626  14.948 -0.0375 -0.1820  0.0919
13634W        W29818  12.123   9.204   5.884 -0.2149  0.1705  0.4467
13635W        W29819   5.055  10.541   3.907 -0.0239 -0.0864 -0.2484
13636W        W29820  11.929   6.380  16.247  0.4022 -0.2865  0.1242
13637W        W29821  15.230  11.926   5.394  0.0670 -0.0446 -0.0381
13638W        W29822   2.721   5.032   0.391  0.1871 -0.4479  0.0610
13639W        W29823   5.431  13.926   2.155  0.1090  0.1632 -0.0974
13640W        W29824   8.973   3.207  16.283 -0.2201 -0.2747  0.3218
13641W        W29825  12.366   4.505   5.456 -0.1788 -0.4176 -0.1721
13642W        W29826   3.117  15.951   3.829 -0.2531 -0.0954  0.1004
13643W        W29827   3.148   6.400  13.121  0.1271 -0.2302  0.0631
13644W        W29828   9.929   2.160  14.338 -0.0174  0.1411  0.1299
13645W        W29829  14.451  15.294  16.766 -0.0646  0.1462 -0.0215
13646W        W29830   1.554   3.112   3.049  0.0725  0.0714  0.2497
13647W        W29831   1.248   2.993  14.256 -0.0539  0.2639  0.1815
13648W        W29832   3.331  10.393   1.724 -0.0019 -0.2158  0.1482
13649W        W29833   1.251   7.832   3.778  0.0680 -0.2491 -0.1359
13650W        W29834   7.367  11.023   1.051 -0.0561  0.1296  0.2419
13651W        W29835   9.527   2.685  12.346 -0.1891  0.2820 -0.0800
13652W        W29836   6.766   9.856   1.859 -0.2643 -0.3120  0.1531
13653W        W29837   0.264  11.071  12.631 -0.0199 -0.1004 -0.0455
13654W        W29838  16.818  17.501  15.153 -0.2038  0.2429 -0.1973
13655W        W29839  13.269   4.586  11.125 -0.3365 -0.0526 -0.1035
13656W        W29840   2.773  11.559   5.171  0.0478 -0.0697  0.1991
13657W        W29841   4.799  12.868  15.130 -0.2077  0.2390  0.2931
13658W        W29842   8.679   9.618  13.707 -0.0901  0.0765  0.1361
13659W        W29843   9.372   1.469   0.479 -0.1562 -0.1602 -0.0083
13660W        W29844  16.114  16.623   1.972  0.2064  0.1468 -0.0586
13661W        W29845   4.867  13.840  14.270  0.1726 -0.0427  0.1257
13662W        W29846  13.025  12.251  14.129 -0.2318  0.0033 -0.0056
13663W        W29847  14.138  13.595   3.824  0.1515 -0.0852  0.0183
13664W        W29848  17.343  11.238  14.545  0.0046  0.0104  0.1233
13665W        W29849  17.097   4.888   3.304 -0.1375 -0.1392  0.2133
13666W        W29850  14.266   7.583   3.444  0.1311  0.0145 -0.1809
13667W        W29851  14.538   3.704   1.898 -0.2774  0.3692 -0.5703
13668W        W29852  14.977   7.318  12.278 -0.0100 -0.1876  0.0993
13669W        W29853   7.075   6.432   5.189 -0.2473  0.3784 -0.2378
13670W        W29854   7.488   8.706  12.922  0.0186  0.0979  0.0823
13671W        W29855  11.495  10.986  13.219 -0.0979 -0.0151  0.1621
13672W        W29856  16.689   4.127   0.006  0.0362 -0.4542 -0.0555
13673W        W29857   0.104   1.566   0.499 -0.1192 -0.3735  0.0070
13674W        W29858   1.837  16.062  15.827 -0.1874 -0.0824  0.1367
13675W        W29859   3.041   5.876  13.299  0.0344 -0.0322 -0.3662
13676W        W29860  16.806  16.913   1.582 -0.0837 -0.0272 -0.4177
13677W        W29861   3.962   0.317   3.586  0.2755 -0.2383  0.0170
13678W        W29862  16.963   6.818  11.927  0.0585  0.0311  0.0648
13679W        W29863   2.631   8.425   2.660  0.0903  0.1025 -0.0791
13680W        W29864  17.012  17.010  13.565 -0.1721  0.1728 -0.0620
13681W        W29865  14.138  15.300   3.140  0.0280 -0.2140  0.0967
13682W        W29866  16.647  17.383   4.119 -0.2488 -0.3731 -0.1452
13683W        W29867   2.906   1.593  16.067  0.1222  0.1833  0.1317
13684W        W29868  17.393  14.464   0.889 -0.0009  0.0962 -0.1069
13685W        W29869  15.147  17.319   0.912 -0.1928  0.0676  0.0037
13686W        W29870  16.234   6.874   2.164  0.1840 -0.2854 -0.4780
13687W        W29871  17.367   3.011   2.526 -0.1785  0.1629 -0.1996
13688W        W29872  14.250   6.503   5.259  0.2096 -0.1316  0.2532
13689W        W29873  13.839   2.079   1.119  0.2038  0.0196  0.2535
13690W        W29874   5.197   7.076  12.632  0.1323 -0.1944  0.0231
13691W        W29875  14.218  12.040  15.341 -0.1096  0.0035  0.1495
13692W        W29876   6.259   8.812   4.654 -0.0367  0.0570  0.4345
13693W        W29877   5.356  15.238  13.475 -0.3616 -0.0305  0.0623
13694W        W29878  12.171  14.884  14.361 -0.1154  0.0337  0.1119
13695W        W29879  12.043   8.139   2.396  0.0298  0.0481 -0.3407
13696W        W29880   5.100  14.196   5.153 -0.1068  0.0939  0.0664
13697W        W29881  14.235   3.124   6.129  0.0213 -0.1225 -0.4169
13698W        W29882   7.360  12.499  13.574 -0.1369  0.1692  0.3783
13699W        W29883   2.789  13.626  10.423 -0.0794  0.0292 -0.3044
13700W        W29884   6.444  16.658   4.190  0.0392  0.0454 -0.0151
13701W        W29885  12.855  15.067  15.248  0.1298 -0.1523 -0.3183
13702W        W29886   7.654   5.251   3.396 -0.0964  0.0120 -0.0859
13703W        W29887  16.905   3.912   0.386  0.1019 -0.1126 -0.0790
13704W        W29888  13.972  12.132  14.260 -0.1567 -0.2946  0.0172
13705W        W29889   6.875   5.782   3.673  0.0445  0.4213 -0.2159
13706W        W29890  15.930  10.293  15.008 -0.0141  0.0805  0.0287
13707W        W29891  10.981  14.559   4.432 -0.0604  0.1603  0.1675
13708W        W29892   2.972  10.911   4.835  0.2094 -0.0683  0.2229
13709W        W29893  11.899   7.367   3.476  0.4904 -0.1628  0.0037
13710W        W29894  10.115  17.465   2.467 -0.1400 -0.1409 -0.0158
13711W        W29895   7.124   6.837  13.482 -0.1677 -0.2901  0.0447
13712W        W29896  16.874   6.936   3.638  0.1623  0.2797 -0.2049
13713W        W29897  13.013  10.303   2.923  0.2659  0.1071  0.1579
13714W        W29898   6.375   3.767   0.926  0.0282 -0.0798  0.0747
13715W        W29899   8.473  14.682  11.912  0.2989  0.0910  0.0642
13716W        W29900  13.634   5.059  11.680 -0.0222  0.1174  0.0602
13717W        W29901   9.030  12.327   2.116 -0.2685  0.0695 -0.0884
13718W        W29902   5.988  17.032  16.267  0.0383  0.0793  0.0901
13719W        W29903  16.751  15.879   3.326 -0.1157  0.2739 -0.0523
13720W        W29904   7.966   2.017  15.886  0.1400 -0.0018  0.1176
13721W        W29905  14.085   4.911   6.561 -0.0407 -0.0922  0.1383
13722W        W29906   7.546   2.359   0.638  0.2243  0.1035 -0.6748
13723W        W29907   8.474  10.625   2.919 -0.0429  0.1995 -0.2420
13724W        W29908  14.276  13.145  16.708 -0.4366  0.0045  0.2692
13725W        W29909   8.926   5.313   3.780 -0.3723  0.0450  0.1468
13726W        W29910  11.029  15.526   3.756  0.1445  0.0271  0.0331
13727W        W29911   7.750  16.684   4.861 -0.3769  0.0038  0.2630
13728W        W29912  11.454   1.096  15.385 -0.1554 -0.0154  0.3121
13729W        W29913  14.409   4.577  13.159 -0.3552  0.1494  0.0331
13730W        W29914   0.971  15.496  14.362 -0.2966  0.3340  0.0128
13731W        W29915  14.701   9.857   2.121 -0.1301 -0.2034 -0.0754
13732W        W29916  16.342   0.201   0.247 -0.2905 -0.2146 -0.0813
13733W        W29917   4.935   4.900   4.355 -0.3488  0.3052 -0.1916
13734W        W29918  17.089   1.415   5.183  0.3923 -0.0365  0.0417
13735W        W29919  16.330  15.903   5.182  0.2469  0.1996  0.0239
13736W        W29920   9.586  16.454  15.945  0.0479 -0.0217  0.0427
13737W        W29921   9.355   6.408   1.666  0.0785 -0.3253 -0.0994
13738W        W29922  13.164   0.968  14.825  0.0094  0.0222 -0.0734
13739W        W29923  17.853  15.516  11.695 -0.2305  0.0207  0.0064
13740W        W29924  14.938  15.987  12.599 -0.0797  0.4402 -0.0833
13741W        W29925  13.499   5.665   4.496  0.0718  0.0501 -0.1717
13742W        W29926   6.161   8.456   6.040  0.0828 -0.2420 -0.2632
13743W        W29927   1.710   8.111  12.773 -0.0214 -0.1860 -0.1124
13744W        W29928   0.538  13.848   0.894  0.1971 -0.0183 -0.2905
13745W        W29929   4.744   1.084   6.332  0.2585 -0.1680  0.2364
13746W        W29930  17.749   3.259   2.318  0.2306 -0.1622  0.2898
13747W        W29931   4.119   9.938  13.583  0.2994 -0.3776  0.2477
13748W        W29932   1.721  10.235   3.252  0.1274  0.1653  0.1299
13749W        W29933   4.144   5.092  14.644 -0.0075  0.0517 -0.0906
13750W        W29934  11.132  12.673  11.835  0.2478  0.1947 -0.0791
13751W        W29935   9.477   4.174  13.353  0.1325  0.2878  0.1007
13752W        W29936   2.548  14.749   5.107 -0.2853 -0.0247 -0.1985
13753W        W29937   0.101   2.975   4.065 -0.0851 -0.1704  0.0860
13754W        W29938  16.410  16.058  16.210 -0.1311 -0.1372 -0.2718
13755W        W29939  12.239   3.948  16.771  0.1670  0.1299  0.2147
13756W        W29940   5.000  13.312  14.912  0.0428 -0.0839  0.2468
13757W        W29941  10.743   2.227   5.001 -0.0199  0.3539  0.0767
13758W        W29942   4.313   3.123   4.677  0.3049  0.0612  0.4341
13759W        W29943   6.684  12.876   4.896  0.0228 -0.0302 -0.0527
13760W        W29944   4.602  16.632   5.301  0.0733 -0.2760 -0.0723
13761W        W29945  11.436   2.720  16.165 -0.1637  0.1020  0.1205
13762W        W29946   6.180  13.854  12.893  0.1128  0.1252 -0.0661
13763W        W29947   2.551  17.427   1.454 -0.1281  0.0895  0.0312
13764W        W29948   1.616  11.113   1.858  0.2562  0.1780  0.0618
13765W        W29949  17.752  12.538  15.623 -0.0673 -0.2116  0.2583
13766W        W29950   8.269   5.114  14.582 -0.1155  0.3467 -0.0323
13767W        W29951   7.413   6.528  16.623  0.1620 -0.0225 -0.3287
13768W        W29952   0.304   5.207   5.922 -0.0821  0.0819 -0.1952
13769W        W29953  14.903  11.781  16.911  0.1250 -0.2178 -0.0512
13770W        W29954  12.069  14.627  12.140  0.1494  0.0865 -0.0772
13771W        W29955   0.359   9.292   5.341 -0.1813  0.1342  0.0902
13772W        W29956  13.233   8.629   1.494 -0.1834 -0.1722 -0.1393
13773W        W29957   3.307   6.776  12.694 -0.3566  0.1530 -0.0891
13774W        W29958  16.041  15.391   2.180  0.0653 -0.1252 -0.2245
13775W        W29959   9.842  14.919   1.725  0.3834 -0.0652 -0.1445
13776W        W29960   5.455   3.427  15.235  0.1161 -0.0776 -0.0419
13777W        W29961  16.874  15.335   2.349  0.1829  0.2640  0.1295
13778W        W29962   9.220  17.779   1.309 -0.0917 -0.1988  0.2294
13779W        W29963   6.982   6.748   0.839  0.3456 -0.1660  0.2284
13780W        W29964  12.456   8.893   3.103 -0.1625 -0.0981  0.0909
13781W        W29965   8.668  10.551   5.026 -0.1907 -0.3109  0.1488
13782W        W29966   6.426  16.213  14.582 -0.1220  0.0379  0.0890
13783W        W29967  10.791  10.537   0.129 -0.2649  0.1106  0.1719
13784W        W29968  10.426   7.866  12.779 -0.1341  0.1153  0.2074
13785W        W29969   8.191   5.080  12.597  0.1623  0.0905  0.2716
13786W        W29970   8.454  11.166   4.819  0.2036 -0.1688  0.0260
13787W        W29971  12.927   5.420   3.046  0.0306  0.0714  0.1270
13788W        W29972   5.438   9.031   0.514  0.1215 -0.0366  0.0441
13789W        W29973   6.852   8.146  13.470 -0.3035 -0.3508 -0.0122
13790W        W29974  15.854  13.608   0.266 -0.2446 -0.0638 -0.1766
13791W        W29975   8.448  17.381  16.284 -0.0105  0.1425  0.0432
13792W        W29976   2.291   0.252  13.889  0.1345  0.1194 -0.1753
13793W        W29977  14.404  12.024  12.088 -0.1361 -0.2160 -0.6410
13794W        W29978   3.452  15.420  12.558 -0.0079 -0.1132  0.2611
13795W        W29979   2.061   3.144   5.235 -0.1012  0.2044  0.0449
13796W        W29980   7.278   1.157   3.940 -0.0916 -0.1628 -0.2566
13797W        W29981  14.011   1.432  15.528 -0.1355 -0.0779  0.0466
13798W        W29982  10.993   5.566   5.369 -0.3794 -0.4370 -0.0040
13799W        W29983   8.145  14.080   2.702  0.0681  0.3448 -0.0755
13800W        W29984  15.359  10.178   1.001 -0.1104 -0.2418 -0.0600
13801W        W29985   3.829   8.409   2.945 -0.2729 -0.2755  0.2993
13802W        W29986  17.858   6.237  16.446 -0.0847 -0.0874  0.1979
13803W        W29987   1.400   0.629   5.040  0.1371 -0.2546  0.0064
13804W        W29988  13.520   2.350  13.792  0.1168  0.3412  0.1645
13805W        W29989  11.578  12.760   2.561  0.2404  0.1689  0.0978
13806W        W29990  13.660   0.700   5.298 -0.2193 -0.2750 -0.0481
13807W        W29991  10.728  14.367   1.482 -0.0409 -0.3023  0.0414
13808W        W29992   2.627  13.411  10.814 -0.0622 -0.2031  0.2281
13809W        W29993   4.217  13.883   4.760 -0.0604 -0.0472  0.0517
13810W        W29994  13.815  15.085  15.639  0.3309  0.0859  0.1960
13811W        W29995  13.664   0.969  15.954  0.0261  0.0972 -0.2804
13812W        W29996   5.541   2.030  14.119 -0.0322 -0.0365  0.1946
13813W        W29997  10.150  14.477  16.684  0.2287  0.1381  0.3342
13814W        W29998   2.312   0.038   3.826  0.1245 -0.0693 -0.1841
13815W        W29999   0.260  13.216  13.705  0.3421 -0.0197  0.0620
13816W        W30000  15.441   8.195   1.580  0.1978  0.1044 -0.0557
13817W        W30001  14.379  10.804  12.597 -0.2629  0.1953  0.2898
13818W        W30002   4.123  16.129   1.281 -0.1494 -0.0181 -0.1630
13819W        W30003   6.351   3.405   5.404  0.0431  0.1206  0.0080
13820W        W30004   2.615   6.106  12.483  0.1304 -0.0802 -0.1078
13821W        W30005  10.142   8.184   2.908  0.2161 -0.0035 -0.2672
13822W        W30006   5.502   4.614  12.130 -0.1097 -0.2280  0.0868
13823W        W30007  12.520  14.636  12.728  0.2400  0.1567  0.0980
13824W        W30008  15.234  14.043   2.541  0.1196 -0.1711  0.2464
13825W        W30009  11.637   5.337   5.447 -0.1202  0.0356 -0.1849
13826W        W30010   1.342  16.684   3.828  0.1288  0.0291 -0.0212
13827W        W30011  12.151  10.004  11.968  0.1030 -0.0565  0.3788
13828W        W30012   0.388  17.267  12.097  0.0450 -0.1375 -0.0331
13829W        W30013   8.149   9.335   4.542  0.1070  0.2981 -0.0271
13830W        W30014   3.724  10.111   0.482  0.2223  0.0949  0.0050
13831W        W30015  17.724  13.643  11.451  0.1008  0.2321 -0.0048
13832W        W30016   3.320  11.343  15.062  0.0402 -0.1059 -0.3423
13833W        W30017  11.399   6.068   0.201  0.0914 -0.0721 -0.1186
13834W        W30018  17.497   2.510   3.328 -0.1948  0.0584 -0.2036
13835W        W30019  10.493   5.337  14.179  0.2830  0.0872 -0.0270
13836W        W30020   6.442  14.105  14.003 -0.1145  0.1127 -0.2152
13837W        W30021   3.893   4.157   0.821 -0.0637 -0.1698 -0.0681
13838W        W30022  12.484  16.726  11.750  0.0770 -0.0807  0.1288
13839W        W30023  12.706   5.678  16.909 -0.2148  0.1086  0.2275
13840W        W30024   1.118  14.495  13.869 -0.3905  0.3682  0.2306
13841W        W30025  12.156   7.787  15.535  0.0250  0.2945 -0.2246
13842W        W30026   4.777   9.603  16.588  0.3220 -0.2115  0.3155
13843W        W30027   2.266   5.799  14.734  0.1840 -0.2662 -0.3331
13844W        W30028  12.061  14.481   1.318  0.1538  0.0607 -0.0498
13845W        W30029   4.585   4.637   2.583  0.0254 -0.2754  0.1112
13846W        W30030   3.077   5.047  14.342  0.2520 -0.0125  0.2668
13847W        W30031  13.671   8.548   3.052 -0.1056 -0.1098  0.1681
13848W        W30032   9.813   1.852  15.671  0.2059 -0.2291  0.2458
13849W        W30033   5.703  12.599  14.879 -0.0537  0.1131  0.2029
13850W        W30034   7.507  15.258  16.293 -0.1385 -0.1461 -0.0138
13851W        W30035   3.220  10.240   4.153 -0.0652  0.0650  0.0371
13852W        W30036   5.042   2.181  15.573  0.1708 -0.0030  0.1213
13853W        W30037   9.953  12.965  11.664 -0.1774  0.0278  0.0508
13854W        W30038   2.434   5.037   2.939 -0.1502  0.0267 -0.1594
13855W        W30039   3.074  14.202  11.266 -0.0011  0.0044 -0.0773
13856W        W30040   0.872   1.040  11.644  0.0493  0.2343 -0.1385
13857W        W30041   4.360  16.518   1.509  0.0699 -0.2038  0.1594
13858W        W30042   7.489   8.413  12.029 -0.2088  0.0644  0.0455
13859W        W30043   2.403   0.432  11.694  0.1929  0.1478  0.0561
13860W        W30044   6.252  16.905   4.599  0.2369  0.3404  0.0868
13861W        W30045   8.499   9.100  16.929 -0.3218  0.2770  0.2343
13862W        W30046   2.825   1.349  11.981  0.2582 -0.2718  0.2486
13863W        W30047  12.458   1.308  13.925  0.2728  0.3626  0.0805
13864W        W30048  16.025   6.776  12.007  0.0602  0.1015 -0.1724
13865W        W30049   1.831   1.445  16.500  0.0496 -0.0533 -0.2243
13866W        W30050   3.373   9.566   1.419  0.2608  0.0792  0.1335
13867W        W30051  13.620   2.350  12.770  0.0604  0.0432 -0.0247
13868W        W30052  15.502   0.836   5.211 -0.1835 -0.0530 -0.2927
13869W        W30053  10.372  11.468  16.143 -0.1652 -0.0605 -0.1990
13870W        W30054  17.603   6.842   2.293 -0.1953  0.0498 -0.3156
13871W        W30055  10.418  15.531   1.274  0.0645  0.0733  0.2349
13872W        W30056   6.200  12.244   0.817  0.1987 -0.2273  0.0668
13873W        W30057  14.110   6.899  13.302 -0.3120 -0.2063 -0.0682
13874W        W30058   5.137   4.856   1.599 -0.4742  0.1586  0.0282
13875W        W30059   7.913  16.124   5.390 -0.0647 -0.2213  0.1398
13876W        W30060  15.979   6.193   1.626 -0.0213 -0.2034 -0.0557
13877W        W30061  16.039  13.645  13.025  0.2147  0.1364  0.1176
13878W        W30062  13.207  17.244  13.627  0.0003  0.0316  0.1668
13879W        W30063   8.669  14.350   2.223 -0.0741  0.0213  0.0827
13880W        W30064   3.908  15.926  12.197  0.0404  0.0680  0.1906
13881W        W30065  15.772   6.975   5.300  0.0823 -0.0207 -0.1637
13882W        W30066  11.632  13.215   0.121 -0.0408 -0.0573  0.1887
13883W        W30067   8.495   3.517   5.145  0.3996  0.0533 -0.0206
13884W        W30068   9.901   2.605   5.398 -0.3453  0.1577 -0.0771
13885W        W30069  10.048   4.129  15.930 -0.1773  0.0638  0.0243
13886W        W30070   9.797  15.489  11.054  0.2596  0.0145  0.1054
13887W        W30071   9.072  13.852   3.292 -0.0294 -0.0650  0.1579
13888W        W30072   4.000  12.274  13.955 -0.1634 -0.1394 -0.1125
13889W        W30073  10.437  10.669   3.680  0.0503 -0.0265  0.0487
13890W        W30074   0.609   4.012  12.471 -0.1168  0.1119 -0.1729
13891W        W30075  12.478  13.814   4.431  0.1802 -0.2517  0.1913
13892W        W30076  12.891   7.968   5.616  0.1500 -0.1440  0.1287
13893W        W30077   2.636   2.469   0.043 -0.2622 -0.1335 -0.1389
13894W        W30078   5.447   5.782   1.778  0.1069 -0.0890  0.0877
13895W        W30079  14.956   2.391  13.361 -0.0659  0.3236 -0.4722
13896W        W30080   6.977  15.331   3.490 -0.0208  0.0235  0.2718
13897W        W30081   0.401  14.993   4.727 -0.0396 -0.2966 -0.2330
13898W        W30082   6.419   0.939   2.950  0.0790 -0.3820 -0.2182
13899W        W30083   4.178   5.642   3.905 -0.0351 -0.2706  0.1073
13900W        W30084   4.682  11.105  15.270  0.1060  0.0732  0.1786
13901W        W30085   3.910   7.849  13.446  0.2157 -0.0643 -0.1707
13902W        W30086   0.294  15.849  11.436 -0.2430 -0.4217  0.0505
13903W        W30087  16.123   6.861  14.177  0.2158  0.3047 -0.0470
13904W        W30088  10.762  11.714   4.614  0.0061 -0.0150 -0.2354
13905W        W30089   9.512   8.209  12.976  0.3139  0.1846  0.0572
13906W        W30090  17.114  12.059   1.661  0.0707  0.0885 -0.0866
13907W        W30091  16.712   5.315  16.479 -0.0848 -0.1177 -0.1834
13908W        W30092  17.080  17.694  13.018 -0.2010  0.0574 -0.1210
13909W        W30093  17.235  17.152  13.132 -0.0662 -0.0132 -0.2978
13910W        W30094   8.255   7.429   3.806  0.0817 -0.1644 -0.0164
13911W        W30095   0.300   9.267   2.422  0.1863 -0.2223  0.0990
13912W        W30096  17.162   9.960   0.405 -0.0505 -0.0797  0.2184
13913W        W30097   2.967   0.123   1.909  0.0060 -0.0218  0.1151
13914W        W30098   5.208   0.505  14.431  0.0018  0.0200 -0.2303
13915W        W30099  11.053  16.430   2.560 -0.0103  0.1520 -0.0163
13916W        W30100   3.023   9.243   2.871 -0.2017  0.0514 -0.1365
13917W        W30101   9.124   4.203  11.920 -0.0533  0.2535 -0.1411
13918W        W30102   3.849  16.953   4.714  0.1881  0.3248  0.0366
13919W        W30103   8.663  11.411  15.003 -0.0504 -0.3468  0.0547
13920W        W30104   8.562   8.083  14.306  0.0467 -0.0217 -0.0788
13921W        W30105   7.632   3.374   5.725 -0.0884  0.2012  0.1968
13922W        W30106   8.764  15.822   0.260  0.0890  0.2017  0.0495
13923W        W30107  17.723  15.114   2.707 -0.3175  0.1721  0.0894
13924W        W30108   6.491   1.481   2.299  0.0501 -0.0240  0.2864
13925W        W30109   6.774   2.683   4.952 -0.2171  0.1169  0.1901
13926W        W30110   0.771  11.658  15.841 -0.0219  0.0930  0.1400
13927W        W30111  17.311  17.151   1.474 -0.1698  0.0115  0.1934
13928W        W30112  17.653  10.711   6.155 -0.2202 -0.0831  0.1842
13929W        W30113   1.029   1.523  14.009  0.0932 -0.0304  0.3686
13930W        W30114   5.461  14.381  12.616 -0.2940 -0.0417  0.0937
13931W        W30115   8.380   4.077  16.474  0.1013  0.1634 -0.0461
13932W        W30116  17.872   5.257  15.827  0.1122 -0.2645 -0.2085
13933W        W30117   8.055   7.942  11.801 -0.0265 -0.0593  0.2945
13934W        W30118  14.417   2.099   4.419 -0.0267  0.0411  0.0716
13935W        W30119   6.973  12.757   2.709  0.1068 -0.0475 -0.0203
13936W        W30120  17.830  14.744  14.447 -0.0157  0.1295 -0.0805
13937W        W30121  14.482  11.410  14.720  0.0624 -0.3124  0.1981
13938W        W30122   1.078   4.898  16.832 -0.1204  0.1635  0.0715
13939W        W30123   1.814  16.027   1.265 -0.0323  0.0711  0.0835
13940W        W30124   9.674   0.752  12.787  0.4671  0.3359 -0.1521
13941W        W30125   4.873  14.580   5.929 -0.0516  0.1187 -0.0479
13942W        W30126  12.261   0.717   1.075 -0.1306 -0.2355 -0.0969
13943W        W30127  15.156   7.673  14.535 -0.0477  0.1593 -0.3703
13944W        W30128   4.792   4.001   4.803  0.0579 -0.4684  0.3787
13945W        W30129   7.771   6.448   6.012  0.1162 -0.2731 -0.0307
13946W        W30130   1.307   8.396   5.170  0.0203  0.4139  0.1702
13947W        W30131  13.209  16.189  11.800 -0.0879  0.1422 -0.0521
13948W        W30132  10.464   4.533  12.982  0.2619  0.0872 -0.1096
13949W        W30133  12.478  12.178   3.988 -0.1630  0.2478  0.1823
13950W        W30134   8.794   8.049   5.098  0.0962  0.0273  0.0424
13951W        W30135   8.423   5.904  15.086  0.1297  0.0743 -0.3277
13952W        W30136   3.298   8.883   2.232  0.0164  0.2032  0.0377
13953W        W30137  16.728   5.411  13.897 -0.2654 -0.1128  0.1087
13954W        W30138  16.515   3.965   3.413  0.0560  0.0683  0.0368
13955W        W30139   2.012  15.959  10.730  0.0936  0.0571  0.0071
13956W        W30140   2.632   5.790   1.439  0.1017  0.1509  0.0167
13957W        W30141   6.427   3.691  12.206 -0.2373  0.0121  0.1352
13958W        W30142   5.339  13.515  14.138 -0.0139 -0.1626  0.3268
13959W        W30143   8.594  13.810   1.899  0.2985  0.2660 -0.1211
13960W        W30144  16.005   1.390   3.564 -0.1156 -0.0596 -0.0202
13961W        W30145   0.703  10.080   0.451 -0.0206 -0.1125 -0.0227
13962W        W30146  17.863  15.754  14.157 -0.2138 -0.0644 -0.1273
13963W        W30147   0.166  11.274   0.304 -0.1451 -0.2651  0.0210
13964W        W30148   1.304  16.901   0.394  0.4048 -0.2564  0.1466
13965W        W30149   5.041   3.774   0.452 -0.0076 -0.2871  0.0569
13966W        W30150   1.449  12.380   1.716 -0.2606 -0.2687 -0.2034
13967W        W30151   1.361   1.183  16.886 -0.0587  0.1548  0.0233
13968W        W30152   7.883   1.085  13.657 -0.3174  0.0963  0.0734
13969W        W30153  13.199   6.117  12.350 -0.0021  0.1566  0.0587
13970W        W30154   9.519   2.397   5.515  0.1730  0.0353 -0.3584
13971W        W30155   8.140  15.025  12.232 -0.3640  0.0816 -0.3792
13972W        W30156   9.013  11.813  15.007 -0.1824 -0.0322 -0.0869
13973W        W30157  12.641   6.745   5.154 -0.1975  0.1484 -0.2396
13974W        W30158  14.497  12.967  13.313  0.3145 -0.2913 -0.2597
13975W        W30159   7.914   2.578  13.583  0.1635 -0.1149  0.1353
13976W        W30160   2.367   3.984   1.726 -0.0554  0.0666  0.1423
13977W        W30161   9.678   3.278  15.474  0.0588  0.1641 -0.1297
13978W        W30162   3.690  11.667  14.952 -0.2097 -0.2428 -0.1695
13979W        W30163   1.428   1.374  14.385  0.1299 -0.1374 -0.1009
13980W        W30164  10.782   3.057  14.735  0.1300 -0.1938 -0.1611
13981W        W30165   2.417  17.666  10.919  0.2614 -0.0023 -0.2193
13982W        W30166  10.808  16.127   1.198 -0.1242 -0.1301 -0.0588
13983W        W30167   4.948  17.875  15.319 -0.1903 -0.1111  0.1607
13984W        W30168   0.342   1.322   4.477  0.2230 -0.2307  0.0933
13985W        W30169   0.905  17.314   2.894  0.1553 -0.0056  0.2288
13986W        W30170   6.226   9.708   0.696 -0.1481  0.1976  0.3645
13987W        W30171  15.573  17.360   5.576 -0.1792 -0.3941 -0.1011
13988W        W30172  10.699   1.360  13.690  0.1894 -0.0337  0.0808
13989W        W30173   0.650   3.727  12.081 -0.0932 -0.2376 -0.0420
13990W        W30174   0.320  17.561  15.309  0.2066 -0.0967  0.0887
13991W        W30175  10.791   4.954   3.316 -0.2054  0.1009 -0.3948
13992W        W30176  16.633   3.054   4.268  0.2289 -0.4264 -0.0614
13993W        W30177   2.714  14.488   0.753 -0.3368  0.2666 -0.1371
13994W        W30178   7.403  14.704   0.479 -0.1504 -0.1607 -0.1142
13995W        W30179  11.151   8.701  16.079 -0.1533  0.2866 -0.0501
13996W        W30180   2.297   1.041   3.622 -0.1620 -0.1320 -0.0695
13997W        W30181  11.133  11.423   5.350  0.0452 -0.0395 -0.0435
13998W        W30182   9.554  13.644   3.212  0.1517 -0.2480 -0.0582
13999W        W30183  10.968   3.827   1.587  0.1131 -0.1850  0.2706
14000W        W30184   4.322   3.250   6.368 -0.0259  0.0219  0.1250
14001W        W30185   9.398  13.021   1.815  0.1231 -0.1971 -0.2617
14002W        W30186   9.752   3.488  16.333 -0.2053 -0.3023  0.0105
14003W        W30187   5.897  14.889   0.806  0.1295  0.2269 -0.1018
14004W        W30188   2.445  16.692   3.427  0.2167  0.1347 -0.1352
14005W        W30189   9.654  14.688   0.622 -0.1118  0.1806  0.1492
14006W        W30190   5.973   6.134   6.154 -0.0112 -0.0088  0.4058
14007W        W30191  10.999   7.009   3.548 -0.2304  0.0098 -0.0152
14008W        W30192   0.538   3.859  13.425 -0.0408  0.2097 -0.2898
14009W        W30193   5.365   7.358   1.793 -0.0684 -0.0679 -0.1085
14010W        W30194  13.088   0.311  15.665 -0.0689  0.1757 -0.0562
14011W        W30195   3.102  15.735  12.695  0.4187  0.1522  0.0786
14012W        W30196  17.469  13.454  11.928  0.2376  0.0358  0.1413
14013W        W30197  10.021  17.642  14.251  0.0981 -0.2288  0.1505
14014W        W30198   5.868  15.737  14.849  0.1357 -0.0974  0.3109
14015W        W30199  16.999   1.340   6.067  0.1179 -0.2428 -0.3326
14016W        W30200  14.832  12.169   5.177 -0.0712 -0.0743 -0.0402
14017W        W30201  10.686   7.406  11.013 -0.0602  0.0576 -0.1353
14018W        W30202   1.417   4.521   3.475 -0.2371 -0.0425  0.3580
14019W        W30203  17.610  12.062   0.175 -0.0458 -0.0339  0.0377
14020W        W30204   2.204   2.864   0.995  0.3124  0.2517  0.1681
14021W        W30205   1.940   3.644   1.900 -0.3116 -0.2112  0.0849
14022W        W30206  12.511   0.371   0.225 -0.0649 -0.2944  0.5182
14023W        W30207  17.197  11.064   4.183  0.0052 -0.1341 -0.0560
14024W        W30208   7.706   4.706   1.657 -0.1563  0.1228  0.3401
14025W        W30209   9.834   4.819   5.056  0.1589  0.0636  0.0597
14026W        W30210  11.509   7.953   4.764 -0.0712  0.2352 -0.0979
14027W        W30211   9.228   2.532   4.888  0.2425  0.3051  0.1087
14028W        W30212   8.308   6.823   2.883 -0.1716 -0.1443 -0.0014
14029W        W30213  10.575  14.866  14.952 -0.0576  0.1360  0.3982
14030W        W30214   1.721   0.366  16.595  0.0581 -0.1133  0.1707
14031W        W30215   3.702   1.949   0.051 -0.1113  0.4803 -0.1164
14032W        W30216   8.137   5.897   2.951 -0.0409  0.0744  0.1895
14033W        W30217   3.590   8.613  14.142 -0.1893 -0.2808 -0.3422
14034W        W30218  10.825   0.269   4.243 -0.3300 -0.0720 -0.1197
14035W        W30219   0.835  16.272   5.117  0.0613  0.0057  0.1520
14036W        W30220  11.653  12.196  16.382 -0.0762  0.1067  0.1059
14037W        W30221   5.603   4.641  16.293 -0.1228 -0.1737 -0.0672
14038W        W30222  11.573   3.200   6.086  0.1198  0.0338 -0.0924
14039W        W30223   1.795  15.752   3.811  0.1270 -0.4242 -0.2520
14040W        W30224  15.728  12.898   4.009 -0.1421 -0.0021 -0.0346
14041W        W30225   5.632  17.140   1.436 -0.2948 -0.0924 -0.0870
14042W        W30226   2.554   4.831  14.198  0.1448  0.1561  0.1624
14043W        W30227  16.240   7.999   4.575 -0.0481  0.2229 -0.1657
14044W        W30228   2.749  12.215   1.690 -0.1317  0.2242  0.0982
14045W        W30229   5.121   1.102  16.611  0.2101 -0.4346 -0.3250
14046W        W30230   0.235   9.718   1.296  0.2056  0.1365  0.3707
14047W        W30231  13.010  12.306   0.742  0.0903 -0.0975 -0.1341
14048W        W30232   5.742  11.527  11.229 -0.1201  0.2104 -0.1352
14049W        W30233  17.180   6.023   4.721 -0.0739  0.3037 -0.1163
14050W        W30234   1.048  11.544  11.985  0.1050  0.2676  0.2646
14051W        W30235   3.076  17.466  13.662 -0.1009  0.2354 -0.1015
14052W        W30236   5.791   5.832  16.169  0.0514  0.0255  0.0576
14053W        W30237  10.907  14.788   3.179 -0.0559  0.3178  0.1168
14054W        W30238   4.971  11.157  11.730  0.2786  0.1014  0.0684
14055W        W30239   0.141  13.601  11.951 -0.1886  0.2120  0.0978
14056W        W30240  13.292   4.894   5.457 -0.0811  0.3169  0.3888
14057W        W30241   6.866   4.007  11.883  0.3370  0.0087  0.3926
14058W        W30242  13.430  14.741  11.779 -0.0863  0.0929  0.0819
14059W        W30243   0.010   0.950   0.610  0.1809  0.1128  0.0172
14060W        W30244  12.327   2.761   0.713 -0.0721  0.0797 -0.0364
14061W        W30245  17.491   5.290   0.787  0.1687  0.0443  0.0297
14062W        W30246   7.744   6.273   1.370 -0.0199 -0.1203  0.0659
14063W        W30247  10.444  15.212  11.695 -0.2714  0.0634  0.1350
14064W        W30248   1.744  16.571   0.139 -0.0048  0.0818  0.2783
14065W        W30249   8.908   0.201   0.338  0.0263  0.1347 -0.1245
14066W        W30250   9.158   6.603   4.321 -0.2430  0.1929  0.2280
14067W        W30251   1.828   6.676  14.688  0.0050  0.3267 -0.1216
14068W        W30252   5.797  14.933  15.381 -0.0103 -0.1759  0.1175
14069W        W30253   7.170  11.195  12.208  0.1487 -0.0192  0.1687
14070W        W30254  10.586   9.318   3.342  0.0471 -0.0880  0.1561
14071W        W30255  11.309  15.698   4.664  0.3034  0.0630  0.1939
14072W        W30256  13.553  17.814  12.703  0.1207  0.1964 -0.2675
14073W        W30257  17.148  10.931  13.351 -0.1468  0.3276 -0.0160
14074W        W30258  16.489   9.319   1.231  0.1128 -0.0076  0.1213
14075W        W30259  11.753  17.552  13.222 -0.1386  0.1365 -0.0466
14076W        W30260  10.842  15.214  12.624 -0.1752 -0.0145 -0.0570
14077W        W30261  10.449   8.501   1.011  0.1658 -0.2082 -0.0250
14078W        W30262   6.044   0.043   0.179 -0.3083  0.0841  0.0819
14079W        W30263   8.383  11.494  14.037 -0.2646  0.1305 -0.0019
14080W        W30264  13.903  16.624   3.152 -0.0797  0.1788  0.2231
14081W        W30265  12.732  12.766   3.332  0.0255 -0.1186  0.1492
14082W        W30266  11.566  16.246  13.527 -0.2931 -0.0556 -0.1927
14083W        W30267   0.895   3.130   4.382 -0.0078 -0.1526  0.0563
14084W        W30268   7.489   3.718   1.647 -0.0298 -0.0625 -0.1766
14085W        W30269   5.198  11.179   1.224 -0.1830 -0.3588 -0.2389
14086W        W30270   8.462   1.979  16.331 -0.2218  0.0623 -0.0499
14087W        W30271   2.074   6.747   2.611  0.1017  0.0287  0.2485
14088W        W30272   4.104   1.944  15.675  0.0056  0.0894  0.2062
14089W        W30273  16.362   9.950   0.352  0.1042  0.0156  0.1914
14090W        W30274   8.623   7.239   3.069  0.4393 -0.0201  0.0672
14091W        W30275  10.265   5.557  13.483 -0.4137 -0.0411 -0.1412
14092W        W30276  13.438   8.191  11.451 -0.2841 -0.0799 -0.0122
14093W        W30277   2.448   2.223  13.049  0.1220 -0.3063 -0.3932
14094W        W30278   9.836   0.974  13.508  0.0613  0.0721  0.3833
14095W        W30279   4.681  13.332  13.808 -0.0291 -0.0770 -0.1092
14096W        W30280   1.757  14.459  13.138  0.0930 -0.1371 -0.0441
14097W        W30281  16.188  13.647   1.953 -0.4523 -0.0261  0.2947
14098W        W30282  15.196   8.530  11.714  0.3886  0.1234  0.4111
14099W        W30283  14.230  14.901  15.432  0.1875 -0.2199 -0.0957
14100W        W30284  14.932   5.799  14.841  0.1294  0.0943 -0.1701
14101W        W30285   0.587  10.146   1.009  0.0380 -0.0670  0.1648
14102W        W30286  14.901   7.229   0.225 -0.1330 -0.1102  0.1169
14103W        W30287   3.707   2.181   0.615 -0.3322 -0.0814 -0.1233
14104W        W30288   7.776   2.739  11.982  0.0952  0.3227 -0.0061
14105W        W30289   4.270   6.964  15.813 -0.4351  0.2845 -0.1193
14106W        W30290   6.862  12.623   0.231  0.4244 -0.2304 -0.3918
14107W        W30291  14.465  10.151  16.506  0.0411  0.2034  0.3075
14108W        W30292   2.906   3.669  12.281 -0.3413  0.3869  0.1393
14109W        W30293  16.182   3.576  14.418  0.1965  0.1864  0.1056
14110W        W30294   8.819   7.063   1.674  0.0493  0.1836 -0.1148
14111W        W30295   8.448  13.571   0.684 -0.1052  0.0104 -0.2038
14112W        W30296  15.803   8.093  12.072  0.0905 -0.1812  0.1025
14113W        W30297  13.496   2.879  12.987  0.1960  0.2621 -0.0163
14114W        W30298   5.426   9.101   6.232  0.1200  0.0665  0.0844
14115W        W30299   1.810   7.238   1.678 -0.0128 -0.3638  0.1117
14116W        W30300  11.260   8.552   0.753 -0.0682 -0.0245 -0.1358
14117W        W30301   7.628  17.733  13.503 -0.2027 -0.0383  0.1461
14118W        W30302  17.880  15.071   0.560 -0.0789 -0.0083 -0.1526
14119W        W30303  12.301  14.194  16.177  0.2079 -0.0614 -0.0550
14120W        W30304   3.227   1.947  16.834 -0.1831  0.2796 -0.3932
14121W        W30305  14.400  10.588  14.815 -0.2599  0.3111  0.3269
14122W        W30306   5.558   8.948  13.998  0.2523  0.0279 -0.2130
14123W        W30307   6.829  10.908   0.833  0.1962  0.0019 -0.3387
14124W        W30308  15.564   3.822  15.801  0.0641  0.0584 -0.1272
14125W        W30309  14.802   8.678   4.469 -0.1696  0.0950 -0.0851
14126W        W30310  17.277   7.579   6.381  0.0940  0.0016  0.0700
14127W        W30311  14.231   6.316  13.429 -0.1196  0.0311 -0.5098
14128W        W30312   6.781   8.625  12.365  0.1483  0.1329  0.1657
14129W        W30313   5.535   7.278  16.101 -0.2420 -0.1435 -0.0771
14130W        W30314  17.192  11.420  13.492 -0.2992 -0.1321 -0.2766
14131W        W30315   7.146  16.257   0.137 -0.0549 -0.0408  0.0700
14132W        W30316  11.809   6.679   2.360 -0.0667 -0.0570 -0.2352
14133W        W30317   8.039  17.136   4.597  0.2516 -0.1400 -0.0372
14134W        W30318  17.031   1.926  16.105 -0.1944  0.2015  0.0192
14135W        W30319   9.027  10.203  14.794 -0.0528 -0.0051 -0.1451
14136W        W30320   5.161   4.288   3.477  0.2709  0.1491 -0.0537
14137W        W30321  11.991   2.455  16.324 -0.1186 -0.3166 -0.1129
14138W        W30322   8.979  10.594  16.620  0.0514  0.0615  0.1108
14139W        W30323  17.514  16.034   1.342 -0.1273 -0.0245 -0.0355
14140W        W30324  14.947   0.228  12.271 -0.1735 -0.0065  0.1306
14141W        W30325   3.510   2.782  12.847  0.0274 -0.1741  0.2604
14142W        W30326  10.060  13.351  10.106  0.1663  0.2815  0.1146
14143W        W30327   4.680  16.776   1.829  0.0887  0.0141  0.1745
14144W        W30328  11.726  12.652  14.150 -0.2509  0.1879 -0.1449
14145W        W30329   4.014  17.334   1.302  0.1601 -0.2337  0.1879
14146W        W30330  15.287   7.319   6.513 -0.2779 -0.1646  0.2323
14147W        W30331  10.882  10.292   2.956 -0.1722 -0.1953  0.0488
14148W        W30332   5.582  11.742  13.924  0.0617 -0.4555 -0.1220
14149W        W30333  17.583  10.914   1.485  0.0378 -0.1780 -0.1740
14150W        W30334   2.026  11.936  11.786  0.0548 -0.0619  0.0655
14151W        W30335   7.760  14.345  14.014  0.1632 -0.1590  0.0880
14152W        W30336   1.490   1.632  15.287  0.0557 -0.2532  0.3456
14153W        W30337   8.995   6.746   0.563 -0.0269  0.0266  0.2583
14154W        W30338   1.903   5.162  13.559 -0.4631  0.1244 -0.1431
14155W        W30339   1.282  17.168   5.171 -0.0361 -0.0908  0.2455
14156W        W30340  15.116  16.174   5.112 -0.0359  0.0915 -0.1181
14157W        W30341   5.621   7.091  15.607  0.2048  0.0236  0.2378
14158W        W30342  12.695   0.830   4.050  0.0558  0.1534 -0.1112
14159W        W30343   3.917   9.459   2.776 -0.1807 -0.1799 -0.0607
14160W        W30344   8.563   9.688   0.040 -0.0430  0.2524  0.0516
14161W        W30345  15.793   0.762   5.794 -0.1762  0.0386 -0.3458
14162W        W30346  16.628   0.138   2.927  0.0326 -0.0493  0.1739
14163W        W30347  12.988  14.345  14.442  0.0675 -0.1511 -0.0222
14164W        W30348   0.167   7.941   1.126  0.2884 -0.0746 -0.3375
14165W        W30349   2.577  14.152   1.125  0.1877 -0.2107 -0.1019
14166W        W30350   4.440   0.225   3.589  0.3946 -0.0029 -0.0378
14167W        W30351   3.085   9.760  16.188  0.1435  0.2529  0.0624
14168W        W30352   5.779   8.850   3.752 -0.1011  0.1778 -0.1865
14169W        W30353  10.589   0.742   1.667  0.0331 -0.2600  0.1689
14170W        W30354   4.388  11.063  16.867 -0.1877  0.1589 -0.1622
14171W        W30355  10.191   3.326   4.675 -0.2009 -0.2101  0.0914
14172W        W30356   2.831   4.416   3.472 -0.3461 -0.1799 -0.0250
14173W        W30357  15.685   6.025  12.672  0.0468  0.0990  0.2411
14174W        W30358  16.342   8.798   4.385  0.4062 -0.0080 -0.4405
14175W        W30359  10.842  17.792   4.597 -0.2559 -0.1279  0.2676
14176W        W30360  17.628  15.309  12.141  0.0063 -0.1106  0.0163
14177W        W30361  12.614  10.365   5.441 -0.0110 -0.1739 -0.1579
14178W        W30362  15.913   7.048   4.689 -0.0361  0.3311 -0.1127
14179W        W30363   5.119  17.835   0.438  0.0842  0.1083 -0.2278
14180W        W30364   0.717   1.305   1.204  0.0506  0.0899  0.2458
14181W        W30365  16.567   2.733  15.303 -0.4987 -0.0751 -0.0146
14182W        W30366   5.092  13.244   5.532 -0.3532 -0.0518 -0.1018
14183W        W30367   1.724   8.421  15.958 -0.4158  0.4202 -0.1188
14184W        W30368  12.519   2.887   1.293  0.3248 -0.2490  0.0264
14185W        W30369   6.677   5.135  16.763 -0.3432 -0.2939 -0.2124
14186W        W30370  12.853  10.690   1.554  0.1674 -0.2162 -0.2924
14187W        W30371   4.181   6.099   1.831 -0.2082 -0.3271 -0.3292
14188W        W30372   5.567  17.007   2.562  0.2115  0.1863 -0.0940
14189W        W30373  17.514   3.047  14.234  0.0568  0.1259 -0.0612
14190W        W30374   8.446   9.678   3.396 -0.0420  0.1550 -0.0583
14191W        W30375   8.921   4.434   0.740  0.0991  0.0107  0.0185
14192W        W30376  12.620  11.342  14.899  0.3813 -0.0589  0.0412
14193W        W30377  16.397  13.842  13.680  0.2508  0.1005  0.0149
14194W        W30378  17.833   0.332  12.590  0.2380  0.1674 -0.1242
14195W        W30379  16.738  12.356   1.348  0.0725 -0.0580 -0.0368
14196W        W30380  13.004  13.559   0.289  0.0437  0.0403 -0.0854
14197W        W30381   8.967  12.723   4.658 -0.0236 -0.1069 -0.1798
14198W        W30382   4.597  11.743   3.551 -0.3265  0.1215  0.2403
14199W        W30383   5.318   5.654  11.880  0.0508 -0.1426  0.0769
14200W        W30384  10.912   7.846  14.296  0.0890  0.2857 -0.1494
14201W        W30385   0.017   7.047   0.395  0.1923 -0.2056  0.0630
14202W        W30386  13.184  15.259   1.099 -0.0659 -0.0793 -0.0619
14203W        W30387   4.046   6.680   3.996  0.1145 -0.2402 -0.0004
14204W        W30388   3.575   2.729  14.753  0.1701  0.0497 -0.0520
14205W        W30389  16.655  17.368   3.108 -0.1646  0.0259 -0.2122
14206W        W30390   7.586   2.294  12.270  0.0017  0.0094 -0.2005
14207W        W30391   1.664   6.607  12.645  0.1676  0.2080 -0.0770
14208W        W30392  12.864  11.123   3.103  0.0248 -0.1610 -0.2854
14209W        W30393  13.263  14.409  15.851  0.1801 -0.1747 -0.1674
14210W        W30394   6.084  15.098  11.492  0.2102 -0.1652 -0.0379
14211W        W30395  17.099  12.958  14.482 -0.2277  0.2235 -0.1423
14212W        W30396   6.394   8.167   5.329  0.0687 -0.1024  0.1653
14213W        W30397  12.750  14.781  14.355  0.1796  0.5406 -0.0147
14214W        W30398  14.987   0.239   1.218 -0.0013 -0.1608  0.3180
14215W        W30399   2.365  14.652   2.018 -0.0222  0.0394  0.0272
14216W        W30400  14.494  14.649  11.899  0.1508 -0.2294  0.1028
14217W        W30401  14.646   2.895   6.211 -0.1086 -0.0756 -0.3363
14218W        W30402  10.977   6.596   4.927 -0.2535 -0.0934  0.0185
14219W        W30403  15.296   2.796   5.209  0.2542  0.1134 -0.0498
14220W        W30404  14.017  17.774   1.935 -0.1350  0.2170  0.1327
14221W        W30405   6.775  16.942   3.276 -0.1059  0.3233 -0.1698
14222W        W30406  11.155  17.145   5.293 -0.3019  0.3536  0.1203
14223W        W30407   0.865  13.234  14.912 -0.1987 -0.0232 -0.1697
14224W        W30408   6.382   3.801  11.161  0.0082  0.1774 -0.3269
14225W        W30409  12.201   7.424   6.090  0.0021  0.3056  0.1192
14226W        W30410  11.014   4.443  12.001  0.1124  0.1803 -0.3177
14227W        W30411   7.787   9.390  15.833  0.0625 -0.0414 -0.1101
14228W        W30412  13.986   6.051   4.788  0.0761 -0.0228  0.2835
14229W        W30413   6.358  15.080  11.092  0.0248  0.0369  0.1140
14230W        W30414   6.450   6.819   2.524  0.2388 -0.3243 -0.0860
14231W        W30415   9.709  13.357  15.261  0.2551  0.1048 -0.4595
14232W        W30416   5.746  14.434  14.469 -0.1790 -0.0138  0.2580
14233W        W30417   4.652   9.127  16.498  0.2811  0.0994 -0.1246
14234W        W30418  14.942   8.695  13.511  0.2119 -0.1155 -0.2468
14235W        W30419  12.479   2.084   5.703 -0.1514  0.0725 -0.1101
14236W        W30420   6.273   0.305  12.318  0.0304  0.2231 -0.3612
14237W        W30421   3.681  11.028  14.259  0.2933  0.0096 -0.0799
14238W        W30422   8.297   4.111  15.537 -0.1599 -0.1784 -0.2841
14239W        W30423   6.865  13.321  14.785  0.0437 -0.0816 -0.2334
14240W        W30424   0.230   1.610  10.857  0.2320  0.0826  0.2171
14241W        W30425  10.975  14.084  15.298  0.1894 -0.2016  0.0765
14242W        W30426   3.860   6.690  14.234 -0.0413 -0.0894  0.2863
14243W        W30427   1.322  15.450  11.983 -0.0922  0.0771  0.1576
14244W        W30428   0.618   2.875   6.626 -0.3475 -0.0984  0.1380
14245W        W30429   7.605   0.658   1.047  0.0479 -0.0017 -0.1166
14246W        W30430  12.637  11.317  15.823  0.1450 -0.0109 -0.1042
14247W        W30431   0.398   7.220  14.136 -0.2225 -0.0303  0.1884
14248W        W30432   8.273   8.163   4.118  0.0788  0.0517 -0.2403
14249W        W30433   9.603  17.185   3.702  0.1165 -0.1739  0.2595
14250W        W30434   7.588   4.196   2.693  0.3405  0.1864 -0.1272
14251W        W30435  16.174  16.744   1.353  0.0459  0.1137 -0.0661
14252W        W30436   1.217   8.860   4.983 -0.3685  0.0406  0.0246
14253W        W30437  11.185   4.833  16.655  0.1027  0.3463  0.0173
14254W        W30438   6.622   6.028  16.630  0.0639  0.1158  0.0016
14255W        W30439   6.246  10.999  13.074  0.2961  0.0978 -0.0440
14256W        W30440   6.440  15.243   0.974  0.0944  0.2761  0.2480
14257W        W30441  16.183  12.175  14.034  0.0977 -0.0797 -0.1304
14258W        W30442   4.619   3.168  15.368  0.1092 -0.2539  0.0489
14259W        W30443   5.543   1.881  13.355  0.0655  0.2237 -0.1782
14260W        W30444  17.517   1.050   4.466  0.1214 -0.2762 -0.1944
14261W        W30445   5.874   1.872   0.317 -0.2844  0.2371  0.2815
14262W        W30446  14.782   2.924   5.272 -0.3086  0.3104 -0.2161
14263W        W30447   9.811   6.628  13.535 -0.1066 -0.0770  0.1030
14264W        W30448  14.831   3.343  13.111 -0.2572  0.0979  0.0853
14265W        W30449   7.807  13.333  13.071 -0.2014  0.0404  0.1832
14266W        W30450  15.245  15.901   2.115  0.0652 -0.0398  0.0262
14267W        W30451   8.431   7.908   2.048 -0.1357  0.2028  0.1571
14268W        W30452   3.136   1.018   2.138  0.5196  0.0996 -0.0877
14269W        W30453   6.328   0.245  11.811 -0.1458  0.2391  0.3079
14270W        W30454  13.898   8.111   6.034  0.0676  0.0100 -0.3223
14271W        W30455   5.678   0.196  15.754  0.0112 -0.1080 -0.4806
14272W        W30456  13.980  16.374  13.802 -0.2309  0.3538 -0.1784
14273W        W30457   5.728  13.626   4.309 -0.0393  0.0590 -0.1174
14274W        W30458  15.680  15.114  14.555 -0.0546  0.0406 -0.1101
14275W        W30459   3.240  16.282  12.678 -0.1002  0.1291  0.0143
14276W        W30460   6.714   5.213  12.359  0.1005 -0.1861  0.0792
14277W        W30461  17.213   9.848  12.744 -0.0074 -0.1272  0.1138
14278W        W30462   1.200  12.672  12.905  0.2678  0.2091  0.1643
14279W        W30463   7.866   1.814   1.685  0.5162  0.4109  0.0263
14280W        W30464  16.717  14.325   3.105 -0.0120  0.3318 -0.2524
14281W        W30465  15.008   2.704  16.891  0.0772  0.1735 -0.1873
14282W        W30466   4.380  14.524   5.698  0.0440 -0.2760  0.1919
14283W        W30467   4.944  13.159   0.783  0.0729 -0.0358  0.1130
14284W        W30468   8.154  16.974   1.441  0.2847 -0.1036 -0.1944
14285W        W30469   8.430  11.098  11.982 -0.0333  0.0632  0.4249
14286W        W30470   7.021  13.091   4.044  0.0425  0.0070  0.1515
14287W        W30471   6.193   6.964   1.281  0.1755  0.1202  0.1952
14288W        W30472  17.145   4.958   2.507 -0.3238 -0.0766 -0.0451
14289W        W30473  17.538  15.391   5.217 -0.0655  0.4101 -0.0942
14290W        W30474   5.372   2.070  12.931  0.1461 -0.0772  0.1841
14291W        W30475  11.727   1.581   0.016  0.4114 -0.0014 -0.2324
14292W        W30476   5.100   8.869   4.501 -0.3231 -0.4512  0.1491
14293W        W30477  16.604  13.928   0.541  0.2550  0.0143 -0.3336
14294W        W30478   7.800   0.726  14.149  0.0573  0.0403 -0.1126
14295W        W30479   2.330  12.699  13.631  0.2478 -0.1869 -0.0806
14296W        W30480   4.264  17.802  12.287 -0.2208 -0.0492  0.2883
14297W        W30481   7.783  10.883  13.658 -0.0814  0.0615 -0.0710
14298W        W30482   2.476   4.163  13.182  0.2303 -0.0533 -0.1402
14299W        W30483   8.377  15.222  15.943 -0.0023 -0.0214 -0.0151
14300W        W30484  11.906   3.584  16.722  0.0008  0.0704  0.1560
14301W        W30485   1.505  14.235  14.122 -0.1269 -0.0417 -0.2044
14302W        W30486  12.123  13.065   5.411 -0.1348 -0.1921 -0.1008
14303W        W30487  12.839   0.947   5.770 -0.4005  0.0199  0.1370
14304W        W30488  14.459   7.945  15.709  0.4402  0.2599  0.1906
14305W        W30489  14.383  12.355   0.507  0.0613 -0.1903  0.1523
14306W        W30490  16.675  13.309  12.879  0.1072 -0.0231 -0.3075
14307W        W30491  12.883  14.142  13.978 -0.0711  0.0176 -0.1492
14308W        W30492   6.583   2.278   4.109  0.1257 -0.0450  0.2696
14309W        W30493   2.597   9.227   3.172  0.4241  0.2106  0.1888
14310W        W30494  12.829   5.562   0.437  0.1025 -0.1850 -0.0038
14311W        W30495  11.269   2.371  13.048 -0.0173 -0.1897  0.0649
14312W        W30496   0.029   0.369   6.048  0.0598  0.0614  0.0622
14313W        W30497   0.141   4.404   5.740 -0.1850 -0.0251 -0.1504
14314W        W30498   9.342  11.910   0.903  0.2033  0.1105 -0.1444
14315W        W30499  17.229  15.025  12.421  0.1546 -0.0568 -0.0810
14316W        W30500  17.795   7.427  16.370  0.0187  0.0663  0.1603
14317W        W30501   2.683   2.924  16.033  0.3291  0.3575 -0.0014
14318W        W30502   1.153  11.038  12.183 -0.1252 -0.2056 -0.1294
14319W        W30503   7.010  16.585   3.587 -0.0017  0.0376  0.0113
14320W        W30504  13.756   6.885  13.877  0.1847 -0.4000  0.1890
14321W        W30505   2.242  16.667  13.558 -0.1325 -0.2244 -0.0565
14322W        W30506  15.011   0.862   4.052  0.1983 -0.3345 -0.2153
14323W        W30507  13.747   2.952  15.945 -0.3414 -0.0544 -0.3698
14324W        W30508  12.177   6.630   0.015  0.1222  0.0472  0.0827
14325W        W30509  16.953   5.138  16.907  0.0274  0.2132  0.1800
14326W        W30510   6.289  15.311   3.935 -0.2818  0.0421 -0.3030
14327W        W30511   5.315  10.063  11.453  0.0558 -0.3069  0.0530
14328W        W30512   1.858   7.099  11.817  0.0770  0.2699 -0.1324
14329W        W30513  16.392   7.043   3.627 -0.2703 -0.2295  0.0290
14330W        W30514   6.820  13.862   2.254  0.3718  0.0698  0.1841
14331W        W30515  17.221   4.201   0.702 -0.0436 -0.0188  0.0776
14332W        W30516   2.361   8.942  16.827 -0.0587  0.0831 -0.1107
14333W        W30517  11.600  17.186  11.444  0.0361  0.0773  0.0083
14334W        W30518   3.489   7.260   5.871 -0.0122 -0.0531 -0.0641
14335W        W30519  11.128   1.291   2.455  0.1495 -0.0146 -0.0470
14336W        W30520  15.831  16.620  12.785 -0.0890 -0.1740 -0.1997
14337W        W30521  12.658   5.637   4.794  0.3673  0.0890 -0.1894
14338W        W30522  13.536  13.017   2.311  0.0095  0.0340 -0.0029
14339W        W30523   1.504  16.898   3.382  0.1600  0.1758  0.1165
14340W        W30524   6.786   5.477  14.616 -0.2497  0.1893 -0.0041
14341W        W30525  10.145   0.724  12.569  0.1380 -0.0858  0.0700
14342W        W30526  17.831   6.680  11.691 -0.0150  0.1535  0.1468
14343W        W30527  13.817   7.664  14.229 -0.1886  0.3523  0.2520
14344W        W30528  15.085   3.412   5.145  0.1267  0.1046  0.2084
14345W        W30529  11.238   3.540   0.868 -0.1506 -0.2963  0.1521
14346W        W30530   6.576   9.225   4.797 -0.1294 -0.0769  0.1928
14347W        W30531   4.652   6.182   2.070  0.1201 -0.0705 -0.1340
14348W        W30532  12.908   8.545   5.202  0.2248  0.2460  0.1124
14349W        W30533  16.737   4.215  11.996 -0.2219  0.1084 -0.1593
14350W        W30534  11.498   1.713   2.566 -0.1735 -0.1808  0.1618
14351W        W30535   0.064   6.347   5.163  0.1925 -0.2973  0.2283
14352W        W30536   1.159   5.300   2.734  0.3757  0.2350  0.1235
14353W        W30537   2.419   5.984   6.206 -0.0856  0.0049 -0.0761
14354W        W30538   8.695  13.647   4.625 -0.2141  0.4074 -0.0620
14355W        W30539  10.258   1.379   1.174 -0.0582 -0.2455 -0.0782
14356W        W30540   8.952  14.220  10.186 -0.3141 -0.0752  0.2584
14357W        W30541   5.987  17.367  12.690 -0.1881  0.0679 -0.2079
14358W        W30542  14.565   1.872  14.078 -0.0334 -0.2070 -0.1931
14359W        W30543   6.725  15.259  15.313  0.0030 -0.3371  0.0253
14360W        W30544   3.064  14.588  10.839 -0.0197  0.1514 -0.0019
14361W        W30545  10.148  15.653  14.063  0.1244  0.0664 -0.1546
14362W        W30546  16.727  13.034  16.681 -0.0191  0.3199 -0.2325
14363W        W30547  14.221   9.005   0.230 -0.0028 -0.0584 -0.2181
14364W        W30548   3.530   7.961   1.275 -0.0107  0.3849 -0.0585
14365W        W30549   4.406   7.720  12.163  0.2039 -0.1227 -0.0194
14366W        W30550  12.914   1.337   1.579  0.0058  0.1070 -0.1672
14367W        W30551  17.571   6.773  15.598 -0.0321  0.0193  0.4535
14368W        W30552  10.756  10.019  12.136  0.2041 -0.1744 -0.1672
14369W        W30553  11.927  16.686  14.296 -0.2680  0.3108 -0.3034
14370W        W30554   8.993   0.926   5.854 -0.2851 -0.1894 -0.0757
14371W        W30555   7.419  10.768  13.327  0.0428 -0.1677 -0.1597
14372W        W30556   3.064   3.371  15.747  0.0962 -0.1596  0.1341
14373W        W30557   1.302  11.983   5.077  0.0864 -0.0584 -0.2159
14374W        W30558   1.583  14.310  13.549 -0.0374 -0.0606  0.1378
14375W        W30559   9.926  14.358   4.183 -0.1043  0.0885 -0.0739
14376W        W30560   0.119  12.022  11.839  0.0551 -0.4337 -0.0813
14377W        W30561  14.833  14.329   1.703 -0.0867 -0.0591 -0.1855
14378W        W30562  11.156   5.057  13.615  0.1682  0.1050 -0.2645
14379W        W30563   6.458   9.368  12.228  0.1260 -0.2662  0.1398
14380W        W30564   1.503   4.220  14.547 -0.1868  0.0977  0.0896
14381W        W30565   1.708  13.315   0.124  0.1738  0.0542  0.0848
14382W        W30566   9.836  16.715  11.386  0.1124  0.0292  0.1174
14383W        W30567   8.096  14.859   5.094  0.1273 -0.0329  0.0796
14384W        W30568   2.867   3.471   2.269 -0.0142  0.2598  0.1241
14385W        W30569   0.613  11.365   5.182 -0.0737 -0.3019 -0.2009
14386W        W30570   8.676   3.976  14.662 -0.3419 -0.0716 -0.0372
14387W        W30571   9.128  15.314  12.134  0.1203  0.1084  0.0528
14388W        W30572  16.704  17.513  11.792  0.2469 -0.2308 -0.2303
14389W        W30573   5.409   7.641   1.362 -0.1132 -0.1685 -0.3184
14390W        W30574   6.592   9.212  13.007 -0.3154 -0.0461  0.0895
14391W        W30575   8.518   5.978   4.539 -0.0696 -0.2952  0.1551
14392W        W30576  12.462  13.781  16.925  0.1727 -0.1936 -0.6512
14393W        W30577   8.861  12.505  15.903  0.2331 -0.0071  0.2645
14394W        W30578  16.362   0.829  15.078 -0.1157  0.2340 -0.0770
14395W        W30579  15.129  11.150  16.328  0.1744  0.4231 -0.1466
14396W        W30580  15.583  15.457   0.422  0.2250  0.2185  0.1829
14397W        W30581  12.528  11.443   1.496  0.0478  0.0022 -0.1416
14398W        W30582   1.026  10.336  11.966 -0.1690  0.2768 -0.0339
14399W        W30583   1.763   1.042   0.330 -0.6672  0.0657 -0.1162
14400W        W30584   0.121   9.134  14.480 -0.1073  0.2721  0.1353
14401W        W30585  15.071  10.066   5.423  0.0913 -0.0987  0.1349
14402W        W30586   7.286   7.518   5.113  0.0341 -0.2810  0.2538
14403W        W30587   6.939   8.850   2.318  0.0708 -0.0509 -0.1436
14404W        W30588   6.912  11.141  15.410 -0.1063  0.2099  0.2264
14405W        W30589  14.772  11.152  12.267 -0.0733  0.1114 -0.0348
14406W        W30590   4.652   1.779   2.238 -0.2366 -0.1251  0.1096
14407W        W30591   9.418  13.321  12.513 -0.2083 -0.0391 -0.0661
14408W        W30592  12.544  14.267  15.755 -0.0530  0.2210  0.2054
14409W        W30593  13.634   0.109   1.735  0.1516 -0.1265 -0.2688
14410W        W30594   2.750   8.324   1.771 -0.0916  0.1988  0.1181
14411W        W30595   3.897  15.653  16.017  0.2835  0.0901  0.2173
14412W        W30596   5.439  12.034  13.138 -0.1644  0.2847  0.2591
14413W        W30597  16.362  16.298   3.583 -0.0482  0.0725  0.1343
14414W        W30598   1.524   1.849  13.116 -0.2111 -0.0984  0.0718
14415W        W30599   9.741   7.539  12.314  0.0531  0.1570 -0.1034
14416W        W30600   1.244   7.301   2.874 -0.3824 -0.0115  0.1399
14417W        W30601   8.561  12.506   0.910 -0.1074  0.0268 -0.0271
14418W        W30602   4.923   0.416  15.711  0.0593 -0.1300 -0.0281
14419W        W30603  17.455  12.772   1.473  0.3409 -0.1056 -0.1339
14420W        W30604   8.487   9.533  13.236 -0.1002  0.0955  0.1063
14421W        W30605  15.383  10.725   6.197  0.1488 -0.0123  0.1526
14422W        W30606   8.433  15.227  16.465 -0.2003  0.1364 -0.1512
14423W        W30607   9.961   2.362   4.474  0.1325  0.1603  0.0145
14424W        W30608  15.949   3.505   3.670 -0.1208  0.2050  0.0180
14425W        W30609  13.097  14.470  16.632 -0.1208  0.3949 -0.0296
14426W        W30610   9.535  12.413   2.082  0.3300 -0.0458  0.1088
14427W        W30611  10.772   8.196  15.117 -0.0437 -0.1096  0.1451
14428W        W30612  16.754  10.332   3.954  0.0956  0.0553 -0.0723
14429W        W30613  15.643   6.959   1.004  0.0214 -0.0762  0.0490
14430W        W30614  13.307  12.759   1.891  0.1089  0.2340  0.2311
14431W        W30615   6.810  14.309   2.591 -0.2220 -0.0639 -0.2440
14432W        W30616   7.481   0.930   1.436  0.1301  0.0518  0.0437
14433W        W30617  11.647  10.460  13.931 -0.0758 -0.1214  0.0998
14434W        W30618   3.811  12.090  14.621  0.0917 -0.0621  0.1757
14435W        W30619   8.677   5.940   5.249 -0.1902 -0.0727  0.0217
14436W        W30620   7.065   6.275   4.231  0.0159  0.0456 -0.0078
14437W        W30621   0.300   7.724  16.215  0.2671  0.0226 -0.0111
14438W        W30622   2.211   8.022   4.692 -0.0852 -0.1438  0.0669
14439W        W30623   0.002  13.250  11.170  0.2488  0.1337  0.0394
14440W        W30624  14.172  17.379   2.245 -0.2090  0.0331  0.1014
14441W        W30625   2.477   7.207   3.271 -0.3682  0.1008  0.1034
14442W        W30626  15.409   2.090  12.581  0.0148  0.1800 -0.0079
14443W        W30627   4.774  17.751  12.316 -0.0517 -0.0400  0.2786
14444W        W30628   4.967  12.747  12.520  0.0286  0.0472 -0.1650
14445W        W30629  15.981   9.720  16.158  0.2747 -0.2177  0.0203
14446W        W30630  12.990  13.257   3.905 -0.2627  0.1772  0.0229
14447W        W30631  11.218   7.193  11.658 -0.0211 -0.3447 -0.1398
14448W        W30632  13.497   1.107   1.358  0.0057 -0.2039 -0.0065
14449W        W30633   7.735   8.062  12.267  0.0410  0.0120  0.2404
14450W        W30634  11.552   0.004  12.909 -0.0041 -0.0888  0.0455
14451W        W30635  14.452   2.430  13.248 -0.3277  0.1201  0.1795
14452W        W30636  15.956  16.175  15.419  0.1837 -0.0377  0.2299
14453W        W30637   3.629   7.075   2.236 -0.0362  0.0102  0.1335
14454W        W30638  12.746   7.525   4.674  0.2629  0.1352 -0.2018
14455W        W30639  10.123   7.476  14.519 -0.1851 -0.0653  0.1366
14456W        W30640   1.595   3.655   4.880  0.0643  0.2135 -0.0664
14457W        W30641   3.132  16.951   5.446 -0.0044  0.1261 -0.1665
14458W        W30642   8.324  15.069   1.080 -0.4869  0.0349  0.0670
14459W        W30643  17.711   8.759   3.435 -0.2490  0.0232 -0.3171
14460W        W30644   0.678  13.348  11.578 -0.0427 -0.0578 -0.1281
14461W        W30645  15.813  17.765  12.207 -0.0492 -0.1525  0.0262
14462W        W30646  15.280  15.875  14.385  0.3157 -0.1574 -0.0330
14463W        W30647  12.072   5.030  16.904 -0.1538 -0.1062  0.0977
14464W        W30648  13.813  13.955   3.977 -0.0131  0.0229  0.0583
14465W        W30649  16.662   4.615  13.213  0.0448  0.0242  0.2208
14466W        W30650   1.659  13.447   5.762 -0.3648  0.0089  0.2549
14467W        W30651  10.163   8.441   5.131  0.0237 -0.1422 -0.1433
14468W        W30652   7.992   5.031  16.506  0.2634  0.0976  0.2426
14469W        W30653   0.565  13.548   5.233 -0.1302  0.0763  0.1864
14470W        W30654  11.293  17.625  13.959 -0.0590  0.2689 -0.0471
14471W        W30655  11.469   3.272   5.484 -0.2579  0.1370  0.1905
14472W        W30656  16.392  10.374   4.350  0.2068 -0.1267  0.0387
14473W        W30657  16.241  11.717  15.330 -0.2200  0.1000  0.0531
14474W        W30658   0.821   6.248   4.793  0.1074  0.1793 -0.2565
14475W        W30659  13.113  17.279   5.545  0.2540 -0.4019 -0.0083
14476W        W30660   4.748   4.620  15.816  0.1039 -0.2422 -0.1650
14477W        W30661   8.923  11.869   2.333  0.0707  0.4034 -0.1351
14478W        W30662   6.055   4.100  14.285 -0.0356 -0.1430 -0.0824
14479W        W30663   5.307   4.689   2.042 -0.2605  0.1635  0.1151
14480W        W30664   0.047   4.868   3.249 -0.4384 -0.4499  0.0504
14481W        W30665   7.890   3.790   4.184  0.1813  0.0974  0.1400
14482W        W30666   4.093  10.801   0.765 -0.0001  0.3100 -0.1154
14483W        W30667  17.414   5.184   4.673 -0.0755  0.2074 -0.1248
14484W        W30668   5.297   4.580   4.275 -0.0465  0.3722  0.0898
14485W        W30669  15.898   8.214  14.786  0.0825 -0.3045 -0.0686
14486W        W30670  17.273  17.560   1.772 -0.1014  0.1125 -0.2673
14487W        W30671   3.494  14.016  13.559 -0.1219 -0.0544  0.0104
14488W        W30672   8.069   6.426   0.544  0.5620  0.0403  0.0044
14489W        W30673   4.452  17.652  11.783 -0.3305 -0.1794  0.0025
14490W        W30674   1.904   4.920   2.684  0.0211 -0.0208 -0.1460
14491W        W30675  12.678   3.293   4.801  0.1316 -0.1602  0.0706
14492W        W30676   6.379   1.088   5.492  0.1129  0.0968  0.2491
14493W        W30677   7.972   5.729  13.246  0.2983 -0.1526 -0.0905
14494W        W30678  17.232   0.963  11.659 -0.2075 -0.0478  0.1972
14495W        W30679  17.830  17.307   1.509 -0.4057  0.1994 -0.1198
14496W        W30680   9.618   8.349   5.160  0.3735  0.0442  0.0586
14497W        W30681  12.010   9.750   0.790  0.2582 -0.0765  0.2162
14498W        W30682   0.419  12.842   0.910  0.0676 -0.2357 -0.0145
14499W        W30683   7.099   2.632  14.116  0.0315 -0.1787  0.0166
14500W        W30684  12.983  17.769  15.886 -0.0549 -0.1749  0.0048
14501W        W30685  10.099   3.488  14.335  0.0572  0.1079 -0.1622
14502W        W30686   4.771   6.461   3.169  0.1827  0.2192  0.3509
14503W        W30687  12.076  12.919   5.943 -0.0682  0.3788 -0.0950
14504W        W30688  14.344   8.462   1.717 -0.0374 -0.0206 -0.1595
14505W        W30689   2.014   4.068   5.660  0.2471  0.0775  0.2178
14506W        W30690   3.943   3.300  12.342 -0.0319 -0.2244  0.2901
14507W        W30691  16.019   0.372  15.267  0.1983 -0.0582  0.0189
14508W        W30692   8.166   6.193   1.652 -0.0722  0.1497  0.1527
14509W        W30693  17.614  15.065   1.019 -0.1741  0.1100 -0.0886
14510W        W30694  10.658  14.100  15.809 -0.1918  0.1024  0.0995
14511W        W30695  13.114  15.399  11.456 -0.1538  0.2228  0.0606
14512W        W30696   9.396  10.060   5.815  0.3019 -0.0127 -0.2421
14513W        W30697   6.957   5.412  15.571  0.0302 -0.1765 -0.1852
14514W        W30698  14.170  14.786   2.244 -0.0042 -0.0688 -0.1116
14515W        W30699   4.180   4.766   5.043  0.0854  0.1349  0.1283
14516W        W30700   5.558  15.620   1.042 -0.3578  0.1578  0.0227
14517W        W30701   3.872   9.370  16.138 -0.0905  0.3870  0.0281
14518W        W30702   6.442  17.112  12.454  0.0636  0.3802  0.0251
14519W        W30703  10.509   7.036   3.449 -0.0625  0.0310  0.0299
14520W        W30704   9.738  16.475   4.179  0.1771  0.0283  0.3337
14521W        W30705   5.232  12.600  14.017  0.1028 -0.0294  0.2085
14522W        W30706  14.857   0.143  16.683  0.0604  0.2073  0.0648
14523W        W30707   5.261   2.421   3.654 -0.1358 -0.1251  0.2501
14524W        W30708  10.417  16.108  11.762  0.1352 -0.1110 -0.1292
14525W        W30709  16.532   9.431  13.216 -0.2196 -0.1780  0.0266
14526W        W30710   3.077   5.911  15.902  0.3113 -0.1060  0.0909
14527W        W30711   5.065   6.696  13.005 -0.2421 -0.1268 -0.1710
14528W        W30712  15.223   7.894   5.242  0.1269 -0.3712 -0.0158
14529W        W30713   5.682   1.274  12.255  0.1360 -0.1438  0.0593
14530W        W30714   3.646  17.181  16.072  0.0917 -0.1324  0.2315
14531W        W30715   6.886  14.792   3.496  0.0957 -0.1648 -0.1533
14532W        W30716   9.116   7.391   2.405  0.1800 -0.2804 -0.0316
14533W        W30717   9.669   9.674  13.132  0.1541  0.1973 -0.1800
14534W        W30718  15.273  15.282  10.788  0.2141 -0.2303 -0.1964
14535W        W30719   7.343  14.087  13.828 -0.0681  0.1153  0.2308
14536W        W30720   4.024   5.822   0.724 -0.1503  0.0422 -0.2158
14537W        W30721  14.215   5.905   5.313 -0.0808  0.2915  0.1177
14538W        W30722  15.779  16.655  15.770  0.1567 -0.0658 -0.3367
14539W        W30723   9.514  13.492   4.212  0.4574 -0.1240 -0.1040
14540W        W30724   1.637   4.029  12.592  0.0427  0.1460  0.1019
14541W        W30725  10.011  15.436   1.653 -0.0385  0.1856  0.0832
14542W        W30726   3.272   7.281   3.938 -0.3790 -0.0997 -0.1501
14543W        W30727  17.251  15.956  12.791  0.1135  0.1538  0.1510
14544W        W30728  17.404   1.466  12.581  0.0294 -0.0094 -0.0547
14545W        W30729   1.499  12.384  15.827  0.0000  0.2321 -0.3146
14546W        W30730  10.906   1.214  12.999  0.1936 -0.0199  0.1311
14547W        W30731  14.107   1.984  13.860 -0.1267  0.0902  0.0572
14548W        W30732   9.054   6.578   6.072 -0.2187  0.3285  0.1136
14549W        W30733  17.834   0.353   3.893  0.1962 -0.2091  0.1724
14550W        W30734  13.696  11.625  13.984 -0.2893 -0.4363 -0.0557
14551W        W30735   5.976  13.281   1.697 -0.3538 -0.0816 -0.0637
14552W        W30736   1.074  12.072   0.027 -0.0596 -0.0731 -0.2664
14553W        W30737  16.918  10.784  13.800 -0.2878 -0.3285 -0.0416
14554W        W30738   2.921  14.447  15.136 -0.4463  0.0282 -0.0706
14555W        W30739   2.199   3.283   6.179  0.2325 -0.0163  0.1983
14556W        W30740  13.763  10.633  15.906 -0.1621  0.0567  0.0336
14557W        W30741   3.182   6.925  13.180 -0.0081 -0.2046 -0.0909
14558W        W30742   7.805   7.136  12.916 -0.0160 -0.0386  0.4007
14559W        W30743   3.129  14.977  15.187  0.2674 -0.2136 -0.1003
14560W        W30744  11.667   9.422   1.947  0.2211 -0.1746  0.0348
14561W        W30745   0.842  14.527  15.327 -0.1523 -0.1199  0.0152
14562W        W30746  11.596   8.637  15.168  0.1777 -0.1232  0.2233
14563W        W30747   4.882   6.570   0.169 -0.0783  0.0297  0.0329
14564W        W30748  15.066  17.301   3.444  0.0339 -0.0281 -0.0949
14565W        W30749  12.877   4.028   4.826 -0.0304 -0.0098  0.0467
14566W        W30750   9.766   2.290   4.958 -0.3598 -0.4454  0.0289
14567W        W30751   8.412   0.184   2.247 -0.2202 -0.0554  0.1811
14568W        W30752   5.984  15.725  16.550  0.1115  0.0099 -0.2182
14569W        W30753  12.870   9.640   5.695 -0.0131  0.1571 -0.2166
14570W        W30754   7.700   3.203   2.796 -0.0403  0.1165  0.2607
14571W        W30755  10.457   1.567  14.069 -0.1872  0.1324  0.0291
14572W        W30756  11.238  11.268   0.138 -0.0820  0.0473 -0.1826
14573W        W30757   7.734  12.126  13.668  0.1361 -0.1009 -0.2696
14574W        W30758   9.047  17.207  14.365  0.3484  0.0193  0.1586
14575W        W30759   1.622  12.818   1.083  0.2011 -0.2032 -0.0249
14576W        W30760  12.888  10.092  15.090 -0.0299 -0.0435 -0.0663
14577W        W30761   4.926   6.738   3.768 -0.4543  0.0158  0.1351
14578W        W30762  15.295  11.988  15.643 -0.0420  0.1472 -0.1624
14579W        W30763   8.309   9.571  14.612 -0.0307 -0.2418  0.0162
14580W        W30764   6.837  16.025   4.224  0.0775 -0.1177  0.0793
14581W        W30765   1.572  15.394  11.535  0.1235 -0.1631 -0.3523
14582W        W30766  13.022   7.248  14.675  0.1600  0.1350 -0.2151
14583W        W30767   7.908   1.528  12.847 -0.0309  0.1701  0.0428
14584W        W30768   4.343  14.748   0.542  0.0411  0.1131 -0.2432
14585W        W30769  10.993  10.750  15.744  0.1007  0.2622 -0.0550
14586W        W30770   2.927   0.887   2.958  0.2510 -0.0507 -0.1096
14587W        W30771   0.382  16.583   0.819  0.0586 -0.1242 -0.2056
14588W        W30772   5.945  17.570   2.737  0.0633 -0.4133  0.1709
14589W        W30773   1.406   7.025  16.818  0.1533 -0.2457 -0.0480
14590W        W30774  14.796   8.932   3.659  0.3452  0.0505 -0.0934
14591W        W30775   4.308   9.515  15.177 -0.1547  0.0364 -0.2052
14592W        W30776  12.864   8.108   4.996  0.2199  0.0820  0.3517
14593W        W30777   7.029  12.035  16.507 -0.0682  0.3297  0.1837
14594W        W30778   7.206   5.960  14.482 -0.0861  0.1750  0.3100
14595W        W30779  13.177   3.728  15.570 -0.0528  0.2371  0.3884
14596W        W30780   5.359  16.475   4.192  0.1756 -0.0540 -0.0261
14597W        W30781   6.014   9.547  12.133 -0.4169  0.0104  0.0642
14598W        W30782   5.313   5.847  12.869  0.1428 -0.0699  0.0832
14599W        W30783   9.819   6.916  16.132 -0.0986 -0.0634  0.1402
14600W        W30784  15.446   3.569  13.700  0.0977 -0.2245 -0.1993
14601W        W30785   3.645   5.207  13.537  0.0712  0.3462  0.0264
14602W        W30786   0.663   7.174   5.843 -0.0128 -0.3269  0.1222
14603W        W30787  12.471   3.768   3.137 -0.1773 -0.1341 -0.1102
14604W        W30788   7.583  17.428   0.486 -0.3806 -0.0107 -0.1365
14605W        W30789   8.438  14.623  13.295  0.2034 -0.1264 -0.0682
14606W        W30790  11.986   4.039   5.470  0.3352  0.2209  0.0621
14607W        W30791  15.835   1.223   5.102  0.0032  0.2603  0.0349
14608W        W30792  10.187   6.722   3.272 -0.0831 -0.0051  0.3003
14609W        W30793  15.388   4.788  14.936  0.0589 -0.1552  0.0446
14610W        W30794   5.537   6.074   3.602  0.1379  0.1057  0.0664
14611W        W30795  12.493  14.590   4.019 -0.4777 -0.1484 -0.1120
14612W        W30796   5.260  12.409  15.225 -0.3662 -0.1351 -0.2328
14613W        W30797  15.716   0.558   1.861 -0.1865  0.1983  0.0131
14614W        W30798  10.245   9.424   0.490 -0.0277 -0.2172 -0.1856
14615W        W30799  10.040  12.756  14.522  0.1402 -0.2005 -0.1359
14616W        W30800  12.786   6.393  13.308 -0.5373  0.0933 -0.1276
14617W        W30801   8.595  11.159  11.493  0.1525  0.2475 -0.0704
14618W        W30802   9.412   7.881  13.921 -0.1437 -0.0292 -0.0146
14619W        W30803   1.616   7.658   2.625 -0.0590  0.2465 -0.0098
14620W        W30804  10.371  17.588  12.155  0.0385  0.0837  0.0341
14621W        W30805   7.561   1.851   0.454 -0.0783  0.1932 -0.4507
14622W        W30806  15.082   3.382   4.001  0.1937  0.1225  0.1696
14623W        W30807  16.393   0.403   6.021 -0.3225  0.0323 -0.1697
14624W        W30808   3.076  16.003  15.509 -0.1894 -0.3531 -0.0235
14625W        W30809   3.799  17.241  16.906 -0.3378  0.0633 -0.1074
14626W        W30810   8.990   5.234  12.334  0.0168  0.1043 -0.2169
14627W        W30811   1.026   9.482   1.653  0.0578  0.1232  0.0904
14628W        W30812   4.850  12.406  14.927 -0.1250 -0.0225  0.0955
14629W        W30813  15.549   9.511  12.212 -0.1365  0.3088 -0.1038
14630W        W30814   9.386  16.421  16.895  0.0962 -0.0589  0.4092
14631W        W30815   4.189  13.317  12.574 -0.2780 -0.1488  0.2046
14632W        W30816  14.582  13.758  16.068  0.1373 -0.2987 -0.1564
14633W        W30817  14.741  15.282   2.813  0.1222  0.0506  0.2772
14634W        W30818  12.328   6.995  11.681 -0.1086 -0.1268 -0.1121
14635W        W30819  16.636   5.454  15.149  0.1928 -0.4704  0.2256
14636W        W30820  12.531  16.111   5.370 -0.0997  0.1034  0.2495
14637W        W30821  13.433   3.325   0.354 -0.0564 -0.1407 -0.1726
14638W        W30822   7.696  10.153   2.098  0.0691 -0.3921  0.0218
14639W        W30823   8.220  12.324   4.159 -0.0117  0.0052 -0.0189
14640W        W30824  17.770  11.092   1.981  0.3604  0.0270  0.1694
14641W        W30825   1.632   8.723   3.992  0.1168 -0.1498  0.2296
14642W        W30826   5.363   4.785  13.870 -0.0219 -0.0563  0.1499
14643W        W30827   8.528   4.958   6.134  0.1701 -0.1722  0.4009
14644W        W30828   7.951  16.037  12.361  0.2766  0.0700 -0.4731
14645W        W30829  10.301  17.376  15.216 -0.0651  0.3932  0.0917
14646W        W30830   6.401   4.493  15.069 -0.0213  0.0124 -0.4006
14647W        W30831   1.865  14.897  16.237  0.0356  0.1929  0.1943
14648W        W30832   6.586   0.338   3.103 -0.0643 -0.1941  0.0942
14649W        W30833   4.559   1.216   2.806  0.3460 -0.4414  0.1060
14650W        W30834  14.192   6.531  11.894  0.2929  0.0223 -0.2523
14651W        W30835  13.536  11.171  13.908 -0.4214 -0.0171 -0.2374
14652W        W30836   4.923  17.432   6.082 -0.3074  0.1040 -0.0235
14653W        W30837  17.797  17.798   2.438 -0.3044  0.2283  0.0336
14654W        W30838   4.840  17.555   0.105 -0.0032 -0.2356  0.3161
14655W        W30839  13.716   1.323   0.332 -0.0157 -0.1394 -0.1007
14656W        W30840  11.999   7.445   6.580  0.2013  0.1142 -0.0796
14657W        W30841   9.949  13.342   1.287 -0.2604 -0.0195  0.0130
14658W        W30842   3.070   2.661  14.139  0.0804  0.1112 -0.0843
14659W        W30843   0.308   3.250   0.800  0.0928  0.0685  0.0265
14660W        W30844  16.309  12.382   4.043  0.0032  0.4677  0.2129
14661W        W30845   5.197  10.083   3.569 -0.2750  0.1202  0.3131
14662W        W30846   4.555  13.251  15.350 -0.1965  0.1557  0.5517
14663W        W30847  17.296   3.993  12.393  0.0594  0.2842  0.1284
14664W        W30848  17.204   6.558   2.164 -0.1038 -0.0219 -0.2260
14665W        W30849   6.285   0.508  13.564  0.2030  0.2068 -0.1470
14666W        W30850  16.975   0.311  15.550 -0.2791  0.2524 -0.0192
14667W        W30851   0.327   8.775   1.096  0.0159  0.0633 -0.0897
14668W        W30852  12.294  16.992  12.119  0.0005  0.3218 -0.0228
14669W        W30853  14.218   6.559   3.515  0.2555 -0.3637 -0.0555
14670W        W30854  12.578   8.609   4.348 -0.3730  0.0299 -0.0941
14671W        W30855   5.084  16.105  13.350  0.0902  0.0419  0.0111
14672W        W30856  11.335   4.744   1.380 -0.1457  0.0193  0.2535
14673W        W30857  14.338   6.783   1.110 -0.0343 -0.0993  0.2096
14674W        W30858  15.834  12.092   4.175  0.2357 -0.1422  0.0152
14675W        W30859   4.856   2.485   2.760  0.0348 -0.3899 -0.0249
14676W        W30860   2.822  16.329  15.204  0.0873 -0.3763  0.2499
14677W        W30861  15.690  11.656   3.713 -0.1559 -0.1222  0.0727
14678W        W30862  10.505  12.296   2.083  0.2005 -0.1154  0.0529
14679W        W30863  14.663   3.229  16.261  0.1922  0.1304  0.1342
14680W        W30864   1.331  17.073  16.249  0.0825  0.0790 -0.0878
14681W        W30865  14.738   7.858   0.937 -0.2288  0.3838 -0.0991
14682W        W30866  12.381   2.291   2.063 -0.2140  0.0709  0.0674
14683W        W30867   7.844   1.959   0.845  0.2300 -0.1986 -0.0459
14684W        W30868   3.968   3.778  12.216  0.2035  0.1448 -0.1727
14685W        W30869   8.980  10.520  16.105 -0.1760 -0.0663 -0.4156
14686W        W30870  11.368   7.288   1.036  0.4586  0.1714 -0.0315
14687W        W30871  14.438   6.052  16.871  0.0752 -0.1562 -0.0786
14688W        W30872  13.920   0.730  14.550 -0.2142 -0.2547 -0.0939
14689W        W30873   0.044   0.155  15.904  0.2645  0.2656  0.1561
14690W        W30874  17.102   4.082   4.175 -0.0397  0.3111 -0.0434
14691W        W30875   6.951   7.330  14.185  0.0086  0.0875 -0.1795
14692W        W30876  16.656  16.828   4.264  0.3004  0.2066  0.1446
14693W        W30877  17.383   2.365   1.800  0.1312  0.2968 -0.1299
14694W        W30878   1.870   5.718  12.793 -0.1286  0.1406 -0.0650
14695W        W30879  10.541   1.489   0.154 -0.0109  0.2816  0.2994
14696W        W30880   3.167   9.543  12.282 -0.1373  0.1876 -0.0698
14697W        W30881  11.095  13.560   5.112  0.0908 -0.1444 -0.0872
14698W        W30882   4.369   5.056   1.793  0.1073 -0.1061 -0.0313
14699W        W30883  11.395  10.459  12.496 -0.1834 -0.3770 -0.0664
14700W        W30884   3.203   2.537  16.206 -0.1431 -0.0752 -0.0689
14701W        W30885   9.096  11.365   3.506 -0.0033 -0.2301  0.0157
14702W        W30886  10.538   8.465   2.837  0.0779 -0.0290 -0.1109
14703W        W30887   8.296   0.682  12.738  0.1094  0.1118 -0.0053
14704W        W30888  12.626  10.019   0.697  0.0900  0.2805  0.1281
14705W        W30889  17.438  10.819  16.918 -0.1074 -0.2056  0.2440
14706W        W30890  12.005   9.658  15.942 -0.2127 -0.2269 -0.1203
14707W        W30891  10.339   8.561   5.628  0.0832  0.0635  0.0094
14708W        W30892  16.119  16.160   4.843  0.1013  0.2301 -0.0658
14709W        W30893   4.881   0.451   5.072  0.1153  0.0336  0.0149
14710W        W30894  17.596   9.387   4.703 -0.1404  0.1711  0.0840
14711W        W30895  13.170  13.037   0.768 -0.1439  0.0265 -0.2440
14712W        W30896   2.728   0.498  12.738  0.1449 -0.3053  0.2938
14713W        W30897   3.592  15.128  14.429  0.0896  0.1320 -0.0578
14714W        W30898   1.964   7.628  16.477  0.1082 -0.2412  0.0700
14715W        W30899  13.347   5.169  14.182  0.1205  0.1994 -0.2106
14716W        W30900  10.335  12.164   2.807 -0.0192  0.0693  0.3202
14717W        W30901   9.306   5.021  13.677  0.1236 -0.0182 -0.1655
14718W        W30902  11.603   3.302   1.445 -0.0514 -0.1289  0.3287
14719W        W30903   5.093   1.488  14.915  0.3446 -0.2095  0.2039
14720W        W30904   9.747   9.551  16.357 -0.1452 -0.2047 -0.1450
14721W        W30905   1.913  10.464  15.994  0.0311 -0.0985 -0.2436
14722W        W30906  15.849  17.493  15.141  0.0260 -0.3320 -0.0881
14723W        W30907   6.473  17.063  11.973  0.1914 -0.0661 -0.0136
14724W        W30908   3.227  14.422  14.724 -0.1958  0.1766  0.3155
14725W        W30909  13.735   3.272  13.213 -0.2631 -0.0340 -0.0976
14726W        W30910  12.017   9.669   2.724 -0.1622  0.1343  0.3209
14727W        W30911   5.846   9.045   1.833 -0.0140  0.3826  0.1654
14728W        W30912   3.973   1.444  14.789 -0.1266 -0.1378 -0.0053
14729W        W30913  12.110   1.977  16.304 -0.0153  0.0451  0.0313
14730W        W30914  14.114   2.624  16.145 -0.0469  0.1181  0.0373
14731W        W30915  10.810  17.821   1.578  0.4015  0.0826  0.1039
14732W        W30916   2.797  12.081   0.557  0.1764 -0.1434  0.0282
14733W        W30917  13.970  10.713   6.337  0.0503 -0.0122  0.0205
14734W        W30918   5.144  17.022   1.657 -0.1082 -0.2344 -0.0235
14735W        W30919  15.153  13.634   4.118  0.0557 -0.1256  0.0598
14736W        W30920   3.519  16.420   2.825 -0.0466  0.1287 -0.0435
14737W        W30921   6.094  14.901  12.157 -0.1979  0.2757 -0.1384
14738W        W30922  11.676  10.969   1.311 -0.1763 -0.0105  0.1675
14739W        W30923   1.299  17.562  16.467  0.0462 -0.1313  0.2735
14740W        W30924   9.229  12.875  11.500 -0.2419  0.1566  0.1425
14741W        W30925   9.678   9.585  12.567  0.1998 -0.2076 -0.1041
14742W        W30926  12.867   6.226   1.756 -0.0893 -0.0601  0.3363
14743W        W30927  13.321   9.596  12.451  0.0122 -0.1200 -0.0189
14744W        W30928  14.187  15.857   5.308  0.0588  0.0072 -0.1197
14745W        W30929   6.871   4.725   2.283 -0.3006  0.0749 -0.0726
14746W        W30930  11.758  10.050  16.776 -0.1998 -0.0103 -0.0912
14747W        W30931   3.721  10.741  11.253 -0.1037  0.4042 -0.3543
14748W        W30932  17.143   3.908   2.249  0.0967  0.1156  0.4485
14749W        W30933  12.184   5.742   5.070 -0.0594 -0.2121  0.2354
14750W        W30934  11.209  14.556   3.838 -0.1583  0.0835  0.0590
14751W        W30935   4.188   3.545  16.109 -0.1258  0.0419 -0.3846
14752W        W30936  10.124  16.872  12.751 -0.2601 -0.2469 -0.1027
14753W        W30937   1.250   8.235   5.647  0.2029 -0.1199 -0.2022
14754W        W30938  10.708  17.792  12.479 -0.0429 -0.1261 -0.0455
14755W        W30939   1.485   2.615  12.651  0.0120  0.1697 -0.1952
14756W        W30940  15.338  11.316  13.039 -0.0527  0.1401 -0.1609
14757W        W30941   9.837  15.686   2.163  0.1636  0.2197  0.0058
14758W        W30942   1.268   7.067  13.512 -0.1741  0.1258 -0.1299
14759W        W30943  15.929   8.213  13.828 -0.0221 -0.1554  0.2777
14760W        W30944   6.117   4.566  14.608 -0.0522 -0.5613  0.1615
14761W        W30945   9.318   3.448   1.669  0.0540 -0.1424 -0.2507
14762W        W30946  11.781  12.989   1.172  0.0945  0.2511 -0.1220
14763W        W30947  11.256  11.371  15.414 -0.0643  0.0532  0.2045
14764W        W30948   1.822  15.303  12.025 -0.2351  0.0471 -0.1992
14765W        W30949  16.126   7.753  14.633 -0.0576  0.0318 -0.0035
14766W        W30950   5.846   9.558   5.513  0.0363 -0.3029 -0.1204
14767W        W30951   2.070  12.462  16.577 -0.0354 -0.1096  0.3106
14768W        W30952   4.422   0.773  12.499 -0.2426 -0.2690  0.1475
14769W        W30953  12.237  10.246  16.740 -0.0994  0.2827  0.0083
14770W        W30954   7.698   3.150  13.467  0.0407  0.1522 -0.1548
14771W        W30955  12.511   6.664   0.792 -0.0510  0.0188  0.3188
14772W        W30956   4.496   8.163   2.348 -0.0149 -0.2847 -0.1932
14773W        W30957  12.880  17.076  11.807  0.1085 -0.0198  0.0358
14774W        W30958  14.521   8.074   0.439 -0.0847  0.2531  0.2115
14775W        W30959   9.353   4.428   1.959  0.0458 -0.2450  0.1672
14776W        W30960   0.452   6.774   5.631  0.1883 -0.3369  0.1654
14777W        W30961   1.190  14.636   2.645  0.1831  0.2022  0.1561
14778W        W30962  12.129  10.026   3.180 -0.0618  0.2609 -0.2065
14779W        W30963   5.923  14.862   3.804  0.1926 -0.0417  0.1225
14780W        W30964  17.284   6.489  16.702  0.0201  0.0117 -0.2784
14781W        W30965   0.390   5.939   2.158  0.2408  0.1906  0.0640
14782W        W30966  11.619   2.669   5.264 -0.5138 -0.0930 -0.0130
14783W        W30967  14.983  13.845   2.182 -0.5344 -0.0119  0.1077
14784W        W30968  13.238  15.274   2.394  0.2274 -0.0773 -0.4829
14785W        W30969   1.102  15.865   6.399  0.2444 -0.0595 -0.0949
14786W        W30970   0.333  12.180  14.436 -0.0315  0.3865  0.0865
14787W        W30971  17.602   3.975  16.591 -0.1313  0.0014  0.0370
14788W        W30972   1.425   3.965   3.435  0.0515 -0.1155  0.1844
14789W        W30973  16.633   9.306  14.022 -0.0325  0.0025  0.0195
14790W        W30974   2.835   9.496   3.940 -0.0803 -0.1530  0.0494
14791W        W30975  15.703  17.000  15.046 -0.2107  0.1464  0.1462
14792W        W30976   8.472  15.784   6.067  0.1526  0.1703 -0.0333
14793W        W30977   8.535   5.363  12.198  0.2113  0.0327  0.2369
14794W        W30978  14.224   4.884   1.528 -0.0066  0.5151  0.0669
14795W        W30979   4.025   6.745   0.717  0.2764  0.0474  0.1224
14796W        W30980  17.205  13.998   2.057  0.0822  0.1929 -0.0305
14797W        W30981  10.603  16.906   5.235 -0.0274  0.2492 -0.0796
14798W        W30982   1.187  13.313   5.849  0.4230 -0.1438  0.1316
14799W        W30983   5.957   1.599   2.144  0.1006 -0.2051 -0.1120
14800W        W30984  17.468   5.705   2.583  0.2278  0.0057 -0.2565
14801W        W30985  12.959  13.005   2.168  0.0889  0.5815  0.0259
14802W        W30986  17.564   4.127  14.000  0.1215 -0.0565 -0.2493
14803W        W30987   8.373  10.959   3.826  0.2084  0.0136  0.0289
14804W        W30988  11.976  10.402   2.164  0.3076  0.2627  0.1700
14805W        W30989  13.057   1.784  15.877 -0.0155 -0.2172  0.0070
14806W        W30990  13.174  13.862   2.566  0.2680  0.0860 -0.1463
14807W        W30991   9.101   7.248   0.478  0.0333  0.2731  0.1685
14808W        W30992   6.914   8.618  14.761 -0.0050 -0.0792  0.1503
14809W        W30993  13.731  13.701   3.445  0.2728 -0.3721  0.0964
14810W        W30994  15.466   8.280  15.835 -0.3461 -0.0637  0.1243
14811W        W30995  17.511  10.311  16.175 -0.0114  0.0688  0.0824
14812W        W30996   6.414   1.964   3.647  0.1903 -0.0538 -0.1497
14813W        W30997   1.727  14.840   3.793 -0.2427 -0.2492 -0.2187
14814W        W30998   9.846  11.857   3.965 -0.0552  0.1307 -0.0944
14815W        W30999  15.605  11.948   2.605  0.0321 -0.2309  0.0423
14816W        W31000   9.177   6.767   2.618 -0.0054  0.2729 -0.1333
14817W        W31001  12.209  14.321  12.570 -0.0291  0.0688  0.0118
14818W        W31002   7.806   1.063  14.553 -0.1676  0.1798 -0.2754
14819W        W31003   1.500   9.224   0.154 -0.0205  0.0651 -0.0828
14820W        W31004   6.497   7.245  13.518 -0.0406  0.0238 -0.0831
14821W        W31005   6.348  13.105  11.811  0.1098 -0.2669  0.1653
14822W        W31006   8.950   2.940  11.516  0.3164 -0.0903 -0.0382
14823W        W31007  15.389  17.783   0.910  0.0652  0.0075 -0.2357
14824W        W31008   0.772   4.978  12.629 -0.0204 -0.2545 -0.1191
14825W        W31009   2.001   9.474   4.649  0.1332 -0.0108 -0.2005
14826W        W31010  15.245   9.798   2.913 -0.1184  0.0621 -0.2227
14827W        W31011   2.020   4.981  14.242 -0.0407  0.0416  0.0747
14828W        W31012   7.545   3.259  14.633  0.2053  0.1229 -0.0674
14829W        W31013  11.011   5.614   2.098 -0.0631  0.1454 -0.2835
14830W        W31014   6.104   2.387  13.389 -0.2324 -0.0840 -0.0860
14831W        W31015  17.238   7.316   0.005  0.0129  0.0563 -0.0350
14832W        W31016   5.843   6.521  16.473  0.0379  0.0433 -0.2551
14833W        W31017   5.114   6.822  13.980  0.0674 -0.1047  0.1210
14834W        W31018   0.357   4.047  15.726 -0.1590 -0.0018 -0.0848
14835W        W31019   3.331  14.141  11.691  0.1795 -0.1210  0.2409
14836W        W31020   5.574   4.102   4.170  0.1047 -0.0169  0.0152
14837W        W31021  14.236  10.358   1.422 -0.1283  0.2121  0.2516
14838W        W31022   7.119  17.589  11.430  0.1451 -0.1782 -0.0158
14839W        W31023   6.590  11.076  14.306 -0.0666 -0.0730  0.0448
14840W        W31024   5.627  10.138   1.794  0.3195 -0.8316  0.0251
14841W        W31025  15.049  10.102  11.737  0.0601 -0.0162 -0.0602
14842W        W31026   0.378   9.477  16.744 -0.2262  0.1227  0.2759
14843W        W31027   0.103   9.593   1.782  0.2840 -0.0728 -0.1131
14844W        W31028  11.737  13.622  16.378 -0.0300 -0.0431 -0.1957
14845W        W31029  17.601  16.111   3.646 -0.0939  0.1386  0.0236
14846W        W31030   5.379  16.526  12.439  0.2193 -0.3590 -0.0886
14847W        W31031   9.940  16.970  16.830 -0.1818  0.3807  0.2256
14848W        W31032  12.073   3.458   1.387  0.1936  0.1909 -0.1309
14849W        W31033   8.568   3.195   4.789  0.0051  0.0261  0.1541
14850W        W31034   9.146   0.537  12.304 -0.0110  0.2301 -0.1072
14851W        W31035  15.613   9.235  13.907 -0.1345  0.0297 -0.0477
14852W        W31036   3.215  10.456  14.596 -0.1960  0.1238  0.0652
14853W        W31037  10.384   0.229  15.569  0.0586 -0.0826  0.3189
14854W        W31038  13.157  11.062  15.219  0.2190 -0.0317 -0.1162
14855W        W31039  16.518   3.878   2.589  0.0394 -0.4122 -0.1294
14856W        W31040   7.841   8.456  13.789  0.1027  0.0246 -0.4464
14857W        W31041  13.215   4.952   4.938  0.0123  0.2330  0.1335
14858W        W31042   6.355  12.985  15.991  0.1576 -0.0551 -0.1207
14859W        W31043   4.686   4.065  14.245  0.0833 -0.2008  0.0911
14860W        W31044   9.868   2.813  11.578  0.2032  0.0536 -0.0399
14861W        W31045   2.140  17.536   5.097 -0.0731  0.1426  0.2108
14862W        W31046  14.723   3.375   0.670 -0.2454  0.2795 -0.0094
14863W        W31047   5.775  15.533   5.821  0.2328  0.0298 -0.0726
14864W        W31048   7.479   9.800   4.915 -0.0150  0.0199 -0.0432
14865W        W31049   6.042  16.678  15.048  0.0841 -0.0651 -0.1750
14866W        W31050   0.103   5.783  12.505 -0.2228 -0.0230  0.3146
14867W        W31051  15.697  13.370  16.818 -0.1425  0.1380  0.0803
14868W        W31052   8.283   0.622   0.090 -0.0038 -0.1712 -0.0776
14869W        W31053   0.817  12.796   3.915  0.1039  0.0636 -0.0391
14870W        W31054   2.255   6.274  12.088 -0.0919 -0.2171 -0.0780
14871W        W31055  16.849   1.814  14.303 -0.0428  0.1280 -0.0384
14872W        W31056  12.200   2.494   3.465 -0.0605  0.0175  0.0114
14873W        W31057  11.979   6.664  12.578 -0.1541 -0.1007  0.0330
14874W        W31058   5.125   4.299  12.188 -0.2849 -0.0566 -0.2386
14875W        W31059  14.130  10.539   5.408 -0.2153  0.0875  0.0445
14876W        W31060   4.533  10.661   1.307  0.2939  0.0447  0.4043
14877W        W31061  10.540   6.005  16.845 -0.0713 -0.1766 -0.1710
14878W        W31062   7.870  15.138  14.170  0.0282  0.0786  0.0651
14879W        W31063   0.203  13.439   3.544 -0.2014  0.0387 -0.2365
14880W        W31064  11.234  16.016  16.866 -0.1072  0.2653  0.0063
14881W        W31065  16.046  15.136  13.306  0.0905 -0.2235 -0.1379
14882W        W31066  17.225  10.430   1.287  0.0161 -0.0281  0.1475
14883W        W31067  17.364  11.007  15.486 -0.2160  0.2607  0.1132
14884W        W31068  10.499   6.825  16.277  0.0432  0.0594  0.1192
14885W        W31069  11.272   5.377  16.634 -0.0452  0.2100  0.0619
14886W        W31070   6.712   6.763   3.608 -0.1159 -0.1895 -0.0660
14887W        W31071  16.100  14.270  13.923 -0.0055 -0.0048 -0.0651
14888W        W31072  11.040  12.485  15.540  0.2143 -0.0019  0.1007
14889W        W31073  15.740  12.324  16.846  0.2030  0.1631 -0.2264
14890W        W31074  17.093   4.393   2.571 -0.1352 -0.0545 -0.0628
14891W        W31075   3.293  15.513   2.658  0.0753  0.0530  0.2367
14892W        W31076  15.590   8.283  15.197  0.0326  0.0563  0.0441
14893W        W31077  10.450   3.072   5.747 -0.0988 -0.3119 -0.0366
14894W        W31078   2.605   4.750   3.816 -0.2201 -0.1765 -0.0861
14895W        W31079  10.517   5.011  14.557 -0.1998  0.2535 -0.1129
14896W        W31080  10.638  11.991   1.671 -0.0074 -0.2442 -0.0257
14897W        W31081   8.242   6.028  13.590 -0.3753 -0.0130 -0.2669
14898W        W31082   5.206  14.297   5.632  0.0539  0.0726  0.0889
14899W        W31083  12.294   4.922   1.225 -0.1434 -0.2973 -0.1272
14900W        W31084  14.535  12.731  11.579  0.3512  0.2424 -0.0986
14901W        W31085   6.765   6.011   1.193  0.0884 -0.2284  0.0917
14902W        W31086  12.201   9.000   3.534  0.1282  0.1591  0.3394
14903W        W31087   7.905   3.623  12.644  0.5144 -0.0774  0.2200
14904W        W31088  15.421   3.971   2.452  0.0075  0.0651  0.1667
14905W        W31089  14.676   9.849  12.978 -0.0711 -0.1941 -0.2589
14906W        W31090   0.487  15.150   3.747 -0.2387  0.0085  0.0060
14907W        W31091  16.427   1.852   1.475 -0.1388  0.0786  0.1609
14908W        W31092  14.868   0.099   3.157 -0.2893  0.2367  0.2504
14909W        W31093   4.925  11.810   1.924 -0.1188  0.1533 -0.0196
14910W        W31094  16.831  16.263   5.264  0.2391  0.2625 -0.0358
14911W        W31095  10.909   5.920  14.824 -0.0684 -0.1506  0.2462
14912W        W31096  12.830   2.989  16.580  0.0542  0.0585 -0.1147
14913W        W31097   0.284   4.676  16.454 -0.0615 -0.1450  0.1897
14914W        W31098  11.351   0.996   3.800 -0.0009 -0.1264 -0.4494
14915W        W31099   4.113  13.781  16.425 -0.0466 -0.0152 -0.0191
14916W        W31100   3.135   4.508   4.603 -0.0720 -0.2108 -0.1607
14917W        W31101   8.090  16.958  12.244 -0.0193 -0.5154 -0.2155
14918W        W31102   4.964  13.710  13.793 -0.0818  0.2131  0.1053
14919W        W31103   2.912   5.282   4.271  0.0162 -0.1268 -0.0847
14920W        W31104   9.826   9.851  15.221  0.2671  0.2041  0.0526
14921W        W31105  14.578  11.254   6.046  0.2242  0.0242 -0.1875
14922W        W31106  12.901  14.064  11.481  0.1373  0.0328  0.2420
14923W        W31107   4.196   7.557   5.721 -0.0827 -0.1910 -0.1486
14924W        W31108  14.508  15.245   4.172 -0.1805 -0.2101  0.1636
14925W        W31109   6.701  10.381  16.443  0.3578 -0.0364 -0.1235
14926W        W31110  11.292  13.871  14.594 -0.1427  0.4866 -0.3352
14927W        W31111   9.589   0.211  11.840 -0.2765  0.0938  0.4629
14928W        W31112  15.228  11.151  16.872  0.0584  0.5415 -0.3062
14929W        W31113   7.145  12.840  13.865  0.2523  0.1670  0.0916
14930W        W31114   6.373   5.040  11.798  0.2124  0.0428  0.1404
14931W        W31115  12.510   2.850   2.706  0.2034  0.2712 -0.3110
14932W        W31116   9.912  10.413  14.197  0.0875  0.1545 -0.0629
14933W        W31117   1.580  13.028  13.108 -0.2449  0.1112  0.2746
14934W        W31118   0.543  13.209  15.359  0.1130  0.0388  0.1555
14935W        W31119   2.249  16.943  11.904  0.1135  0.2882 -0.0157
14936W        W31120  11.619  12.763  15.922  0.0186 -0.1907  0.0873
14937W        W31121  17.339   5.394   2.217 -0.0822 -0.0080  0.2601
14938W        W31122  15.009  13.692   4.819  0.2252  0.2920 -0.1484
14939W        W31123  10.692  10.178  14.435 -0.0311  0.2184 -0.0794
14940W        W31124   6.031   8.229   0.826 -0.0679  0.0787 -0.0872
14941W        W31125  14.586  13.910  11.746  0.1066 -0.0947  0.2477
14942W        W31126   5.809   3.632   3.996 -0.0660 -0.2672  0.0347
14943W        W31127  15.580   2.547   0.157  0.0280 -0.0377  0.1106
14944W        W31128   2.126  10.001  11.882 -0.1010  0.0483 -0.0494
14945W        W31129  10.076   3.867  12.738  0.1678  0.0943  0.0497
14946W        W31130  11.286  16.953  14.835  0.1393 -0.2512  0.0693
14947W        W31131   0.131   4.509   1.013 -0.3015 -0.0196  0.0536
14948W        W31132  10.430   4.929  11.582 -0.0413 -0.0151  0.1577
14949W        W31133   8.528   2.977  16.570 -0.1623  0.1362  0.2511
14950W        W31134   6.828  12.625   1.541 -0.0337  0.3286 -0.0287
14951W        W31135   9.177   6.006  16.914 -0.0241  0.0039 -0.0831
14952W        W31136   4.316   5.648   4.445 -0.0453  0.0237  0.0550
14953W        W31137  11.434   6.466  14.028 -0.0016  0.2368  0.0373
14954W        W31138  16.094   9.907  15.391  0.0773 -0.0731  0.3762
14955W        W31139  11.390  16.888   2.126 -0.2193 -0.0132 -0.1323
14956W        W31140   7.156   7.465   6.240 -0.0590 -0.1960  0.1339
14957W        W31141   9.873  16.771  11.877 -0.1744  0.0079 -0.0921
14958W        W31142   2.206   9.773  14.844 -0.0014  0.0968  0.0665
14959W        W31143  16.363   9.460   0.369  0.1674  0.0535  0.4795
14960W        W31144  16.263  14.544   1.966 -0.2168 -0.1896  0.0968
14961W        W31145  15.381  11.050  15.087 -0.2373  0.1182 -0.3119
14962W        W31146  16.165  13.623  15.474 -0.1509  0.3109 -0.3248
14963W        W31147   2.556   6.933   5.825  0.2059  0.0267 -0.0025
14964W        W31148   9.275   7.005   1.604 -0.0872 -0.1050  0.0702
14965W        W31149   8.050   0.405   2.031 -0.0296 -0.1777 -0.0913
14966W        W31150   2.426   7.513   5.729  0.0833 -0.2255  0.2845
14967W        W31151   8.415   2.565   1.585  0.2772  0.0995 -0.2881
14968W        W31152  14.631   8.328  13.359  0.0670  0.2587  0.3903
14969W        W31153   9.742  17.661  12.878 -0.1958 -0.1812  0.0236
14970W        W31154  12.852  10.551  14.353 -0.3417 -0.2384  0.0581
14971W        W31155   8.860  12.196   4.996  0.1464  0.0249 -0.2311
14972W        W31156  10.551  13.802   2.894  0.0890  0.0972  0.1601
14973W        W31157  15.390   7.092  12.380 -0.3599  0.1284 -0.3053
14974W        W31158   5.717   2.957   6.131 -0.0906  0.1590  0.0721
14975W        W31159  16.560   7.865   2.150  0.0672 -0.0263 -0.0658
14976W        W31160   6.407  12.233  13.648  0.5503 -0.2456 -0.0205
14977W        W31161   6.894   7.904   0.757  0.0923 -0.1315  0.0663
14978W        W31162   2.612   8.005   0.682 -0.1320 -0.0663 -0.2131
14979W        W31163   6.295   5.991  13.864 -0.2965  0.0732  0.0236
14980W        W31164   7.741   4.141  15.034  0.0908  0.0937 -0.1839
14981W        W31165  17.389  10.841  11.789 -0.1866 -0.1543 -0.1041
14982W        W31166   2.044   0.323   3.437  0.0995  0.2353 -0.0092
14983W        W31167   5.014  11.381   4.308  0.4417  0.0876 -0.1499
14984W        W31168   1.057   0.726   6.283  0.0279 -0.2196  0.1352
14985W        W31169  17.675   8.711  15.886 -0.0093 -0.1940 -0.2242
14986W        W31170   1.476  14.238   4.788 -0.2353  0.0400  0.0514
14987W        W31171  10.464  16.061  12.328  0.1503  0.0902 -0.0987
14988W        W31172   2.921   8.020   4.409  0.2534  0.1222  0.0430
14989W        W31173   8.037   2.763   2.507 -0.1713  0.1666  0.2274
14990W        W31174   5.353  11.886   2.229  0.0740  0.0064  0.1123
14991W        W31175  12.999   9.849   3.782 -0.2238 -0.0645  0.0875
14992W        W31176   5.523  11.135   4.311 -0.0817  0.1285  0.1997
14993W        W31177   5.778  11.689  14.971 -0.0439  0.3818  0.0566
14994W        W31178   3.369   1.068  15.840  0.3211  0.0425 -0.0868
14995W        W31179  14.607   9.593  14.773 -0.1983  0.1167  0.0243
14996W        W31180   6.298   8.517   0.433  0.1298 -0.1837  0.1199
14997W        W31181   8.481   9.040   5.271  0.0183  0.1244 -0.3870
14998W        W31182   8.574  12.540  12.025  0.0383 -0.1801  0.3344
14999W        W31183  17.499   1.180  12.969 -0.0930  0.2769  0.0671
15000W        W31184  17.725  10.116   2.102 -0.1752  0.2049  0.1113
15001W        W31185   4.647   6.792   5.443  0.1522  0.1440  0.1338
15002W        W31186   0.061   5.880  13.931 -0.2833 -0.0492  0.1326
15003W        W31187   6.547  11.691   4.463 -0.1316 -0.1080  0.2576
15004W        W31188  10.337  15.970   1.071 -0.0926 -0.0115  0.2673
15005W        W31189   4.223  12.074   4.743  0.4103 -0.2163 -0.0490
15006W        W31190   3.188   4.821   3.621 -0.1059  0.2044 -0.2972
15007W        W31191  17.782  15.985  12.949 -0.1430 -0.0907  0.0394
15008W        W31192   7.686  13.153  12.472  0.1569 -0.2164  0.0762
15009W        W31193   5.298  13.908   0.058 -0.1122 -0.1955 -0.1489
15010W        W31194  17.806  12.532  11.695  0.0455 -0.1446  0.2967
15011W        W31195   9.798  16.885   5.714  0.4703  0.1422 -0.2192
15012W        W31196   4.192   4.297  14.283  0.2278  0.2825 -0.1364
15013W        W31197   1.601   1.660   0.811  0.0638  0.1141 -0.0101
15014W        W31198  13.781  16.978   3.490  0.1797  0.1497  0.0712
15015W        W31199   6.697  10.286   5.776 -0.0788 -0.1772  0.2433
15016W        W31200   5.854   0.763  13.267 -0.1693  0.2285  0.2901
15017W        W31201   6.842   7.358   3.165  0.1902  0.0223 -0.0816
15018W        W31202   8.321  11.158   1.283 -0.1825  0.1820  0.1851
15019W        W31203   6.470  10.213  14.657  0.0814  0.1247 -0.1421
15020W        W31204   3.968  16.892  12.306 -0.0991  0.1885 -0.0387
15021W        W31205   3.208   3.338  15.185 -0.3327  0.1675  0.0789
15022W        W31206  17.745   0.724  12.960 -0.2122 -0.0167 -0.2282
15023W        W31207   8.734  14.433   0.648 -0.2304  0.1243 -0.2279
15024W        W31208  16.005  13.100  11.583 -0.3270  0.1422  0.2117
15025W        W31209   0.316  12.088   3.058  0.0661 -0.2208  0.3587
15026W        W31210  16.586   2.064   4.150  0.1578 -0.3023 -0.1784
15027W        W31211   7.000  15.988   5.823 -0.0472  0.0293  0.0846
15028W        W31212   5.015   9.347   5.348 -0.0089  0.0236 -0.1670
15029W        W31213   5.233  15.246  16.310  0.1414 -0.0413  0.0121
15030W        W31214  14.415   6.122   3.657 -0.3502  0.0552 -0.1425
15031W        W31215   4.789   4.784   2.124  0.0057 -0.1507  0.0236
15032W        W31216   9.093   2.949  13.969 -0.1649 -0.1670  0.1686
15033W        W31217  17.202  16.733   3.673 -0.0997  0.1427  0.0025
15034W        W31218  14.102  12.761  11.887 -0.0376  0.0716 -0.2003
15035W        W31219   5.866   4.566   1.325 -0.0565 -0.2599 -0.0970
15036W        W31220  15.958   1.381  12.627 -0.0192 -0.1792 -0.1852
15037W        W31221   8.015   1.472   3.114 -0.2324  0.2178 -0.1207
15038W        W31222   6.811  16.289  11.501 -0.0364  0.2207 -0.4564
15039W        W31223  13.535   0.345   2.713 -0.2395 -0.0282 -0.4347
15040W        W31224  16.940  11.399   0.470  0.2270 -0.2016  0.1046
15041W        W31225   1.063   4.393  14.534 -0.0232  0.1149  0.2026
15042W        W31226   0.461  12.613  15.584 -0.0800  0.3141  0.0892
15043W        W31227   4.015  11.919   3.590 -0.0833  0.0930  0.1913
15044W        W31228   5.683   1.604  13.766  0.0833 -0.0984 -0.1993
15045W        W31229   4.642   2.208   1.954  0.3583  0.2458 -0.0601
15046W        W31230   1.232  12.049  14.629 -0.0809 -0.0250 -0.0393
15047W        W31231  16.333   2.823   2.512 -0.1000 -0.2801 -0.1947
15048W        W31232   6.396  16.717  15.435  0.1788  0.0421 -0.2661
15049W        W31233  13.395  17.207   2.532  0.0958  0.0062 -0.2464
15050W        W31234   6.135  13.454   2.503  0.2533 -0.0215  0.3623
15051W        W31235   8.196  14.471  12.297 -0.1572 -0.1259 -0.0921
15052W        W31236   8.718  14.593   3.609  0.1298  0.0886  0.0532
15053W        W31237   8.055   8.393   2.117  0.0807 -0.1207  0.1536
15054W        W31238  12.914  14.314  16.190  0.1901 -0.1111 -0.1486
15055W        W31239  15.270   9.082   1.506  0.0605 -0.2964  0.1890
15056W        W31240   4.529   0.351  13.083  0.0196  0.0478  0.1696
15057W        W31241  11.398   3.368   3.986 -0.0111 -0.0505 -0.0459
15058W        W31242  11.733  13.873  12.100  0.1497 -0.0416 -0.0399
15059W        W31243  12.255   8.514  13.657  0.1670  0.0487  0.1143
15060W        W31244   6.169  11.942   1.730 -0.0129  0.4427 -0.1973
15061W        W31245   9.796   5.214  14.356 -0.1772 -0.3034 -0.0628
15062W        W31246   5.410  10.174   4.075 -0.3505 -0.2637  0.1478
15063W        W31247   8.901  17.590  15.180  0.1182  0.0645  0.1276
15064W        W31248  13.478  12.431   3.053 -0.0273 -0.0510  0.1017
15065W        W31249  15.414  11.396  11.575  0.0730  0.1407  0.0711
15066W        W31250   9.758  11.501   5.048  0.1280  0.2402  0.0103
15067W        W31251  17.008  13.169   5.149 -0.0868 -0.0914 -0.4901
15068W        W31252   8.023   8.975   2.903  0.2007  0.0530 -0.2105
15069W        W31253   8.086  12.230   4.669 -0.0457  0.1338 -0.2372
15070W        W31254  11.107   1.151   4.212 -0.2990  0.0089 -0.0450
15071W        W31255   9.020  14.380   1.782  0.2550 -0.0912 -0.1124
15072W        W31256  17.009  10.991   3.038  0.2044  0.1153 -0.0213
15073W        W31257  15.684  10.583   0.750  0.0593 -0.1498 -0.0770
15074W        W31258   9.563   9.099  14.671  0.2504  0.3333  0.2435
15075W        W31259   6.024  15.583   3.193 -0.0169 -0.0148 -0.1881
15076W        W31260  13.060   7.083  12.796  0.2299 -0.2156 -0.1137
15077W        W31261   1.117  11.400  14.396 -0.0360 -0.0754 -0.0644
15078W        W31262   3.067  14.336  14.252 -0.0806  0.2337  0.0901
15079W        W31263   9.733  14.618   2.079  0.1485 -0.0398 -0.3676
15080W        W31264  16.634  14.872  12.383  0.1102  0.1123 -0.0018
15081W        W31265   8.178   1.740  14.865 -0.2640  0.0143 -0.1011
15082W        W31266   5.361  12.925   0.005 -0.1090 -0.0219  0.1067
15083W        W31267   9.630  13.234   2.264  0.1868 -0.0644  0.0119
15084W        W31268  16.955  17.021  16.522 -0.0286 -0.0482  0.1412
15085W        W31269  11.466   9.976  12.684  0.0393  0.0532 -0.3042
15086W        W31270  15.572  13.781   3.815 -0.0825  0.1801  0.0890
15087W        W31271   7.429  10.094   1.631 -0.1031 -0.0085  0.1392
15088W        W31272   8.134  16.720   0.374  0.1998  0.0006 -0.2719
15089W        W31273   3.954  14.154  12.706 -0.2213  0.1706 -0.2195
15090W        W31274  10.867   7.206   0.817  0.2330 -0.0126 -0.1505
15091W        W31275   4.250   3.436   0.245  0.0911  0.0226 -0.2674
15092W        W31276   1.991   2.582  12.863 -0.1284 -0.1740  0.3749
15093W        W31277   8.266  16.473   1.406  0.2812 -0.2753 -0.1957
15094W        W31278   4.305   8.236  13.234 -0.0451  0.2562  0.2438
15095W        W31279   6.183  12.989   4.920 -0.1406  0.0795 -0.1656
15096W        W31280  13.564   4.840  16.234 -0.1169  0.1275 -0.3167
15097W        W31281  12.787  14.234   0.111 -0.0404 -0.1897 -0.1924
15098W        W31282   1.130  10.261  15.228 -0.0077  0.0570 -0.0359
15099W        W31283   0.148   9.141   1.942  0.0619 -0.3305 -0.0047
15100W        W31284   2.903  10.556  11.978  0.0924 -0.3927  0.1641
15101W        W31285  11.054   6.075  15.923 -0.2642 -0.0830  0.1287
15102W        W31286   2.001   4.924  11.792 -0.1421  0.1616  0.0696
15103W        W31287  13.120   0.332   4.983  0.0180 -0.0715 -0.1630
15104W        W31288  16.005  15.675  12.722  0.1469 -0.0287 -0.0308
15105W        W31289  11.780  14.686   0.473  0.0145 -0.1006 -0.1336
15106W        W31290  13.963   8.184   0.222  0.0805 -0.1571  0.1125
15107W        W31291   6.953  15.227   1.079  0.1750  0.0423 -0.1201
15108W        W31292  13.520   2.808   2.426  0.0681  0.1374 -0.0700
15109W        W31293   5.973   9.158   2.312 -0.0457 -0.2433  0.3368
15110W        W31294   4.889   0.197   6.043  0.2015 -0.1810  0.1864
15111W        W31295  16.560   3.179  12.893  0.2236  0.0159  0.0199
15112W        W31296  11.740   4.891  16.554  0.0960 -0.0293  0.2718
15113W        W31297   2.174   3.568  16.093  0.2667  0.3338 -0.2186
15114W        W31298   4.806   5.676  14.097  0.0469 -0.2092 -0.1070
15115W        W31299   4.222   2.172  13.173  0.0356  0.1911  0.0501
15116W        W31300   2.203  17.787   2.195 -0.0621  0.2065  0.0838
15117W        W31301   5.567   1.615   5.448  0.0059  0.3256 -0.0205
15118W        W31302   6.536  12.058  12.226 -0.2062  0.0893 -0.4615
15119W        W31303  12.015   6.746   1.106 -0.1091  0.0265 -0.2106
15120W        W31304   2.400  15.572  11.208  0.2619  0.1013 -0.0071
15121W        W31305   7.441   1.963   5.579  0.0735 -0.2159  0.5524
15122W        W31306   4.691   1.224  12.430  0.3977  0.1894  0.0421
15123W        W31307  10.183  14.153  16.292  0.0601 -0.0727  0.0878
15124W        W31308   1.303  14.173  11.918 -0.1573 -0.2112 -0.0862
15125W        W31309  15.439  13.284   0.894  0.1724  0.1548  0.0064
15126W        W31310  13.111   2.710   3.330 -0.0796 -0.1286 -0.2398
15127W        W31311   3.257  11.446  16.767 -0.0932  0.3476 -0.0515
15128W        W31312   0.098   9.540   2.781 -0.3035 -0.0184 -0.0878
15129W        W31313   3.006   4.136  16.412 -0.2246 -0.1189 -0.1075
15130W        W31314  11.272   7.689   0.016  0.1165  0.0540  0.0275
15131W        W31315   9.980   8.160  13.034 -0.0472 -0.0496  0.1214
15132W        W31316  15.966   4.064  14.516 -0.2254 -0.0847 -0.1387
15133W        W31317   7.377   3.253   1.815  0.2127 -0.0154  0.1346
15134W        W31318   9.704   1.581   2.663  0.2379 -0.1789 -0.0239
15135W        W31319   9.404   3.220   4.098  0.2582  0.0357 -0.3332
15136W        W31320   1.087   7.947  14.983 -0.1356  0.0600  0.0367
15137W        W31321  13.676   0.606   3.909  0.4874  0.0415  0.1255
15138W        W31322  13.718  17.546   4.646 -0.2095 -0.0093 -0.0782
15139W        W31323   6.610   2.726   0.659  0.0995 -0.0068 -0.3515
15140W        W31324   3.162  15.471  11.924 -0.0328 -0.0395 -0.0790
15141W        W31325   5.401   6.874   1.929 -0.2880  0.1692 -0.0300
15142W        W31326  11.565  14.113   1.982  0.0559  0.0622 -0.2322
15143W        W31327   9.486   1.338   2.187 -0.2094  0.4635 -0.2208
15144W        W31328   9.270   7.861   2.200  0.0359 -0.1636  0.0576
15145W        W31329  15.789  14.210  14.463 -0.0931 -0.3251 -0.2343
15146W        W31330   7.258   3.274   4.376 -0.0089 -0.3452  0.0383
15147W        W31331  12.005  16.298  16.634 -0.0475 -0.1933 -0.1222
15148W        W31332   5.202   9.899  14.558 -0.0659  0.2021 -0.2042
15149W        W31333  12.153  15.746  16.802  0.0106  0.0299 -0.0437
15150W        W31334   3.351   2.351   1.979  0.1888 -0.1315  0.0544
15151W        W31335   5.157  12.827  11.500 -0.1265 -0.0009  0.0944
15152W        W31336  13.193   1.954  13.883 -0.0953  0.0924 -0.0761
15153W        W31337   8.798  13.496   1.578  0.1566 -0.1622 -0.1529
15154W        W31338   5.051   9.911   4.876 -0.0610  0.1650  0.1838
15155W        W31339  10.258  12.221   5.232 -0.0532 -0.0383  0.2428
15156W        W31340  14.349   5.430   2.253 -0.2390  0.1929 -0.2141
15157W        W31341   1.785  11.532  12.765  0.1624  0.0437 -0.0846
15158W        W31342   0.621   9.567  15.764  0.0916  0.0288 -0.0276
15159W        W31343  10.530   1.335   5.001  0.0916 -0.1380 -0.0882
15160W        W31344  15.900   0.530  13.941  0.0526 -0.1043  0.2210
15161W        W31345  15.286  13.095   4.155  0.2022 -0.2535 -0.0012
15162W        W31346  11.484   7.155   0.144 -0.1669  0.3954  0.1783
15163W        W31347   1.552   7.310   4.259  0.2350  0.2161 -0.2048
15164W        W31348  17.494   7.850  15.613  0.1298  0.0929 -0.1782
15165W        W31349  16.822   3.323  12.497 -0.1078  0.0012  0.0283
15166W        W31350   6.655  17.067  14.504 -0.1340 -0.2752 -0.2965
15167W        W31351   6.547   9.148  14.352  0.1067 -0.1620 -0.0431
15168W        W31352  14.407   6.636   2.283 -0.3776  0.2496 -0.1812
15169W        W31353   1.537  10.797  14.072 -0.0757  0.0760  0.1509
15170W        W31354   2.926   3.912  13.544 -0.0277 -0.1465 -0.0970
15171W        W31355  11.390   9.648   5.630 -0.1316  0.0175 -0.1966
15172W        W31356  11.972   4.032   4.483 -0.1994 -0.2298 -0.0876
15173W        W31357  11.964   6.401   4.022  0.1887 -0.0203 -0.1183
15174W        W31358   2.951  15.303  16.903 -0.2469 -0.3237 -0.1585
15175W        W31359   6.077   1.866  13.459 -0.3446  0.2327 -0.1050
15176W        W31360   6.140  15.404   5.394 -0.0552  0.0359 -0.4198
15177W        W31361   3.227  17.277   2.211  0.2230  0.1176 -0.1314
15178W        W31362   9.412   2.140   6.191  0.2426 -0.1786  0.0820
15179W        W31363   1.328   5.732   2.199 -0.1188  0.0707  0.4472
15180W        W31364   9.238   7.264   5.266  0.0432 -0.1300 -0.1922
15181W        W31365   7.889   0.795  11.825  0.0777  0.0180 -0.4770
15182W        W31366  17.152  13.388  13.120  0.0032  0.0822  0.3267
15183W        W31367  11.898   0.100   0.949 -0.1948 -0.0854  0.3087
15184W        W31368   3.645  14.450   4.397 -0.0104 -0.0731  0.1004
15185W        W31369   9.252  15.559   2.311 -0.1266 -0.2161 -0.0703
15186W        W31370  13.908   9.777  12.205 -0.0507 -0.0833  0.1467
15187W        W31371   0.178   1.524  15.274  0.3635  0.1311  0.2125
15188W        W31372   3.451   1.955  12.148  0.0496  0.0493  0.2031
15189W        W31373  12.806  12.745  13.806  0.1031  0.1116  0.0696
15190W        W31374  16.343  17.679   3.456  0.3959  0.2081  0.0871
15191W        W31375  11.279   3.148  12.906 -0.0082 -0.4760 -0.6443
15192W        W31376   2.095   5.605   3.146 -0.0344  0.0269 -0.2136
15193W        W31377  17.002  14.515   1.232  0.2012  0.3551 -0.1166
15194W        W31378  12.043  12.996   3.980 -0.2403 -0.2029  0.3290
15195W        W31379  13.086  17.549  14.951  0.0904  0.0287  0.0954
15196W        W31380   9.568  12.826   4.592  0.2062  0.2346  0.1370
15197W        W31381   2.232   1.543   2.140 -0.2074 -0.0327 -0.2901
15198W        W31382   2.024   4.177  15.410  0.2219  0.3044 -0.3222
15199W        W31383  14.971  13.338   2.893  0.2495 -0.0205 -0.0981
15200W        W31384   1.734   2.796   5.422  0.0875  0.1109  0.0830
15201W        W31385  10.853  13.466   2.556  0.0290  0.1820 -0.0090
15202W        W31386  17.062   7.087   0.620 -0.0657 -0.0506 -0.1703
15203W        W31387  16.034   5.321   3.090  0.0356 -0.0812 -0.1460
15204W        W31388   6.606   5.599   1.371  0.0115 -0.0157  0.2797
15205W        W31389   0.357   2.519   1.458 -0.0823 -0.1224 -0.0334
15206W        W31390   1.795   2.405   3.412  0.0683  0.2219  0.1624
15207W        W31391  16.937  11.332  13.051  0.0266  0.1713 -0.4792
15208W        W31392   5.700  15.857   4.660  0.1817  0.1058 -0.2328
15209W        W31393   4.006   3.875   0.468  0.0236  0.0274 -0.1596
15210W        W31394  16.211  17.572   1.825  0.2606 -0.0625  0.1244
15211W        W31395   8.436   6.759   5.179 -0.0206 -0.0793  0.3094
15212W        W31396  14.275   6.100   0.369 -0.0938  0.1473  0.3181
15213W        W31397   2.154  14.684   0.500  0.0812 -0.0622  0.0878
15214W        W31398   1.896  13.945  14.781  0.1605  0.1291 -0.1396
15215W        W31399  15.302   8.088  14.335 -0.2646  0.0310 -0.3042
15216W        W31400   1.640   6.713  16.526  0.0375  0.0778  0.2613
15217W        W31401   2.765   3.223   4.189 -0.0021 -0.1358 -0.0075
15218W        W31402   9.761  12.255  16.933 -0.0081  0.1721  0.1217
15219W        W31403   2.427   6.987  12.547  0.3329  0.1225 -0.2294
15220W        W31404  17.073  12.669  16.532 -0.4461  0.0681  0.1481
15221W        W31405   4.775   3.350   0.237  0.0503 -0.0710 -0.0498
15222W        W31406   2.250  17.394  13.205  0.3220 -0.0159  0.0907
15223W        W31407   4.350  16.745  14.767  0.3523  0.0342  0.0406
15224W        W31408   3.911  11.174  12.494 -0.0051 -0.3754 -0.0624
15225W        W31409  11.470  16.791   3.269 -0.0991  0.0699 -0.6360
15226W        W31410  13.409   1.057   1.912  0.1676 -0.0039 -0.1605
15227W        W31411   4.194   8.102   4.903  0.2581 -0.3036  0.0977
15228W        W31412  17.647  10.360  14.979  0.3424  0.1396 -0.2733
15229W        W31413   5.133   4.717   2.558  0.2243  0.1815 -0.1323
15230W        W31414   2.267  12.664  10.822  0.0727  0.0027 -0.4334
15231W        W31415  11.748  12.825   1.653 -0.2308 -0.0344  0.1826
15232W        W31416   9.919  11.879   1.015 -0.1331  0.1679 -0.3063
15233W        W31417  10.424  13.941  16.676  0.1000  0.1643  0.0251
15234W        W31418   9.270   3.244  15.192  0.0164 -0.0699  0.0003
15235W        W31419   5.109  11.309  16.319  0.0132 -0.0083  0.1811
15236W        W31420  17.428   7.675  16.112  0.3654  0.0953 -0.2082
15237W        W31421  16.021   1.426   4.150 -0.0534  0.0393  0.3071
15238W        W31422  13.097   4.121   0.146 -0.2136  0.3370 -0.1251
15239W        W31423  12.353  13.257  12.396 -0.0643  0.1256  0.0072
15240W        W31424   7.011   1.019   4.490 -0.1148 -0.1835  0.0021
15241W        W31425   7.797  16.308   1.256 -0.0052  0.0342 -0.1192
15242W        W31426  12.139   7.235  16.547 -0.1592  0.0371  0.2172
15243W        W31427  15.413  14.906  15.440 -0.1338  0.1668  0.0700
15244W        W31428  13.363  11.315  11.796 -0.1183 -0.0443  0.2110
15245W        W31429   4.285  10.902   3.550  0.0904 -0.2547  0.0833
15246W        W31430  14.817  12.947  16.665 -0.1426  0.0133 -0.0012
15247W        W31431   0.180   8.760   2.257 -0.1743  0.0469  0.0442
15248W        W31432   6.216  11.887   5.605  0.1274 -0.2836 -0.0924
15249W        W31433   8.880   4.194   0.306 -0.1616  0.1767  0.0058
15250W        W31434   6.560  12.971   2.529 -0.2293  0.1465  0.0392
15251W        W31435  12.216  11.082   2.062 -0.1955  0.0563 -0.2666
15252W        W31436  11.641   0.066  13.680  0.2172 -0.2718  0.0954
15253W        W31437   3.978  13.478  16.872 -0.2042 -0.0550  0.2228
15254W        W31438   0.622  12.001  12.818 -0.0561 -0.0135  0.0929
15255W        W31439  10.834  12.015  15.369 -0.0461 -0.4836 -0.1269
15256W        W31440  12.132  11.981   2.136 -0.2036  0.0296  0.0409
15257W        W31441   2.187  10.390  15.552 -0.2254  0.0172  0.0792
15258W        W31442  12.819   8.965   4.121 -0.0638  0.1430  0.2750
15259W        W31443  17.854   5.345   5.405 -0.0269  0.0547 -0.1095
15260W        W31444   9.040   1.655  14.325 -0.2350 -0.2704 -0.1147
15261W        W31445  16.249   5.113  14.762  0.0503 -0.0656 -0.3459
15262W        W31446   5.761   8.884  15.542  0.1845 -0.0346  0.0237
15263W        W31447  12.211   4.184  16.241  0.0630  0.1653 -0.0931
15264W        W31448   8.631  11.621   4.750  0.1167 -0.0881 -0.0834
15265W        W31449  13.936  17.316   0.767  0.2409 -0.1330 -0.1978
15266W        W31450  11.526  17.470  12.535  0.1383 -0.1697 -0.2963
15267W        W31451   8.190   6.381   2.683  0.1448 -0.3408  0.0449
15268W        W31452  17.365   5.963   5.256  0.0739 -0.1693 -0.1872
15269W        W31453  10.505  17.613  12.884  0.0107  0.0767  0.2695
15270W        W31454   3.725   8.726   5.632 -0.2989  0.0925  0.0769
15271W        W31455   4.281   7.855   3.383 -0.4384 -0.2159  0.1313
15272W        W31456   4.854  11.951   0.055 -0.0878 -0.0377  0.0585
15273W        W31457   3.864  16.212  12.993  0.1476 -0.0134  0.4105
15274W        W31458  15.619   9.422   1.681  0.2157 -0.1285 -0.1908
15275W        W31459   5.792  11.497   3.898  0.3166 -0.1106  0.1353
15276W        W31460  10.035  16.374  14.409 -0.0368 -0.0528 -0.0288
15277W        W31461   1.831  16.903   2.122 -0.0354 -0.1949 -0.0337
15278W        W31462  14.497  11.423   3.965  0.1395  0.0778  0.2524
15279W        W31463  14.610  14.552  15.110 -0.0640 -0.0642 -0.0376
15280W        W31464  13.376  13.498   0.609  0.0297 -0.1105 -0.0704
15281W        W31465   3.779  16.803  16.442  0.1886  0.0473 -0.0877
15282W        W31466   6.335  12.830  12.799  0.2080 -0.2684 -0.2065
15283W        W31467   0.928   0.562   2.846  0.0389  0.0912  0.0521
15284W        W31468   1.162   4.607   4.738 -0.1973  0.1670 -0.1192
15285W        W31469   5.338   6.531  14.357 -0.2407  0.0666 -0.1502
15286W        W31470   1.999  11.739   5.691 -0.0549 -0.1542  0.3613
15287W        W31471   1.391  11.633   2.973  0.0394  0.2434 -0.1083
15288W        W31472  11.508  12.722   0.827  0.0781 -0.1133 -0.2535
15289W        W31473  13.731  11.339   2.338  0.0056 -0.2565 -0.0296
15290W        W31474  14.128  14.569   0.257  0.3158  0.2408 -0.0257
15291W        W31475  14.212  12.539  15.474 -0.3014 -0.1913 -0.1447
15292W        W31476   3.012   0.484  15.102  0.1817  0.0785 -0.1441
15293W        W31477  10.294   2.947   0.928 -0.1849  0.0155 -0.2612
15294W        W31478   1.256   8.297  14.627 -0.2065 -0.2159 -0.0055
15295W        W31479  12.662   2.582   6.595 -0.1774 -0.0288 -0.0751
15296W        W31480   8.922  10.168   5.212  0.2429  0.0196  0.0431
15297W        W31481  12.023  11.326   1.677 -0.1901 -0.1458 -0.2244
15298W        W31482  11.253  15.523   5.129 -0.0748 -0.2631  0.1697
15299W        W31483   0.756   4.280   5.110  0.0851 -0.1246  0.0286
15300W        W31484   2.649  14.345   3.855  0.2491 -0.1002 -0.0951
15301W        W31485   4.041   8.498  14.966 -0.1528  0.1062  0.0920
15302W        W31486  13.016  10.991   0.654 -0.1043  0.2098 -0.0355
15303W        W31487  13.446   7.867  15.986 -0.0295 -0.0659  0.0037
15304W        W31488   8.314   6.435  13.318 -0.0886 -0.4077 -0.3434
15305W        W31489   3.077  16.620   2.078 -0.0946 -0.1219 -0.1576
15306W        W31490   0.109  16.421  13.368  0.3862  0.3766 -0.1111
15307W        W31491   8.142   3.952   1.070 -0.1193  0.0848 -0.0939
15308W        W31492  10.831   5.584   4.464  0.1504 -0.0043  0.0057
15309W        W31493   1.045   8.673  16.326  0.2352 -0.1100  0.4600
15310W        W31494   3.253   9.729  12.853  0.3317  0.1377 -0.0919
15311W        W31495   7.867   2.125   3.115  0.1187  0.3835  0.1220
15312W        W31496  15.514  10.763   5.715  0.0957  0.0034 -0.5012
15313W        W31497   0.084   4.885   5.583 -0.0281 -0.3235 -0.0965
15314W        W31498   2.531   8.863   4.936 -0.0712  0.2319 -0.2775
15315W        W31499   0.652   0.947   6.386 -0.3084  0.0134  0.0035
15316W        W31500   1.203  15.403  16.498  0.2709 -0.2118  0.3967
15317W        W31501  13.295   2.763  14.913 -0.1731 -0.4428 -0.2834
15318W        W31502   7.022   7.057  16.368 -0.0793 -0.2076 -0.1890
15319W        W31503  12.560  17.138  14.914  0.1222 -0.2386  0.2088
15320W        W31504   0.794  13.617   2.839  0.2188 -0.0103 -0.0755
15321W        W31505  17.615  10.331   5.795 -0.0646 -0.2319 -0.0897
15322W        W31506   6.257  13.240  16.844  0.0849 -0.1032 -0.2585
15323W        W31507   6.440  14.485  12.263 -0.0836 -0.3638 -0.2368
15324W        W31508   7.998  10.161  14.410  0.0292  0.0010  0.3447
15325W        W31509   7.913  17.587  16.899 -0.1054 -0.0184 -0.1291
15326W        W31510   8.520  10.703  16.892  0.2190 -0.1926 -0.0826
15327W        W31511   2.681   8.162  16.902  0.3356 -0.4274  0.0604
15328W        W31512   2.872  16.416  14.150  0.1859 -0.1945 -0.1876
15329W        W31513  14.245   8.090   1.318 -0.0536 -0.2247 -0.1867
15330W        W31514  12.314  14.728  15.698 -0.1092  0.0829  0.1778
15331W        W31515  13.552   2.044  16.097  0.4123  0.0094 -0.1846
15332W        W31516   2.224   1.988  16.379 -0.2095  0.1119 -0.2580
15333W        W31517  17.538  17.660   0.570 -0.4796 -0.0255  0.1333
15334W        W31518   0.077  15.936   4.753 -0.1554  0.0819 -0.1709
15335W        W31519   4.497   8.148  11.731  0.1018  0.0081  0.2793
15336W        W31520  15.198   9.907  12.249  0.2252 -0.0240 -0.0700
15337W        W31521   9.627   0.442  15.948  0.0637 -0.0849  0.1955
15338W        W31522   9.970   1.078   4.022  0.5349  0.0223 -0.0239
15339W        W31523   6.761  13.316   2.934 -0.1805 -0.1914 -0.0779
15340W        W31524  10.280  14.334   1.771 -0.0487  0.2648 -0.0475
15341W        W31525  13.135  13.492   4.785  0.0671 -0.1361 -0.1525
15342W        W31526   0.695   0.008  16.937  0.3606 -0.3596 -0.2566
15343W        W31527  16.499  17.317   2.197 -0.0142 -0.0925 -0.0244
15344W        W31528   9.122   7.567  16.443 -0.1058 -0.4008 -0.0504
15345W        W31529  13.031   7.719   1.377 -0.0776 -0.2863 -0.1343
15346W        W31530   6.650   6.592   3.050  0.0042 -0.1307 -0.0470
15347W        W31531   7.308   7.107   5.817 -0.1394  0.3207  0.3821
15348W        W31532  12.394   7.644  11.274  0.2459  0.1174  0.1185
15349W        W31533   4.148  16.516  16.078  0.0713 -0.0234 -0.0775
15350W        W31534  16.758  11.251   4.021 -0.2056  0.2702  0.3724
15351W        W31535  10.505   1.525   1.951  0.1270 -0.1730 -0.2126
15352W        W31536  10.814  17.862  13.699 -0.0571 -0.1669  0.1667
15353W        W31537   5.244  13.504   2.896 -0.0668  0.2408 -0.0838
15354W        W31538   7.025  13.905   4.131  0.3021 -0.0222 -0.0811
15355W        W31539   7.158  12.854  12.326  0.0198  0.0123  0.0531
15356W        W31540   9.341   6.762  16.249 -0.2317 -0.2086  0.0359
15357W        W31541   1.916  13.083  15.783  0.3600  0.3446 -0.2378
15358W        W31542   1.073  12.603   2.701  0.0550  0.1547  0.1775
15359W        W31543  10.560   2.688  14.034  0.1287  0.1140 -0.0247
15360W        W31544   7.367  10.157   0.669  0.1664 -0.0127  0.1948
15361W        W31545   9.092   1.426   3.784  0.1542  0.0847 -0.0355
15362W        W31546   7.274  14.954  14.321 -0.0305 -0.0310 -0.1424
15363W        W31547  14.899  14.721  15.536 -0.3644  0.1822  0.0114
15364W        W31548   6.030   9.307   0.255  0.2416  0.1342  0.0405
15365W        W31549  10.296  17.769   3.394 -0.3016  0.2991 -0.0918
15366W        W31550  14.592   1.420  14.487 -0.0746 -0.1927  0.1787
15367W        W31551  13.615   1.982  14.614 -0.0674 -0.1209 -0.0234
15368W        W31552   5.731   8.010   1.722  0.0783 -0.1367  0.0483
15369W        W31553  16.543   0.506   1.092  0.0411 -0.0851  0.0831
15370W        W31554  14.460  14.735  14.145 -0.0299  0.2426 -0.1015
15371W        W31555   0.590  13.800  11.745 -0.0492 -0.3589 -0.3141
15372W        W31556   3.804   8.361   1.281  0.2413 -0.0262 -0.1425
15373W        W31557   8.835  12.929  11.887 -0.0680  0.1554  0.1895
15374W        W31558  15.213  16.295  11.761 -0.2259 -0.1278 -0.0722
15375W        W31559  11.592  16.390   3.508  0.0810  0.1305  0.0928
15376W        W31560  16.629  14.585  15.463 -0.0582  0.0604  0.1798
15377W        W31561   2.126  15.871  15.448  0.0476 -0.0471  0.1149
15378W        W31562   9.371   4.108  14.854 -0.0239 -0.1473  0.0459
15379W        W31563  11.941  17.627  11.354  0.2274  0.0903 -0.0539
15380W        W31564   0.843  11.810  16.430 -0.1210 -0.0129 -0.3337
15381W        W31565   5.536  11.517   1.129 -0.0020 -0.1544  0.0184
15382W        W31566   1.909   3.181  16.393 -0.0756 -0.3370  0.3361
15383W        W31567  17.435   7.956  13.809  0.2356  0.1775 -0.2436
15384W        W31568   4.236   5.986  12.025  0.0620 -0.1214 -0.0597
15385W        W31569   7.659   9.721   2.445 -0.3462  0.1193 -0.0378
15386W        W31570   1.227  16.812   5.573  0.1684 -0.0762 -0.1327
15387W        W31571   0.348   4.896   2.447  0.1755  0.2427 -0.0172
15388W        W31572  17.251  17.383  11.545  0.0327  0.1322 -0.0725
15389W        W31573   2.433   3.962   5.344  0.2394 -0.1117 -0.2315
15390W        W31574  13.476   9.780  15.915  0.2088  0.0304 -0.1528
15391W        W31575   3.473  11.108  15.567  0.0051 -0.0990  0.0197
15392W        W31576   2.309   2.266  12.138  0.1889 -0.0940  0.3069
15393W        W31577  10.986  17.666  12.994  0.0492 -0.2975  0.0742
15394W        W31578  17.107   2.046   4.497 -0.0857 -0.0733 -0.0706
15395W        W31579   0.751  13.681  16.811  0.0241  0.1271 -0.1854
15396W        W31580   4.309   2.610   0.241  0.1751  0.0319  0.0691
15397W        W31581  12.449  11.255   4.994 -0.1336  0.2787 -0.1503
15398W        W31582   8.674   4.888   1.893  0.4138 -0.2416  0.0875
15399W        W31583  14.690   8.852   2.584  0.0652 -0.0794  0.2736
15400W        W31584   6.493   4.402   3.861 -0.0501 -0.4363  0.3852
15401W        W31585   1.146   2.022   5.031  0.4187 -0.3946 -0.0638
15402W        W31586   9.756  14.764   1.200 -0.3401 -0.1323 -0.1798
15403W        W31587   4.947   2.647   1.920  0.0187 -0.0401  0.0848
15404W        W31588   1.535   1.312  13.863 -0.0797 -0.2306 -0.0855
15405W        W31589  16.530  10.935  16.831 -0.2081  0.1735 -0.1740
15406W        W31590  11.870   8.344   1.077  0.0725 -0.4458 -0.2498
15407W        W31591  13.475   1.952   4.478 -0.0685 -0.0718  0.0021
15408W        W31592  14.578   4.431   3.609 -0.3296  0.0084 -0.0008
15409W        W31593  17.180   5.471  13.598 -0.3599 -0.1219 -0.0281
15410W        W31594  11.823   2.606  12.125 -0.1741  0.1497  0.2692
15411W        W31595   2.280   3.411   3.803  0.0861 -0.3519 -0.1605
15412W        W31596   0.656  14.917   3.278 -0.1713  0.1345  0.2315
15413W        W31597   6.626  15.157   4.435  0.0426  0.0771 -0.0212
15414W        W31598   5.161   2.034   0.440 -0.1121 -0.0843 -0.0509
15415W        W31599   3.083  12.799  13.051  0.4084 -0.2859 -0.1211
15416W        W31600  10.710  17.278   6.366  0.0873 -0.2023  0.1862
15417W        W31601   3.914   3.057   0.781 -0.1440  0.1425  0.1630
15418W        W31602  10.066  12.722  16.289  0.1492 -0.0290  0.3118
15419W        W31603  12.737   3.482   2.531  0.0082 -0.1009 -0.4241
15420W        W31604  11.344   5.958  13.981 -0.1317 -0.1921 -0.1333
15421W        W31605  16.879   4.557   1.034  0.1117 -0.0200 -0.2752
15422W        W31606  15.342   4.942   0.752  0.1252  0.0143 -0.3650
15423W        W31607  16.184  16.645   0.817  0.4578 -0.0900  0.2958
15424W        W31608   2.334  13.084   4.848 -0.0047  0.0354 -0.0416
15425W        W31609   3.653   9.983  16.713 -0.0825  0.0822 -0.1264
15426W        W31610   9.092  14.477  14.226 -0.0090 -0.1499  0.0516
15427W        W31611  12.866   3.260  11.861 -0.1088 -0.1463 -0.1178
15428W        W31612   6.242  17.731  13.005 -0.0580  0.1226  0.0788
15429W        W31613  13.535   4.471   0.194  0.3741 -0.0154 -0.0069
15430W        W31614  16.627   1.034   1.813  0.2327  0.2900 -0.1064
15431W        W31615   3.136  17.061   1.595  0.2397  0.2605 -0.0540
15432W        W31616   1.997  12.498   1.073 -0.2139  0.2681  0.3260
15433W        W31617  17.123   4.671   4.581 -0.0563 -0.3943  0.1289
15434W        W31618  16.279   7.517   3.558  0.2557  0.1423 -0.2850
15435W        W31619  10.941  10.630   2.603  0.0252 -0.1540  0.0937
15436W        W31620  10.678  11.458   3.750  0.1813 -0.3507  0.3440
15437W        W31621   3.289  12.731  16.725 -0.1554 -0.0446  0.1301
15438W        W31622   6.038  11.692   1.010 -0.0895 -0.0156  0.0422
15439W        W31623  11.796  10.615  16.791 -0.2170 -0.1488  0.4239
15440W        W31624   8.477  16.540   4.124  0.3370  0.1058 -0.0791
15441W        W31625  17.564  17.001   1.900 -0.1585  0.1211  0.0651
15442W        W31626   6.561   4.847  13.261 -0.4468 -0.2494  0.0931
15443W        W31627   4.613   7.886   1.730 -0.1959  0.1515 -0.0867
15444W        W31628  17.006   3.993   3.286  0.2726 -0.1243 -0.0775
15445W        W31629   2.083   9.998   2.118  0.3046 -0.2823  0.0592
15446W        W31630   9.819   5.225  11.620 -0.0596  0.1045  0.3895
15447W        W31631   2.402  14.364  15.062 -0.1140 -0.5749  0.0651
15448W        W31632   2.574   9.351   0.580 -0.0670 -0.0050 -0.0366
15449W        W31633  10.512   7.973   2.572  0.0091  0.0630 -0.2738
15450W        W31634  17.438  16.581   1.508 -0.3162  0.0021 -0.0628
15451W        W31635   1.956   6.941   4.357  0.1425  0.1703  0.1229
15452W        W31636  13.328  11.421   3.092 -0.0338  0.3378  0.1569
15453W        W31637   0.514   5.076   1.835  0.0185  0.2945  0.0428
15454W        W31638  16.144   0.047   6.227  0.1695 -0.2066 -0.0661
15455W        W31639   9.687   5.203   2.825  0.1977  0.0770 -0.3367
15456W        W31640   2.536  17.554  13.899  0.1381  0.1841 -0.2664
15457W        W31641   3.744  10.422   1.442 -0.1708 -0.0269 -0.0054
15458W        W31642  15.817  17.445  13.153  0.0499  0.1969  0.1613
15459W        W31643   1.169   4.207   6.025 -0.1755 -0.0643  0.2233
15460W        W31644   9.363  11.413  12.571  0.1008  0.0058  0.1804
15461W        W31645  15.119   7.848   1.748  0.2548  0.1402 -0.0105
15462W        W31646  15.483   1.330   4.106  0.0428  0.0027 -0.0950
15463W        W31647  14.719   0.682   0.520  0.5886  0.0680 -0.0591
15464W        W31648  10.101   9.722   5.422 -0.1670 -0.0631  0.1970
15465W        W31649   2.923   2.860  16.553 -0.0764 -0.3481  0.0743
15466W        W31650  14.397  16.839   3.984 -0.1477  0.0046 -0.1897
15467W        W31651  17.884   8.344  12.416 -0.4748 -0.0493 -0.1072
15468W        W31652   4.277  14.484  13.570 -0.0701 -0.1285 -0.1271
15469W        W31653   6.690  12.882  16.751 -0.1435 -0.2338 -0.1346
15470W        W31654   7.293  17.272   2.142 -0.1863  0.0849  0.1259
15471W        W31655   3.151  16.609   5.056  0.0228 -0.1426 -0.0398
15472W        W31656   2.710  17.527  12.103 -0.0736  0.1640 -0.1765
15473W        W31657   3.502   3.072  11.887  0.1045 -0.2524  0.4500
15474W        W31658   1.580  17.550   3.955 -0.0447  0.1054  0.0528
15475W        W31659  17.702   6.818  12.564  0.1001 -0.1442  0.0385
15476W        W31660  10.983   6.469   4.323  0.0914  0.3016  0.0689
15477W        W31661   1.567  14.730   6.274 -0.1156 -0.1146  0.1831
15478W        W31662   0.576  12.399  14.030 -0.0214  0.1006 -0.0584
15479W        W31663   3.495   1.452   4.010 -0.0378 -0.2974 -0.0027
15480W        W31664   0.038  17.244   2.436  0.0309  0.3073 -0.1156
15481W        W31665   4.573  12.506  12.064 -0.2338  0.1735  0.2658
15482W        W31666   9.699  15.928  10.853  0.2368  0.2330 -0.0464
15483W        W31667  15.643  12.442  13.453 -0.2184 -0.0229 -0.0197
15484W        W31668   0.071   5.882   5.325  0.1870 -0.4686  0.2866
15485W        W31669   5.823   7.913   0.216  0.0373 -0.5104  0.0372
15486W        W31670   2.893  10.101  13.179  0.2562  0.0474 -0.1241
15487W        W31671   2.500   5.782  12.889 -0.0050  0.0347  0.0195
15488W        W31672  11.566   5.681  11.985  0.1215  0.0111 -0.1490
15489W        W31673   9.258   0.855   2.113 -0.0183  0.1379  0.1956
15490W        W31674  17.256  13.058  16.794  0.0980 -0.0345 -0.1343
15491W        W31675   7.164  13.786  12.911 -0.2243  0.0901 -0.1445
15492W        W31676  16.745  10.757   4.252 -0.1433 -0.1115 -0.1015
15493W        W31677   3.940  17.074   2.071  0.3347  0.3007 -0.1901
15494W        W31678  10.371  17.246  14.423 -0.1214  0.0922  0.0047
15495W        W31679   9.068  12.091  16.178  0.1391  0.0732  0.2231
15496W        W31680  13.811  14.203  13.531  0.3171  0.2475 -0.1670
15497W        W31681   0.561   0.752  15.089  0.3152 -0.1041 -0.2807
15498W        W31682   4.777   0.692   6.028  0.0334 -0.1629  0.0282
15499W        W31683   7.189  16.942   2.583 -0.1949  0.2755  0.1774
15500W        W31684   2.886   3.792   1.307 -0.0455 -0.0060 -0.1559
15501W        W31685   5.631  13.419   3.822 -0.3101  0.0595  0.0958
15502W        W31686  17.551   4.707   5.850 -0.0879  0.1119 -0.3015
15503W        W31687  16.462  14.086  13.217  0.2854  0.0623 -0.0427
15504W        W31688   0.482   8.786   5.455 -0.0712 -0.0898 -0.0275
15505W        W31689   9.976  17.547   3.057 -0.1759 -0.2250 -0.1766
15506W        W31690  15.091   3.970  13.212  0.2406  0.1846  0.0590
15507W        W31691   2.239   8.322  14.135 -0.0729 -0.0359 -0.0613
15508W        W31692  11.360  15.100  16.560 -0.1808  0.0844  0.1246
15509W        W31693   0.457  17.171   0.125  0.2430 -0.2060 -0.2200
15510W        W31694  14.601   9.047  13.735 -0.0436  0.1301  0.1614
15511W        W31695  16.639   6.458   4.041 -0.0128  0.3973  0.3545
15512W        W31696   2.443   5.052   4.293  0.1928  0.1739  0.1534
15513W        W31697  11.112   4.118   5.042  0.1319  0.0446 -0.1240
15514W        W31698  13.730   2.442   0.741 -0.0301  0.3131 -0.1095
15515W        W31699   4.241   9.247   3.928 -0.2637  0.1889  0.1720
15516W        W31700  14.172  17.125  12.687 -0.0568  0.1229 -0.2133
15517W        W31701  15.174  10.629   2.270 -0.0122 -0.2361 -0.2899
15518W        W31702   7.831  10.627  14.315 -0.2049  0.0181 -0.0230
15519W        W31703  15.128   2.803  11.615 -0.0633 -0.0386 -0.1130
15520W        W31704   4.551   5.815  14.571 -0.1573  0.1906  0.2956
15521W        W31705  11.278  11.353   3.753  0.3040 -0.1032 -0.0875
15522W        W31706  11.567  15.969   1.722 -0.0059  0.1462 -0.0007
15523W        W31707   0.987   2.703   4.169  0.1319  0.1233 -0.2355
15524W        W31708   0.410   3.014   4.471 -0.0133 -0.1479 -0.0748
15525W        W31709   9.248  10.571   2.676  0.0268 -0.0125  0.1708
15526W        W31710  13.723  12.963   1.817 -0.2649 -0.2255  0.4380
15527W        W31711  15.464   7.216   0.600  0.0987  0.1136  0.0309
15528W        W31712  15.890   6.929  16.095  0.1449 -0.4824 -0.1928
15529W        W31713  10.851   7.698   0.802  0.2414  0.0791 -0.1086
15530W        W31714   4.782   5.662   2.302 -0.2236 -0.1288  0.1902
15531W        W31715  17.850  17.014   5.589 -0.0773  0.0993  0.1948
15532W        W31716   0.221  16.864  12.442 -0.4517  0.3354  0.3530
15533W        W31717   9.323   6.392  14.789 -0.1231  0.0707 -0.2913
15534W        W31718  15.346   6.535   5.384 -0.0262 -0.0012 -0.1363
15535W        W31719   8.304   4.608   0.066 -0.1177  0.0599 -0.1006
15536W        W31720   7.744  11.515   3.428  0.1157  0.0754 -0.1559
15537W        W31721  13.771  16.465   1.678  0.2063 -0.1128 -0.0513
15538W        W31722   6.559   1.000   4.698  0.2180 -0.4644  0.3829
15539W        W31723  12.257  11.421   5.942  0.0895 -0.0436 -0.0327
15540W        W31724   1.983   7.879  16.902 -0.0054 -0.2235  0.0669
15541W        W31725  14.596   9.201  16.848 -0.0310  0.0328  0.1667
15542W        W31726  11.017   2.593   3.825  0.0882  0.0686 -0.0511
15543W        W31727  12.628   9.880   5.273  0.1321 -0.2051 -0.0323
15544W        W31728   8.914   6.968  16.057 -0.0783 -0.2049  0.1406
15545W        W31729  16.727  15.396   1.104 -0.1471  0.2427  0.1029
15546W        W31730  13.148   3.623   0.106 -0.0300 -0.0814 -0.0943
15547W        W31731  11.535   8.173  16.878  0.1289 -0.0105 -0.2404
15548W        W31732   8.799  12.472  13.211 -0.0514 -0.2597  0.1539
15549W        W31733   5.752   9.532   1.988 -0.4950 -0.0258 -0.0483
15550W        W31734  11.929   2.372  15.461  0.0508  0.2937  0.3745
15551W        W31735   5.269   6.130   5.331  0.0618  0.3872  0.0278
15552W        W31736   5.793   8.412   4.632 -0.2698 -0.1077 -0.1385
15553W        W31737   3.041   0.551  16.865 -0.2364  0.2921 -0.0944
15554W        W31738   0.075   5.985   4.420 -0.0774  0.1247 -0.0791
15555W        W31739   9.756  12.793   0.931  0.2147  0.2023 -0.0629
15556W        W31740   8.947   6.141   4.221  0.0329 -0.4101 -0.2465
15557W        W31741   4.636  12.944  11.263  0.2779 -0.0273 -0.0955
15558W        W31742  12.324  11.748  15.941 -0.0518  0.0580  0.1649
15559W        W31743   2.714   2.994  14.087  0.1230  0.0348 -0.1274
15560W        W31744  13.408   2.127   1.472  0.2437 -0.1928 -0.2205
15561W        W31745   6.388   3.769  11.686  0.0578  0.1014  0.2627
15562W        W31746   7.960   4.113  12.642  0.0190 -0.1708 -0.2470
15563W        W31747  16.694   3.657   2.970 -0.1592 -0.2403  0.0023
15564W        W31748  14.419   2.966  15.825 -0.3581  0.1257  0.0043
15565W        W31749   1.160  10.606   5.498 -0.3466 -0.1223  0.0022
15566W        W31750   0.741   2.300  15.586  0.3281  0.0608  0.2546
15567W        W31751  13.512   8.261   2.646  0.0798  0.0083  0.0075
15568W        W31752  12.059   2.964   3.564 -0.0495  0.0238 -0.0950
15569W        W31753  13.929   4.189  16.888  0.0567 -0.1470 -0.0841
15570W        W31754   0.040   2.365  15.727  0.2184  0.1470  0.2313
15571W        W31755   7.917   6.849  13.372 -0.3523  0.0518  0.1314
15572W        W31756   1.762  16.559   4.060 -0.3221 -0.1258 -0.0520
15573W        W31757   9.593   7.735  16.212 -0.2018 -0.2591 -0.2605
15574W        W31758   5.861   1.456  15.383  0.3345  0.0731 -0.3625
15575W        W31759   5.971   3.462   0.625  0.0722  0.1052  0.3127
15576W        W31760  12.070   6.964  15.516 -0.1499  0.2949 -0.0038
15577W        W31761   5.503   2.962   5.256 -0.1503  0.2867 -0.1627
15578W        W31762  11.422   6.838  13.710  0.0212 -0.0760 -0.1631
15579W        W31763  12.300   0.871  16.685 -0.2530  0.0595  0.0549
15580W        W31764   7.103  15.397  14.418 -0.1930  0.2427 -0.2202
15581W        W31765  16.258  13.111  13.053  0.1421 -0.5019  0.0350
15582W        W31766   2.593   9.087   2.461 -0.0570 -0.2797  0.3584
15583W        W31767  13.915   3.732  13.327 -0.0396  0.2145  0.3656
15584W        W31768   6.814  13.083  11.948  0.1979 -0.2402 -0.1675
15585W        W31769   6.643   8.793   3.374  0.1913  0.2521  0.0899
15586W        W31770   4.992  10.743   1.458 -0.1401 -0.4498 -0.1774
15587W        W31771  13.090   1.685   5.222 -0.1757 -0.0996 -0.1638
15588W        W31772   1.325   6.501   3.177  0.0471 -0.1047  0.1665
15589W        W31773  14.433   2.109   3.136  0.1130 -0.2000  0.2679
15590W        W31774   1.340   8.777  14.221  0.0371  0.2253 -0.0008
15591W        W31775   6.150   8.712   0.996 -0.1382  0.5136  0.1158
15592W        W31776   3.361   4.358   5.363 -0.3543  0.0193  0.0610
15593W        W31777  14.806  10.873  16.649 -0.6553 -0.1106 -0.0778
15594W        W31778   5.921   1.739   3.950  0.0215 -0.2520 -0.0893
15595W        W31779  11.618   8.364   4.513  0.2419 -0.1340  0.2490
15596W        W31780  16.920   9.604  12.421 -0.0970 -0.1882  0.0419
15597W        W31781   3.847   7.635  14.401  0.0408 -0.1210  0.1395
15598W        W31782   6.167   6.601   3.917  0.0185  0.0905 -0.2123
15599W        W31783   0.780   5.419  13.777 -0.0164  0.0608  0.0579
15600W        W31784   5.620   9.651  15.970  0.0424  0.2069 -0.0684
15601W        W31785  13.565   8.979   0.781  0.1617 -0.1342 -0.3047
15602W        W31786   6.947   7.255  15.911  0.0127  0.0487  0.1089
15603W        W31787   1.103   2.319   0.845 -0.0922  0.0712  0.0459
15604W        W31788   7.828   5.700   5.703 -0.1327 -0.0674 -0.0464
15605W        W31789  10.153  16.349   3.439  0.1687 -0.0177  0.0409
15606W        W31790  13.282   0.099  12.227  0.2869  0.0433 -0.0804
15607W        W31791  17.188   8.861  16.064  0.0539 -0.0453  0.4136
15608W        W31792   7.766  12.702   5.836  0.2957  0.0077 -0.1753
15609W        W31793  11.300  15.872  13.725  0.4818 -0.1626  0.2214
15610W        W31794  13.802   6.935   3.491  0.0602  0.2801  0.2491
15611W        W31795  12.885   4.287  12.710 -0.5261  0.0137  0.1741
15612W        W31796  10.682  10.195   1.512  0.4146 -0.0947 -0.2223
15613W        W31797  16.562   8.415   3.564  0.1542  0.1527 -0.0172
15614W        W31798   4.301   1.423   2.366 -0.0670 -0.0042 -0.0487
15615W        W31799   8.231   0.414  14.583 -0.3623  0.1137  0.0642
15616W        W31800   4.300   5.832  15.778  0.2156 -0.1305 -0.0144
15617W        W31801  15.105   8.383  15.424  0.1402 -0.1757 -0.1467
15618W        W31802  15.333   0.900  11.992  0.0963 -0.2642 -0.0110
15619W        W31803   0.793   1.219   3.453  0.3198  0.1131  0.1731
15620W        W31804  12.047  10.062  15.389 -0.0306  0.1918  0.0199
15621W        W31805   5.690  16.339  15.155  0.0075 -0.1458  0.0876
15622W        W31806  12.034  12.500   0.181  0.2261 -0.0282 -0.0071
15623W        W31807   8.548   9.803   2.876 -0.1133  0.0720  0.0878
15624W        W31808   2.889  11.702   0.853 -0.0175  0.1837  0.0184
15625W        W31809  10.811   7.351  12.400  0.0419  0.3653  0.3135
15626W        W31810  17.485  12.211  16.017  0.2554  0.3011  0.2150
15627W        W31811  17.181   8.787  16.643  0.2102 -0.2663  0.1200
15628W        W31812  14.488   4.634  15.420 -0.2958  0.0796 -0.2133
15629W        W31813  13.990   4.165   2.462 -0.0997 -0.0063 -0.0963
15630W        W31814  12.799  13.895   4.941  0.1666  0.3713  0.0090
15631W        W31815  14.133  17.345  13.623 -0.2094 -0.0869  0.0539
15632W        W31816  16.699  11.315   5.997  0.2196 -0.3384  0.3275
15633W        W31817   7.331   5.691  15.686 -0.5302 -0.1557 -0.2851
15634W        W31818   7.320  11.504   2.476 -0.0297  0.0012  0.2465
15635W        W31819  17.455   9.759   5.052 -0.3511  0.0568  0.0744
15636W        W31820   0.315   1.789   4.556 -0.0221  0.2037  0.0776
15637W        W31821  12.915   2.410  16.496 -0.1592 -0.1104 -0.1757
15638W        W31822   2.259  12.195  16.210 -0.0763 -0.1154  0.0255
15639W        W31823   4.581   6.444   5.898 -0.1137 -0.1446 -0.3373
15640W        W31824  13.296   9.947  15.484 -0.0016  0.1029  0.0610
15641W        W31825   6.438  13.148  10.700  0.2655  0.0703  0.0997
15642W        W31826  17.517   7.466  12.095  0.0677 -0.0711 -0.4097
15643W        W31827   2.472  10.701   4.673 -0.1983  0.0027  0.0558
15644W        W31828   6.268   7.543   6.110 -0.0464  0.1615  0.0627
15645W        W31829   2.769  15.874   4.736 -0.0277  0.0090 -0.2664
15646W        W31830   9.911   2.490   0.970 -0.0564 -0.1938  0.0425
15647W        W31831   9.703  11.510  15.112 -0.0029  0.0023 -0.1492
15648W        W31832   6.427  10.871   3.807  0.1813  0.0842  0.1199
15649W        W31833   9.752  12.858  14.092  0.1888 -0.0643 -0.0712
15650W        W31834   7.444  12.001   2.596 -0.0046 -0.2374 -0.1115
15651W        W31835  10.306  14.895   0.312 -0.3026  0.1602 -0.2341
15652W        W31836  13.364   6.612  12.337  0.0839  0.2622 -0.1802
15653W        W31837  13.878  11.728  15.128  0.0688  0.1200 -0.2771
15654W        W31838  13.820  11.504   1.282 -0.0437 -0.0301 -0.0305
15655W        W31839  17.531  10.441   1.740  0.1856  0.2046 -0.1405
15656W        W31840  12.230   7.817   1.793  0.1735  0.0390 -0.1488
15657W        W31841  12.703  14.669   5.552  0.0457  0.2052  0.1614
15658W        W31842  15.620   8.593  16.325 -0.3123  0.0247  0.0490
15659W        W31843   7.420  12.244  11.070 -0.0247 -0.0578 -0.1936
15660W        W31844   1.283   7.547  13.583  0.1866 -0.0133 -0.0143
15661W        W31845  16.054  11.782  12.779 -0.1259  0.0047  0.1604
15662W        W31846   7.736  10.514  14.823  0.1121 -0.1064  0.2366
15663W        W31847  16.245  16.487  16.233 -0.2964 -0.1825 -0.0378
15664W        W31848  13.566  17.438   5.543  0.1120  0.0097  0.1755
15665W        W31849   9.484  17.740   4.630  0.0090 -0.2041  0.0948
15666W        W31850  17.602   5.882   5.702 -0.1995  0.1488  0.0240
15667W        W31851   0.769   4.200  11.896  0.0069  0.0898  0.2028
15668W        W31852   0.020   1.234  12.622  0.3509 -0.1437 -0.1344
15669W        W31853  10.244   1.518  12.827 -0.0712  0.0683 -0.1328
15670W        W31854   7.883  10.752  16.084 -0.2267 -0.1699  0.0017
15671W        W31855  11.620  15.752  15.380 -0.2256 -0.0969 -0.1955
15672W        W31856   4.980  15.623  12.149 -0.1678 -0.0931  0.3397
15673W        W31857   8.862   5.679   0.321 -0.1192  0.2093 -0.1207
15674W        W31858  16.804  17.678  14.654  0.0814 -0.1879  0.0034
15675W        W31859  11.509   1.702   4.921 -0.0150  0.1901 -0.1003
15676W        W31860  14.751   2.866   1.742  0.2170 -0.1380 -0.0960
15677W        W31861  10.119  17.802  12.532 -0.5797 -0.0360 -0.2040
15678W        W31862   3.847   4.934   1.836 -0.1031  0.3058 -0.0602
15679W        W31863   3.988   3.029  12.828 -0.2030 -0.0309  0.0372
15680W        W31864   4.063  13.066  13.374  0.0500  0.2309  0.0322
15681W        W31865  15.102  16.920   1.192 -0.0047 -0.0541  0.1192
15682W        W31866  17.640   7.113  15.980  0.0487  0.3693 -0.0839
15683W        W31867   3.806   4.973   2.861 -0.2462 -0.2110 -0.0979
15684W        W31868   6.538  13.778  11.152  0.0908  0.0557  0.0784
15685W        W31869   1.405  15.193   4.060  0.2246  0.2889  0.0841
15686W        W31870   5.481  11.518   2.579 -0.0320  0.2026  0.0893
15687W        W31871  10.260  15.246   5.200  0.1491 -0.1705  0.0534
15688W        W31872  11.112  15.307  16.126  0.2835 -0.1074  0.1159
15689W        W31873  17.186  10.938   0.433  0.0349  0.3649  0.3602
15690W        W31874   4.489   1.275   4.755  0.5653 -0.0945  0.2559
15691W        W31875   3.502   7.844   5.233 -0.1649 -0.1838 -0.0994
15692W        W31876  12.558   5.334   1.646 -0.0054 -0.0776  0.1728
15693W        W31877  11.152  10.743   3.124 -0.1242  0.2250  0.0211
15694W        W31878  12.347  15.658   3.568  0.1006 -0.0914 -0.1463
15695W        W31879   6.303  12.624  16.922  0.0416 -0.2504  0.2366
15696W        W31880  16.394  17.357  16.389  0.3805 -0.2546  0.0546
15697W        W31881  11.119  17.414   1.184 -0.0088 -0.1065 -0.1018
15698W        W31882  12.096  14.849   3.756 -0.2220 -0.1067  0.1739
15699W        W31883   0.111  12.235  16.010  0.0462  0.0457  0.1422
15700W        W31884   8.055   5.148  12.063 -0.1839 -0.0967 -0.4244
15701W        W31885   5.335   3.405   0.690  0.2508 -0.4872 -0.0235
15702W        W31886   6.692  10.113  11.665  0.1179 -0.0320  0.1866
15703W        W31887  13.060   8.427   5.729 -0.1406  0.2671  0.0804
15704W        W31888   3.402  11.990  15.875 -0.1188  0.0607 -0.0583
15705W        W31889   9.691  15.499  12.964 -0.0276  0.0725 -0.0748
15706W        W31890   6.246   0.601   4.651 -0.0059  0.1318 -0.2546
15707W        W31891   1.206  10.306   3.101  0.0789 -0.1390  0.2212
15708W        W31892   1.140  10.640  12.423  0.3322  0.1129  0.1222
15709W        W31893  14.775   1.906  16.856 -0.1354  0.1000 -0.2040
15710W        W31894  11.924   9.397  12.867  0.1190 -0.2503  0.1029
15711W        W31895  16.104   8.582  16.306  0.4778  0.1144 -0.1893
15712W        W31896   5.534  13.922   2.956 -0.0397  0.0697  0.0804
15713W        W31897  12.124   6.235   1.408 -0.0478 -0.3923 -0.1851
15714W        W31898   5.809   3.035  16.883  0.0518  0.1460 -0.2951
15715W        W31899   8.447   9.071  13.520 -0.1208 -0.5505  0.0150
15716W        W31900   1.741   3.452  12.755 -0.1276  0.2230 -0.0933
15717W        W31901   9.352   6.379   0.408 -0.3293  0.1223 -0.2617
15718W        W31902   3.915   7.304   3.143  0.1624  0.1495 -0.0882
15719W        W31903  14.729   0.355   5.880  0.0123  0.1829  0.0570
15720W        W31904   0.712   2.976   1.966  0.2667 -0.0075 -0.0150
15721W        W31905   7.702  14.502   4.447 -0.1297 -0.1700 -0.0625
15722W        W31906  14.990  17.178   2.799  0.1164  0.0891 -0.1903
15723W        W31907   2.930  13.582  16.717  0.3868  0.0951  0.2894
15724W        W31908   4.877  12.195   3.624 -0.1730  0.1756  0.2319
15725W        W31909  11.664   9.421   0.672 -0.2745 -0.0379 -0.2283
15726W        W31910   9.872  10.165   5.556  0.0227 -0.1552 -0.1335
15727W        W31911   6.483   8.352  14.992 -0.0101 -0.1870 -0.0478
15728W        W31912   2.601  13.115   3.483 -0.0218  0.1883  0.3616
15729W        W31913   3.803  16.255   3.509 -0.1027 -0.2973  0.2336
15730W        W31914   5.780   6.233   0.270 -0.0288  0.0462  0.2944
15731W        W31915   7.642  12.016   1.584  0.0794 -0.0627 -0.1496
15732W        W31916  11.708   0.107   0.036  0.0376 -0.0697 -0.1894
15733W        W31917  12.204   7.092  12.750  0.1145  0.0819  0.1777
15734W        W31918  13.740   8.438   4.559 -0.0822 -0.1128 -0.0422
15735W        W31919   8.800   1.602   2.099  0.1238  0.0154  0.2834
15736W        W31920  12.541   0.405  16.566 -0.1606 -0.0150  0.0580
15737W        W31921   9.553   1.804  14.301  0.2441 -0.1259  0.0236
15738W        W31922  12.392  15.603  13.800  0.0471  0.1080  0.3569
15739W        W31923   7.692  12.855  12.053  0.0636  0.0293  0.0386
15740W        W31924  16.989  14.409  11.636  0.3567  0.0481 -0.0944
15741W        W31925   4.337   4.028   1.469  0.1323  0.1567  0.4314
15742W        W31926   6.315   7.989   0.525 -0.0538 -0.1354  0.3130
15743W        W31927   7.126   5.433  16.072 -0.2155  0.0596  0.2738
15744W        W31928   8.999  10.900  12.096  0.1891  0.2436 -0.0892
15745W        W31929  12.622  15.012   3.067 -0.1567 -0.2533 -0.0755
15746W        W31930  17.050   0.724   5.206 -0.3055 -0.0630  0.1234
15747W        W31931   7.094  13.499  11.996 -0.2651  0.0394  0.1420
15748W        W31932   0.894  11.195   4.490  0.1920  0.0087  0.0410
15749W        W31933   4.291   8.224   2.961  0.0029  0.1721 -0.0386
15750W        W31934  16.456  11.648   3.156  0.1122 -0.0154 -0.0476
15751W        W31935   4.317   2.548   5.687  0.3051 -0.2461  0.0232
15752W        W31936   6.535   7.110  15.659 -0.2742  0.0602  0.1451
15753W        W31937  13.659  14.835   0.454  0.1441 -0.0037  0.1946
15754W        W31938   0.243   8.650  15.275 -0.0110 -0.1052 -0.0832
15755W        W31939  12.444   1.151   1.686  0.1304  0.1700  0.1139
15756W        W31940  15.360   9.331  14.378  0.0570  0.3857 -0.3188
15757W        W31941  11.952   6.234   0.221  0.1507  0.3242 -0.1537
15758W        W31942   3.936   5.213  16.387  0.0488 -0.0350  0.0811
15759W        W31943  15.244  10.319  16.136  0.0030 -0.0812 -0.1688
15760W        W31944   1.771  13.355   2.780  0.3951 -0.3369 -0.0533
15761W        W31945  17.513   6.558   3.307  0.0206  0.0776  0.2950
15762W        W31946  10.609  13.563   5.945 -0.2386  0.0017  0.1685
15763W        W31947  13.299  14.826   2.883  0.1491 -0.1361 -0.1085
15764W        W31948   7.209   4.832  13.224 -0.3673 -0.3122 -0.4287
15765W        W31949  11.866  16.191   0.572 -0.0754  0.1763 -0.2507
15766W        W31950   5.418   0.624  13.512  0.2127 -0.1594 -0.1579
15767W        W31951   4.788   9.839   5.285 -0.0482 -0.1841 -0.1258
15768W        W31952   3.975  10.856  11.912  0.0019 -0.1465  0.2591
15769W        W31953  10.878  17.462   4.968 -0.0173  0.0893 -0.0457
15770W        W31954   1.463  16.868   4.367  0.1243  0.1583  0.2049
15771W        W31955  15.955   9.393   3.000  0.2887 -0.0431 -0.1405
15772W        W31956   9.818  12.367  15.655  0.1537  0.0848 -0.2327
15773W        W31957   6.070   1.497   1.572  0.2911 -0.0042 -0.2781
15774W        W31958  15.778   4.321  16.584 -0.2327 -0.1123  0.1075
15775W        W31959  12.245  13.662  14.569 -0.0364  0.1402  0.0444
15776W        W31960   8.450  17.778  13.172  0.0338  0.1052 -0.1658
15777W        W31961   6.719  10.890  16.236  0.3480  0.0914 -0.2581
15778W        W31962   0.899   6.477   2.675  0.0350 -0.0815 -0.0387
15779W        W31963   6.986  11.061  14.630 -0.0992 -0.0206 -0.3515
15780W        W31964   9.541  15.460  13.647 -0.0799 -0.2282 -0.0117
15781W        W31965   9.418  16.936  12.759 -0.3247  0.1232  0.0246
15782W        W31966   4.425   8.005   0.011  0.1001 -0.0411  0.0933
15783W        W31967  15.960   4.819  12.872  0.1612  0.2256  0.1206
15784W        W31968   2.791  14.762  12.556  0.0430  0.1210 -0.1228
15785W        W31969  12.664  10.717   2.232  0.0755  0.1439  0.0286
15786W        W31970   4.645   8.042   6.028  0.1106  0.0893  0.3537
15787W        W31971  14.071   4.981  15.450 -0.0435  0.2009  0.0268
15788W        W31972  10.993  15.269   4.791  0.0807 -0.1001 -0.0482
15789W        W31973   2.685  13.355   1.141 -0.2405 -0.0481 -0.1430
15790W        W31974  14.345  14.381   4.279 -0.2579 -0.0235 -0.3841
15791W        W31975   5.281  11.910  16.699 -0.0994  0.0884  0.0188
15792W        W31976  14.784  11.582  13.850 -0.1878 -0.0095  0.3132
15793W        W31977   8.864   8.446   2.546  0.5011  0.0357 -0.3904
15794W        W31978   1.224   2.360   1.440 -0.0619 -0.0047  0.2021
15795W        W31979  10.574  16.113   5.169 -0.3106 -0.0107  0.0682
15796W        W31980   0.131  16.383  12.204 -0.0923 -0.0247 -0.1124
15797W        W31981   4.568  10.037  12.175  0.2019 -0.1378 -0.2129
15798W        W31982   6.249   4.660  16.730  0.1876  0.1280  0.0056
15799W        W31983   3.443  17.831   4.404 -0.1701  0.1618  0.1493
15800W        W31984   9.695   4.153   6.397  0.2055 -0.1720  0.1726
15801W        W31985   3.050   6.479  11.981  0.0695  0.0865  0.0898
15802W        W31986  14.594   0.125  12.989 -0.0787 -0.1839  0.1233
15803W        W31987  14.479  13.475   6.455  0.0257  0.0443 -0.2325
15804W        W31988  17.593  13.840  12.183 -0.0485  0.0893  0.2483
15805W        W31989  10.331   4.129  16.772  0.0056 -0.3175 -0.0649
15806W        W31990   8.600  11.697   2.630  0.4149 -0.0549  0.0506
15807W        W31991  16.159   4.291  16.168 -0.0468 -0.1763 -0.2769
15808W        W31992   5.149  14.749   3.979  0.2919  0.0532  0.1804
15809W        W31993  14.225  17.432   4.820  0.3338  0.0003  0.0579
15810W        W31994  16.213   5.962  14.349 -0.1606 -0.2451 -0.1776
15811W        W31995   5.475  15.618  16.701 -0.1367 -0.1748 -0.0161
15812W        W31996   5.138   1.449  16.233 -0.0554 -0.1050  0.0167
15813W        W31997   0.733   7.836  16.717 -0.4515 -0.1160  0.1211
15814W        W31998   6.260  14.242   1.527  0.2598  0.1919  0.1417
15815W        W31999  17.252   9.012   2.496  0.2224 -0.0813  0.1448
15816W        W32000   6.241   3.881  13.009 -0.2328  0.1340  0.2505
15817W        W32001   4.852   0.983  13.867  0.0455  0.0198  0.0284
15818W        W32002   6.965  15.898  15.803  0.2877  0.1465 -0.1674
15819W        W32003  13.267   6.038  16.313  0.0390 -0.0773  0.1646
15820W        W32004   2.250   3.660  16.579 -0.0321  0.1063  0.0258
15821W        W32005   6.758   8.710  15.680  0.2057 -0.2902  0.1502
15822W        W32006  12.858   1.559   2.376  0.3299 -0.2257  0.0945
15823W        W32007   8.819  17.606  12.519  0.1725 -0.3624  0.2295
15824W        W32008   6.880   6.357   5.903  0.0182  0.1346 -0.0277
15825W        W32009   7.651   3.916   6.439 -0.1921 -0.2971  0.1061
15826W        W32010   0.046  16.492   4.503  0.1437  0.2217 -0.2154
15827W        W32011  15.693   7.663   3.819  0.2241  0.1344 -0.0468
15828W        W32012  12.193   7.883  14.980 -0.2132 -0.1708  0.1564
15829W        W32013   8.089   4.586   5.369  0.1173  0.0791  0.1679
15830W        W32014   5.129  15.382  11.771  0.2801  0.2698  0.0041
15831W        W32015  11.056  17.875  16.202  0.1043 -0.1943 -0.2647
15832W        W32016  12.555  11.277  12.213  0.1267 -0.0032 -0.0731
15833W        W32017  12.983   9.352   1.494 -0.1198  0.0198  0.2274
15834W        W32018   3.226   7.457   0.365  0.1840 -0.1509 -0.2074
15835W        W32019   2.010   2.387  16.547 -0.1453  0.1435  0.3059
15836W        W32020  15.814   3.997   0.416  0.0584 -0.1211 -0.1564
15837W        W32021  15.700  16.080   0.497 -0.2897  0.1423  0.2033
15838W        W32022   3.850  13.484  12.064  0.0040 -0.0817  0.2207
15839W        W32023   4.804   5.230   1.868 -0.1369  0.0973  0.1965
15840W        W32024   7.372  11.340  14.783 -0.2548 -0.1035 -0.0308
15841W        W32025   1.397  14.088  12.872  0.0591  0.0785  0.1182
15842W        W32026  15.632   8.762  12.669  0.1482  0.0237 -0.1739
15843W        W32027  10.921   8.817   1.599 -0.2714 -0.1004  0.3432
15844W        W32028   4.588   7.150  15.296 -0.0357  0.1809  0.1761
15845W        W32029  14.811   8.848  12.634  0.0011  0.1860 -0.1386
15846W        W32030   4.271  10.407   4.798  0.0720 -0.3794 -0.0060
15847W        W32031   2.836   3.708  16.539 -0.1757  0.2310 -0.0713
15848W        W32032  12.722  10.738   5.024 -0.1641  0.2908  0.1625
15849W        W32033  13.350  14.532   0.750 -0.0341 -0.0488 -0.1276
15850W        W32034  14.034  17.177   5.267  0.0378  0.2955  0.1585
15851W        W32035   6.829  17.415   3.397 -0.2169 -0.1732  0.0568
15852W        W32036   7.050  11.508   4.513 -0.4719 -0.1400 -0.0270
15853W        W32037   2.699  15.750   4.128 -0.1227  0.0581  0.0977
15854W        W32038   7.736   8.414  14.337 -0.0973 -0.3572  0.0968
15855W        W32039   0.600   5.674  16.034 -0.2958 -0.1424  0.0551
15856W        W32040   5.777   9.384   2.810  0.4343  0.0049 -0.0365
15857W        W32041   4.997   8.940  14.186 -0.3031 -0.2368 -0.1074
15858W        W32042   8.540  12.602  15.527 -0.0462  0.0979 -0.1454
15859W        W32043  12.264  11.280   0.239 -0.0810 -0.2130 -0.0469
15860W        W32044  17.470   2.267   2.885 -0.0552  0.2621  0.0018
15861W        W32045   7.827   8.566   4.952 -0.0649  0.0368 -0.2961
15862W        W32046  11.666   3.732   1.159  0.1757  0.2338  0.0830
15863W        W32047  14.329  17.567  15.341 -0.0440 -0.1146 -0.0539
15864W        W32048   0.432  15.892   3.269  0.5322  0.0243  0.0222
15865W        W32049   9.568  17.698  14.698 -0.2875  0.0708 -0.4733
15866W        W32050  12.086   2.817   3.102 -0.1747 -0.0514 -0.0676
15867W        W32051   2.982   2.857  15.544  0.1406  0.1065 -0.2512
15868W        W32052  12.383  11.548   2.016  0.2114 -0.1367 -0.3311
15869W        W32053   9.856   3.155  16.824  0.1140 -0.1473  0.0209
15870W        W32054   6.225   2.040  14.996 -0.3537  0.1515  0.4034
15871W        W32055   0.897   5.112   2.285  0.0383 -0.0134 -0.0795
15872W        W32056   0.118   1.861  15.649  0.1572  0.0099 -0.3068
15873W        W32057   0.295   0.326  12.082  0.0099 -0.4130 -0.1703
15874W        W32058  14.875  15.032  15.136 -0.0143 -0.2570  0.4214
15875W        W32059   8.872   0.599   5.188 -0.1322  0.3249 -0.0904
15876W        W32060   5.113   3.944  15.254  0.2603 -0.0914 -0.0247
15877W        W32061   9.404   4.307   0.511 -0.3392 -0.0527  0.0321
15878W        W32062  17.684   6.897  15.143  0.1127  0.0212 -0.0091
15879W        W32063  15.757  14.009  15.481  0.1204  0.3358 -0.2776
15880W        W32064   5.369   8.832   2.154  0.0691 -0.0350  0.3080
15881W        W32065  11.240  14.358  10.543 -0.0503 -0.2435 -0.0558
15882W        W32066  15.570   6.619  15.000  0.0265  0.0845  0.0465
15883W        W32067  14.407   4.481  13.662  0.3611  0.0583 -0.0730
15884W        W32068  14.933   4.082   5.345 -0.1296 -0.1328 -0.0187
15885W        W32069   4.763  16.486  11.185  0.0258 -0.1280  0.2709
15886W        W32070   1.092  17.039   3.519  0.1344 -0.3461  0.0166
15887W        W32071   5.023   7.632  14.208 -0.1003 -0.1654  0.0308
15888W        W32072   3.693  13.650  12.604  0.0164  0.0761  0.1544
15889W        W32073   4.205  10.216  12.484  0.0021  0.2983  0.1434
15890W        W32074  14.823   2.065   2.204 -0.2915 -0.2666 -0.0037
15891W        W32075   6.152   8.629  12.372  0.0511  0.2271 -0.2417
15892W        W32076   0.904   0.501   1.434  0.0467  0.2648  0.2439
15893W        W32077   5.600   1.669  14.944  0.3124  0.0026 -0.1158
15894W        W32078   3.810  14.831  15.355 -0.2677  0.1199  0.0855
15895W        W32079   1.434  14.923   5.424 -0.1264  0.1642  0.0421
15896W        W32080   4.388  16.342  16.891  0.1489 -0.2075 -0.0374
15897W        W32081   2.919   7.349   5.903  0.1675  0.0473  0.3246
15898W        W32082  15.645   2.426   2.772  0.3579 -0.1776 -0.0287
15899W        W32083   2.166  14.300  14.382  0.3477 -0.1731  0.2376
15900W        W32084  10.273  14.776   2.098  0.1461 -0.0577 -0.1002
15901W        W32085   2.343   1.419  11.808  0.2492 -0.1319 -0.3416
15902W        W32086  14.520   4.471   0.762  0.0145 -0.1111  0.0386
15903W        W32087  11.544  11.022   5.289  0.1690  0.1182 -0.0325
15904W        W32088  12.407  12.233   4.691  0.0122  0.0136  0.1623
15905W        W32089   8.240  17.827  14.523  0.2249 -0.0719 -0.1931
15906W        W32090  10.599  12.361  13.047  0.2664 -0.0899  0.1534
15907W        W32091  10.592   7.881   3.693 -0.1337  0.3307 -0.1901
15908W        W32092  11.907   5.341  14.513 -0.0993 -0.0033  0.1570
15909W        W32093  10.947  11.125   4.586 -0.0606 -0.3220  0.1343
15910W        W32094  13.873   7.177  14.316  0.0598 -0.0050 -0.0670
15911W        W32095  10.030   9.701  15.931 -0.0976 -0.0197  0.0085
15912W        W32096   0.904  10.420   4.081 -0.1063  0.0992 -0.0155
15913W        W32097   4.953  13.795  16.625 -0.0445 -0.2976  0.0293
15914W        W32098  12.409   8.673  12.251 -0.4129  0.2010  0.4763
15915W        W32099   0.781   3.438  14.823  0.0600  0.0631  0.0762
15916W        W32100   7.043   4.550  12.830  0.0153 -0.3300 -0.1869
15917W        W32101  16.367   8.975  15.907 -0.0032  0.0445  0.2769
15918W        W32102   6.032   9.823   4.803 -0.0735  0.0968  0.0479
15919W        W32103  10.348  13.269  11.622 -0.1199  0.0166 -0.0215
15920W        W32104  11.599  15.388  11.957 -0.0054  0.1498 -0.0633
15921W        W32105  16.511   2.095   2.802  0.2027 -0.0402  0.0259
15922W        W32106   9.718  11.825   3.145  0.2512 -0.0038  0.0087
15923W        W32107   3.422  14.799   4.861 -0.0995  0.1725  0.0689
15924W        W32108  17.557   3.772   1.952 -0.2396  0.0241 -0.1102
15925W        W32109  12.438  13.317   1.589  0.2040  0.2657  0.2985
15926W        W32110  10.696   3.990   0.169  0.1667  0.1604 -0.2483
15927W        W32111  17.129   7.065   4.090 -0.2274 -0.0666  0.2644
15928W        W32112   4.814  12.262   2.947  0.1808 -0.1962 -0.1193
15929W        W32113   5.062   0.917   5.711  0.1395 -0.2562  0.1455
15930W        W32114  17.674   4.579  13.695 -0.1776 -0.0679  0.3530
15931W        W32115   8.760  15.975  12.889 -0.0366 -0.1978 -0.1138
15932W        W32116   9.666   5.984  16.637  0.0340 -0.1344 -0.1001
15933W        W32117  14.706   6.079   1.409 -0.2992  0.2197  0.1922
15934W        W32118  15.867  17.471  14.643  0.0517  0.0327 -0.2505
15935W        W32119   9.554   0.247   0.751 -0.0634  0.0416 -0.0146
15936W        W32120   0.391  12.521   3.918 -0.4230 -0.5330 -0.1033
15937W        W32121   3.683  16.437   4.838  0.1445 -0.1433 -0.3437
15938W        W32122  17.726   9.480  15.218  0.1661  0.0778  0.0438
15939W        W32123   5.773   4.855  14.202  0.1313  0.0476  0.2910
15940W        W32124  17.080  10.700   4.724  0.0291 -0.2526 -0.2388
15941W        W32125  10.661  11.246   5.448 -0.2607 -0.2372 -0.0945
15942W        W32126   6.742   1.215   5.072 -0.1979  0.1116 -0.0674
15943W        W32127   8.866  16.333  10.309 -0.0567  0.1151  0.0088
15944W        W32128  17.075  10.060  16.839 -0.1445  0.0327  0.1521
15945W        W32129  10.827   7.581  13.391 -0.3272  0.0541  0.0112
15946W        W32130   3.763   5.944   0.279  0.2118  0.0651 -0.3200
15947W        W32131  17.684   1.322  15.678  0.0634 -0.1088  0.3402
15948W        W32132   1.125   3.438  14.481  0.2508 -0.0143  0.2036
15949W        W32133  13.083  10.323  12.153  0.1865 -0.1306  0.1143
15950W        W32134   8.316   1.099   3.135 -0.3666  0.0803  0.1178
15951W        W32135   9.031  16.895   4.220 -0.1631  0.0901 -0.2519
15952W        W32136   9.643   8.219  12.369 -0.3684 -0.0651  0.1083
15953W        W32137   9.127  15.673  15.229  0.1657 -0.0577 -0.3358
15954W        W32138   9.760  13.382  14.204 -0.1376  0.0569 -0.2402
15955W        W32139   6.022  10.655   1.182  0.0268 -0.3754 -0.2284
15956W        W32140  15.616  10.027  15.320 -0.1805 -0.1251 -0.1074
15957W        W32141   8.607   3.057   1.076  0.0400  0.2869  0.1376
15958W        W32142  12.179   4.431  11.266  0.1601 -0.1753  0.3544
15959W        W32143   4.136   2.013   0.226 -0.5240 -0.2292 -0.3028
15960W        W32144   1.840  11.552   1.920 -0.0171 -0.0828  0.0613
15961W        W32145   6.655  15.578   5.607 -0.0411  0.1692 -0.0037
15962W        W32146   7.896   7.500   4.124  0.0677 -0.1002  0.0163
15963W        W32147   4.294   3.706   2.238  0.1049 -0.0354 -0.2213
15964W        W32148  11.563   3.653  12.939  0.0112  0.1794  0.0195
15965W        W32149   2.029   3.352   4.783 -0.0093  0.0367  0.1636
15966W        W32150   8.201  17.774   1.013  0.0191 -0.2984 -0.0461
15967W        W32151   6.085  15.654   4.277  0.0906  0.0989  0.3385
15968W        W32152  17.629  14.679  14.971  0.1409 -0.1068 -0.0002
15969W        W32153  14.598  12.318   5.985  0.1314 -0.3027 -0.2620
15970W        W32154   3.073   8.434  13.276  0.4747  0.1962 -0.3484
15971W        W32155   4.070   9.491  12.776  0.0506 -0.2141 -0.1218
15972W        W32156   3.636   6.599   2.386 -0.1896  0.1152 -0.0339
15973W        W32157  14.412  15.362   1.152  0.0942 -0.1067  0.0204
15974W        W32158  11.253  14.971   6.146  0.2228 -0.3534  0.0141
15975W        W32159   0.982  10.474  13.199 -0.3315 -0.0513  0.3181
15976W        W32160  15.971  12.803   3.047  0.1657 -0.1068 -0.1068
15977W        W32161  17.166  15.225  11.982  0.0572  0.1907 -0.0532
15978W        W32162   2.751   1.981  13.444  0.2617 -0.0707  0.0232
15979W        W32163  15.055   8.744  14.939 -0.1165 -0.1313 -0.1252
15980W        W32164  15.268  12.104  16.721  0.2157  0.1049 -0.0597
15981W        W32165  16.821   5.617  16.913  0.2892  0.0615 -0.0094
15982W        W32166   1.544   9.372  15.432  0.2559  0.0750  0.0538
15983W        W32167   3.793   5.969   3.591 -0.0587  0.2812  0.3169
15984W        W32168   8.713   6.124  16.347  0.0637 -0.1026 -0.1415
15985W        W32169  16.747   1.739   2.518 -0.1012 -0.0361  0.2093
15986W        W32170  13.979  10.289  16.754 -0.1075  0.0881 -0.1074
15987W        W32171  13.868  14.980  12.585 -0.0589  0.2433 -0.0791
15988W        W32172  11.524  17.591  11.719  0.0701  0.2950  0.0269
15989W        W32173  15.380   7.318   3.607 -0.3735  0.0438  0.0040
15990W        W32174  10.161  10.769   4.913 -0.0416 -0.1939 -0.2324
15991W        W32175  12.522  16.873   2.009  0.1916  0.3975 -0.0005
15992W        W32176  15.726  13.062  14.778  0.0352  0.0150  0.0166
15993W        W32177   1.375  10.119   5.555  0.1376 -0.0497 -0.4643
15994W        W32178   4.057   0.568   2.162 -0.0227 -0.1686  0.0861
15995W        W32179  15.473  16.988   4.709  0.1754 -0.0643 -0.2691
15996W        W32180   0.047  16.946   4.799 -0.1320 -0.0140 -0.1718
15997W        W32181  14.365   9.841   1.321 -0.3026 -0.0858  0.0826
15998W        W32182   7.577  14.096   5.212  0.0324 -0.2387 -0.0195
15999W        W32183   3.163  11.142   0.273  0.0549 -0.1363 -0.4277
16000W        W32184   3.617   6.225   4.955  0.0020 -0.1119  0.1181
16001W        W32185   3.948  13.791   0.634  0.1015 -0.0558  0.0165
16002W        W32186  13.236  14.674   5.530 -0.0162  0.0366  0.0599
16003W        W32187   0.486   2.231   4.680 -0.1272 -0.0658 -0.0254
16004W        W32188  13.723   4.198   3.314  0.2525  0.0432  0.0324
16005W        W32189   9.315  15.942  16.168  0.1143 -0.0538 -0.1509
16006W        W32190  12.934   0.514  14.254  0.0455  0.0576  0.2172
16007W        W32191  16.602   3.484   0.551  0.1003 -0.2514 -0.4240
16008W        W32192  15.463  14.877   1.684  0.1984  0.0898  0.0847
16009W        W32193  11.895  11.468   2.137 -0.3392  0.3937 -0.0322
16010W        W32194   6.247  12.407  12.392  0.2499  0.2469 -0.0750
16011W        W32195   2.321   9.468   6.298  0.0983 -0.2533  0.0262
16012W        W32196   1.895   1.743  13.425  0.0072 -0.2796  0.4229
16013W        W32197   0.862   5.409   6.305 -0.2289  0.0057  0.1791
16014W        W32198   8.901   1.951   2.806  0.1426  0.0919  0.0414
16015W        W32199  10.238   9.984   1.704 -0.1642 -0.1407  0.0729
16016W        W32200   9.899   8.484   4.212  0.3710 -0.1682 -0.1224
16017W        W32201   2.677  14.568   5.521 -0.6193  0.0608 -0.1203
16018W        W32202  11.148   7.512  11.246  0.0197  0.4619  0.1288
16019W        W32203  14.333   4.114  12.614  0.2288  0.0218  0.1329
16020W        W32204   1.936   2.168   3.877 -0.2147 -0.0421  0.0072
16021W        W32205   0.604  13.459  14.571  0.1827 -0.1772  0.5309
16022W        W32206   2.830  17.739  16.089 -0.0945 -0.3832  0.0968
16023W        W32207  12.610   1.732   5.263  0.3622  0.2062  0.0827
16024W        W32208  11.794   0.563   0.879  0.2365  0.1087  0.1500
16025W        W32209   5.315  12.506  14.529 -0.0847 -0.0661  0.0557
16026W        W32210   2.176  11.994  16.729 -0.1676  0.2435  0.1206
16027W        W32211  16.734   0.755   2.533 -0.1709 -0.0863 -0.1035
16028W        W32212  16.372   0.664   4.104  0.0036 -0.1766 -0.2211
16029W        W32213   2.903   0.509   2.663  0.2295  0.1018  0.2560
16030W        W32214   0.088   6.790  13.905  0.1079 -0.0026  0.0509
16031W        W32215   7.960  17.586   4.811  0.2576 -0.2433 -0.1714
16032W        W32216  16.658  11.938   5.217 -0.1684  0.3634  0.1744
16033W        W32217  11.310   4.749   3.825  0.0752 -0.4427 -0.0478
16034W        W32218  17.782  12.812   5.448 -0.1460 -0.2299  0.2906
16035W        W32219  17.346   1.936  14.992  0.0117 -0.1343  0.2680
16036W        W32220   7.354  13.890  15.514  0.0651  0.0239  0.1860
16037W        W32221   3.348  17.634   0.012 -0.2578 -0.0927  0.2391
16038W        W32222  14.098   3.883   1.568  0.0744  0.0973 -0.0236
16039W        W32223   1.789   6.442   5.570 -0.0248 -0.3365  0.3834
16040W        W32224  14.380   7.053  14.019 -0.1687 -0.1594  0.3642
16041W        W32225   4.150  17.067   4.355 -0.1743 -0.1072 -0.0172
16042W        W32226   4.034   0.522  15.431  0.2305 -0.1002 -0.0218
16043W        W32227   3.017  12.728  15.117 -0.1830  0.1098 -0.2915
16044W        W32228   7.092   4.554  14.350  0.1460 -0.0415 -0.2770
16045W        W32229   6.231   6.703  15.815 -0.2031  0.1551  0.0736
16046W        W32230   1.647  10.540   0.298 -0.6659 -0.2904  0.2739
16047W        W32231   9.720   6.482   3.495  0.2054  0.2623 -0.1331
16048W        W32232  17.125  14.682  13.721  0.1155  0.0016 -0.1113
16049W        W32233  10.316  11.366   0.963  0.1324 -0.4341  0.0064
16050W        W32234   1.233  13.021   4.211  0.0970  0.2518  0.0116
16051W        W32235   1.936   0.756   3.603  0.1683  0.0811 -0.0782
16052W        W32236   9.541  12.600  14.755  0.0134 -0.3832  0.0246
16053W        W32237   0.792   2.501  15.025 -0.0093 -0.1697 -0.3071
16054W        W32238  11.987  15.835  14.283 -0.1809 -0.1740  0.1820
16055W        W32239   2.385  14.031   4.796  0.1251 -0.2303 -0.0677
16056W        W32240  13.201  13.372  12.789 -0.1344 -0.2330  0.1985
16057W        W32241   6.493   2.958  12.108 -0.3500 -0.0060 -0.2354
16058W        W32242   8.468   8.668  12.612  0.0723 -0.3410  0.2620
16059W        W32243  11.690  10.086  13.206 -0.0751  0.2024 -0.3374
16060W        W32244   8.049   5.025   1.937  0.2657 -0.0251  0.2678
16061W        W32245  10.665  16.144  13.221  0.1639  0.2085  0.5882
16062W        W32246  10.453  13.733  16.183 -0.1673  0.1545 -0.3683
16063W        W32247   7.947  17.661  13.990 -0.0069 -0.0514  0.2870
16064W        W32248   5.796   7.172   0.065 -0.2253  0.0328 -0.2646
16065W        W32249  15.083  17.127  13.829 -0.1151  0.3756 -0.0369
16066W        W32250  12.340   7.756  14.475  0.0503 -0.1031  0.2451
16067W        W32251   0.569   7.211  12.379 -0.1894 -0.0613  0.3049
16068W        W32252   3.638   7.549  16.446  0.1613  0.1458 -0.2060
16069W        W32253  11.016  16.717  13.170 -0.1624  0.2198 -0.1118
16070W        W32254  17.305  11.408  16.785 -0.0459  0.1573  0.3115
16071W        W32255  10.109   7.237   2.286  0.1280 -0.1184  0.1108
16072W        W32256   6.076  14.966   2.632  0.3940  0.0182 -0.2320
16073W        W32257   3.400   1.716  12.674  0.1114 -0.1322 -0.0672
16074W        W32258   4.107   8.596   0.781 -0.1590  0.0177  0.0071
16075W        W32259  11.684   8.495  16.015  0.2945 -0.2747  0.1177
16076W        W32260   5.737   0.979  16.101  0.1976 -0.2724  0.0087
16077W        W32261  13.408   5.650  13.333  0.0232  0.0965 -0.0712
16078W        W32262   0.134  15.419   0.967  0.2799  0.0407  0.0679
16079W        W32263  17.703   9.818  12.585  0.1467 -0.2081  0.0215
16080W        W32264   5.740  11.116  16.401  0.0798  0.0346 -0.0113
16081W        W32265   5.594   5.249  12.916 -0.2928 -0.0449 -0.0116
16082W        W32266   8.516   5.487  13.969  0.0636  0.2690  0.0571
16083W        W32267  10.920   0.928  13.784  0.1321  0.0907  0.0671
16084W        W32268  14.439   9.885   3.267 -0.2170  0.2568  0.1041
16085W        W32269  15.321   2.290   3.461 -0.1249 -0.4838  0.0310
16086W        W32270   1.974   7.688   5.591 -0.0121  0.3262 -0.0740
16087W        W32271   3.519   1.256   4.885  0.1268  0.2003 -0.0989
16088W        W32272   8.695   8.631   0.423  0.2712  0.0678 -0.1274
16089W        W32273  10.431   2.018  14.255 -0.1281 -0.1219  0.2082
16090W        W32274  16.076   3.543   0.459  0.1223  0.0422  0.0253
16091W        W32275   7.582  12.864  11.425  0.0328  0.0389 -0.1589
16092W        W32276   3.306   9.730   4.121 -0.2417  0.1248  0.0561
16093W        W32277  14.691   7.734   5.567 -0.1393  0.0537 -0.1018
16094W        W32278   5.478  11.044   2.958 -0.1913  0.0745 -0.0427
16095W        W32279  15.962   2.252   0.234 -0.1509  0.1742  0.4288
16096W        W32280   1.282  16.908  15.814 -0.2809  0.1950 -0.0231
16097W        W32281   7.974   7.276   0.361  0.1566  0.1236  0.0801
16098W        W32282   2.491   6.173   4.575 -0.1497 -0.0329  0.0703
16099W        W32283   2.002  10.032   1.064  0.2923  0.0196  0.0312
16100W        W32284  12.474  11.835  12.942  0.2977  0.0875  0.3977
16101W        W32285   4.153  12.749   0.694 -0.1033 -0.2318 -0.0231
16102W        W32286  13.513   4.228   2.379  0.2449  0.0801  0.0188
16103W        W32287   6.730  11.592   5.178  0.2853  0.1150  0.0189
16104W        W32288   1.629   2.235  14.094 -0.0808 -0.0790 -0.3359
16105W        W32289   3.605   3.608  15.113  0.0297  0.1510  0.2076
16106W        W32290   8.320  11.222   0.777  0.3335  0.1212 -0.0375
16107W        W32291   6.487   8.316  16.010 -0.2438 -0.1133  0.1079
16108W        W32292   1.803  17.203   1.700 -0.0065  0.0185 -0.1813
16109W        W32293   0.966  15.199  14.804 -0.3156  0.1786 -0.0714
16110W        W32294  11.342   1.354  12.069  0.3769  0.0659 -0.1309
16111W        W32295   1.485  13.301   2.165 -0.2820  0.0152 -0.0148
16112W        W32296   7.649   6.160   2.928  0.0070 -0.1930  0.1784
16113W        W32297  16.272  13.026  14.764  0.4254  0.1729  0.3523
16114W        W32298  15.013  12.336  15.394  0.0300  0.1401 -0.0361
16115W        W32299   3.268  15.498   0.402 -0.1339 -0.2848 -0.0209
16116W        W32300  14.326  16.759   0.099 -0.0278  0.0827  0.1845
16117W        W32301   9.803   9.737   4.530  0.2188 -0.4143 -0.0449
16118W        W32302   5.363   9.721   2.782 -0.1410  0.0054  0.0685
16119W        W32303   3.300  14.362   0.716 -0.4190 -0.0885  0.2696
16120W        W32304  16.060   3.981   3.802  0.0228  0.0240 -0.0861
16121W        W32305   1.156   0.527   4.104 -0.1508 -0.1120 -0.2146
16122W        W32306  11.016  11.348   3.255  0.4239  0.1531  0.2307
16123W        W32307  10.246   2.509  16.654 -0.0114 -0.1414 -0.1293
16124W        W32308   4.374  14.763  12.116  0.0119 -0.2622 -0.3527
16125W        W32309  16.384  13.472  13.329 -0.1488  0.1815 -0.0377
16126W        W32310   4.325   1.185   3.316  0.0065 -0.0223  0.3232
16127W        W32311   1.363  11.245  12.659 -0.0979  0.1031  0.1160
16128W        W32312   1.048  12.584  16.136 -0.0948  0.0474  0.0965
16129W        W32313  10.226   4.587  15.864 -0.2230  0.1577  0.4723
16130W        W32314   9.884   0.258   1.720 -0.1250 -0.1259 -0.1167
16131W        W32315  10.121  12.202  16.439 -0.1014  0.1794  0.3303
16132W        W32316   9.421  14.543  15.978 -0.2780 -0.1539 -0.0247
16133W        W32317   7.607  15.241  12.664 -0.2724  0.0538  0.4543
16134W        W32318  15.806   7.118  16.913 -0.1747 -0.2228 -0.1024
16135W        W32319  16.337  16.416  15.677 -0.0254  0.0255  0.3430
16136W        W32320   9.445   7.243  16.236 -0.0714  0.4442  0.1245
16137W        W32321   5.485  13.437  12.203  0.1735 -0.0380  0.1400
16138W        W32322  17.208  10.029   3.972 -0.0949 -0.2753 -0.0893
16139W        W32323  12.008  10.568   1.316 -0.0617  0.0838 -0.1129
16140W        W32324  13.953  17.756  14.069 -0.3537  0.1389  0.1844
16141W        W32325   6.436   7.051   3.034  0.0818  0.1666 -0.0171
16142W        W32326  16.305   1.103   3.871  0.2175  0.0164  0.0678
16143W        W32327   2.705   9.697   5.278 -0.2039  0.0076  0.0441
16144W        W32328   8.250   3.472  13.947  0.0251  0.0606  0.2648
16145W        W32329  15.422  12.998  13.505  0.1776 -0.2384 -0.1566
16146W        W32330  13.100  11.832  15.634  0.1357  0.0859 -0.0377
16147W        W32331   1.534   0.904  12.379  0.0185 -0.1976  0.1249
16148W        W32332   3.233   9.421  11.813 -0.3411  0.0331  0.3047
16149W        W32333   9.944   2.055  15.214  0.4104  0.0225 -0.2033
16150W        W32334  15.496  13.990   3.284 -0.2463 -0.1051 -0.1875
16151W        W32335   6.696   6.905   1.822 -0.2637  0.2777  0.1262
16152W        W32336   1.683  17.772   5.146  0.0489  0.1299  0.0686
16153W        W32337   5.105   1.792  12.599  0.0281 -0.1025  0.1092
16154W        W32338  11.110  13.573   0.650  0.1414  0.1190  0.0586
16155W        W32339   2.339   1.229   2.569  0.1660 -0.0075  0.5155
16156W        W32340  17.488   9.337  11.289 -0.0582  0.1060 -0.2006
16157W        W32341   4.229   6.271   4.312  0.0424 -0.0212 -0.1068
16158W        W32342   0.798   8.498   5.720 -0.0092  0.0321  0.1183
16159W        W32343   4.979  13.785   0.974  0.2231  0.1835 -0.0598
16160W        W32344   5.956   7.613  12.589  0.1619 -0.2972 -0.2247
16161W        W32345  14.654   4.374  12.202 -0.1108 -0.2993  0.0761
16162W        W32346   9.486  15.829  12.455 -0.0750 -0.0242 -0.1836
16163W        W32347  14.882  12.629  14.118  0.2499 -0.1774  0.4295
16164W        W32348  15.008  15.026   2.446  0.1363 -0.1210 -0.0705
16165W        W32349  14.420  17.735  13.773 -0.2414 -0.1345 -0.3975
16166W        W32350   1.621   2.048   4.242  0.3041  0.3718  0.0172
16167W        W32351  11.285   5.226   1.272  0.1576  0.1145  0.1031
16168W        W32352   7.807  13.277   2.856  0.2791  0.2798 -0.2952
16169W        W32353  15.012   1.375  15.524 -0.0166 -0.2725  0.2865
16170W        W32354  15.448   1.520  14.775 -0.1663 -0.1513 -0.0862
16171W        W32355  16.770  15.626  12.009 -0.1580 -0.0382 -0.2762
16172W        W32356   8.755  14.323   1.193 -0.2114 -0.1001  0.1164
16173W        W32357   4.376   8.789   4.147  0.0179  0.1057  0.2247
16174W        W32358   1.815  15.987   2.366  0.0112 -0.0566 -0.0823
16175W        W32359   2.004   2.933  15.535  0.3408  0.2758  0.2892
16176W        W32360   0.396   1.210   0.759  0.0885  0.1651 -0.0787
16177W        W32361  14.089   3.270  14.716 -0.1732 -0.1117 -0.3810
16178W        W32362   0.249   3.649   6.267 -0.4127  0.2927  0.2802
16179W        W32363   3.105  14.680  15.578  0.1658 -0.1401 -0.2318
16180W        W32364   6.452  11.579   2.718  0.0644 -0.2642  0.0027
16181W        W32365  16.011   2.042   2.840  0.0522 -0.3332  0.2733
16182W        W32366  14.720  10.142   0.412 -0.2975 -0.1139  0.1275
16183W        W32367   8.018  15.858  10.549  0.2106  0.0038 -0.1249
16184W        W32368   4.050   5.692  14.527 -0.0662 -0.0690 -0.2621
16185W        W32369  16.958   5.114  15.435  0.0803 -0.1071 -0.1285
16186W        W32370  13.980  15.979   0.738  0.1753  0.0982 -0.1747
16187W        W32371  11.246   2.805  15.579 -0.0476 -0.3910  0.4561
16188W        W32372  12.858   0.248   1.565  0.0756 -0.1703  0.2473
16189W        W32373  11.163  14.767  13.247 -0.2387 -0.0688 -0.0591
16190W        W32374   6.819  12.353  14.304 -0.2887  0.0460  0.1126
16191W        W32375   8.809  11.985   1.051  0.1615 -0.0166  0.0666
16192W        W32376   6.570   4.486  11.960  0.1670 -0.1868 -0.0774
16193W        W32377  13.943  13.790   1.321  0.0139 -0.1573  0.0508
16194W        W32378   3.198   3.730  12.701  0.0350 -0.1780  0.0528
16195W        W32379   0.930  16.150   1.941 -0.0873 -0.0147  0.1850
16196W        W32380   6.707   5.868  11.105  0.1210 -0.1256  0.1659
16197W        W32381  11.430   1.258   2.056 -0.2817 -0.1627 -0.3612
16198W        W32382   9.493   6.432   5.931 -0.0298  0.0522  0.0584
16199W        W32383  11.812  13.330   2.904 -0.1182 -0.0444  0.1605
16200W        W32384   0.642   8.657   6.291 -0.0076  0.0146 -0.0876
16201W        W32385   5.532   0.064  16.346 -0.1037 -0.2098 -0.2209
16202W        W32386   9.852  17.833  16.904  0.1951 -0.0660 -0.0833
16203W        W32387   1.845   7.722   4.498  0.1150 -0.4879 -0.2231
16204W        W32388   1.279  14.560  13.267 -0.1882 -0.0305  0.0584
16205W        W32389   7.442   2.134   2.038  0.0568  0.2742 -0.2492
16206W        W32390   7.591  13.290  14.015 -0.2080 -0.2552  0.2561
16207W        W32391   3.058   8.768   1.812  0.0306  0.0190 -0.0309
16208W        W32392   1.424   3.935   1.878  0.1804  0.4091  0.0532
16209W        W32393  13.575   9.172  14.359 -0.0468  0.2100  0.1918
16210W        W32394  16.889  11.422  14.387 -0.2095  0.1187 -0.0750
16211W        W32395  17.127   2.650   0.588 -0.1921 -0.0436  0.0366
16212W        W32396  12.861   3.516  11.361  0.1406 -0.0638  0.3753
16213W        W32397  14.794  13.869   4.398  0.2722 -0.4543 -0.0155
16214W        W32398  13.320   9.910  16.769 -0.0739  0.3649  0.1576
16215W        W32399  16.975  16.034  16.256  0.0772 -0.1641  0.0637
16216W        W32400   8.473  14.099  14.614 -0.4640 -0.3270  0.0998
16217W        W32401   3.911   4.586   3.217  0.0596 -0.2663  0.2459
16218W        W32402  14.746   7.935   2.157  0.0236 -0.1376  0.1233
16219W        W32403   2.909  10.498  15.669 -0.0560  0.0038  0.1213
16220W        W32404   3.832  12.622  15.416 -0.0074 -0.0118 -0.0467
16221W        W32405   7.565   1.938  14.656  0.1390 -0.0283 -0.1591
16222W        W32406   1.844   9.902  12.679 -0.1960  0.0010 -0.2010
16223W        W32407   7.060   0.213   0.245 -0.0290  0.4649  0.1855
16224W        W32408   3.820  11.337   1.553 -0.1097  0.0603  0.1333
16225W        W32409  10.862   8.271  12.743 -0.0191  0.0351  0.3757
16226W        W32410  16.456   2.771   1.138 -0.1308  0.2813 -0.2464
16227W        W32411   5.347   0.457   4.183 -0.1303  0.0515  0.0898
16228W        W32412   9.699  10.567   5.081 -0.0920  0.1359  0.1822
16229W        W32413  16.075   2.925  12.821  0.0274  0.1325  0.1842
16230W        W32414   4.744   7.693  15.975 -0.1932 -0.2885  0.0239
16231W        W32415  15.647   3.622  12.644  0.0855 -0.1201 -0.1092
16232W        W32416   3.394  13.596  13.165  0.1379 -0.0447  0.0164
16233W        W32417  12.073   6.378   5.893  0.0603 -0.1926 -0.0618
16234W        W32418   6.989   1.485   2.202 -0.0401 -0.2682 -0.3663
16235W        W32419   4.433   5.212   5.297  0.2439  0.1447  0.1519
16236W        W32420   7.229   9.189   2.428 -0.1483 -0.2874 -0.0594
16237W        W32421  12.529   0.491   3.631  0.1942  0.0580 -0.3917
16238W        W32422   9.764   7.895   2.595 -0.1854 -0.3009  0.1454
16239W        W32423   1.406   2.195  12.263 -0.3739 -0.2170 -0.2398
16240W        W32424   7.848  14.846   1.108  0.2352 -0.3498 -0.0526
16241W        W32425   3.261   5.026   1.608 -0.1293 -0.1581  0.2720
16242W        W32426  14.553  10.718   1.419 -0.0211 -0.1597  0.1247
16243W        W32427   1.250   1.215  12.041  0.0032  0.3553 -0.0306
16244W        W32428  15.306  10.960  12.582  0.0450  0.1504  0.2070
16245W        W32429  13.074  16.365  12.680  0.3595  0.0734  0.0089
16246W        W32430   0.644  17.738   0.875 -0.1447  0.1850 -0.3665
16247W        W32431  10.815  15.556   2.198  0.2972  0.0733 -0.1378
16248W        W32432  16.945  17.547  15.700  0.0643 -0.1560 -0.1543
16249W        W32433   4.059   1.068   3.727 -0.1034 -0.0239  0.2072
16250W        W32434   5.620  10.312  14.556  0.1135  0.2478 -0.2639
16251W        W32435  10.743  17.499  11.731  0.0720  0.5371 -0.1267
16252W        W32436   5.216   6.962  16.917 -0.0199  0.0903 -0.5181
16253W        W32437  10.675  11.565  15.212  0.2263 -0.0054 -0.0760
16254W        W32438   3.555  15.098  14.978 -0.0897  0.3040  0.1078
16255W        W32439  12.022  12.020  14.506 -0.0527  0.0744 -0.1735
16256W        W32440   8.556   5.617  13.513  0.1626 -0.1929 -0.0664
16257W        W32441   0.535   6.426  12.890  0.1005  0.3752  0.0034
16258W        W32442   8.906   7.910  11.888  0.2133  0.0945 -0.0173
16259W        W32443  11.800  15.779  13.745 -0.0339 -0.0130 -0.1107
16260W        W32444   0.561  11.231  13.011 -0.1558 -0.0268 -0.2432
16261W        W32445   5.428  16.100  11.460  0.1242 -0.0624 -0.0166
16262W        W32446  17.387  13.098  16.269  0.2400 -0.2057 -0.0215
16263W        W32447  16.637  16.567  12.026  0.0882  0.1552 -0.0746
16264W        W32448  16.565   4.071  14.521  0.2316 -0.3678  0.0734
16265W        W32449  12.448  13.876  13.952 -0.1020  0.0269  0.1198
16266W        W32450  17.181  11.802   4.808  0.0822 -0.0020 -0.0286
16267W        W32451   0.756  16.780  14.803  0.1184  0.0416  0.0420
16268W        W32452   3.574   3.296  13.092 -0.0007  0.0885 -0.3243
16269W        W32453  15.808   1.417   0.132 -0.0921 -0.0541  0.2376
16270W        W32454  14.717   5.630  15.248  0.0243  0.0726  0.0925
16271W        W32455   3.014  14.315  12.460  0.0506 -0.1492  0.0163
16272W        W32456  10.742  15.863  16.784  0.0803  0.0526 -0.1117
16273W        W32457  17.584   0.785  14.179  0.0295 -0.1078 -0.2511
16274W        W32458   2.347   0.051   1.338 -0.0004  0.0822 -0.1143
16275W        W32459  11.913  14.737  16.936  0.0168  0.2247 -0.2870
16276W        W32460   2.025  15.139  13.030 -0.0959 -0.1102  0.0304
16277W        W32461  17.751   3.447  16.560 -0.0490 -0.1863  0.1292
16278W        W32462   5.483  13.323   3.307  0.2587 -0.2262 -0.0281
16279W        W32463  10.353  11.120   3.433  0.3205 -0.2141 -0.0605
16280W        W32464  10.857   3.232   0.752 -0.1244 -0.2111  0.0432
16281W        W32465   3.187   6.740   3.087 -0.3325 -0.0536  0.1817
16282W        W32466  10.422  13.464   4.550 -0.0162 -0.3152  0.1769
16283W        W32467  16.248   2.445   5.442 -0.1865  0.0645  0.1407
16284W        W32468   4.156  10.406   0.460  0.3036 -0.1122  0.1387
16285W        W32469  12.005  12.625  12.752 -0.0952 -0.1656 -0.2348
16286W        W32470  13.868  15.738   4.840 -0.0251  0.1104 -0.0060
16287W        W32471  10.380   9.009   1.528 -0.2053  0.1834 -0.0223
16288W        W32472  15.094   1.220   1.518  0.2391  0.1013 -0.1032
16289W        W32473   4.660   9.608   0.720 -0.4521 -0.0824  0.2387
16290W        W32474  17.768   2.326  12.539 -0.1499  0.1209  0.2525
16291W        W32475  17.762   7.458  15.035 -0.1488  0.1014  0.1372
16292W        W32476   9.782   0.257   6.175  0.1360 -0.0611  0.1533
16293W        W32477   1.707  14.522   0.282 -0.0917 -0.2300  0.1575
16294W        W32478  13.885  16.594  16.864  0.0193  0.1534 -0.1543
16295W        W32479  15.137  17.845  14.308 -0.0667  0.1020 -0.2501
16296W        W32480  14.084  13.053   4.686 -0.0764  0.1754  0.1686
16297W        W32481   6.723  11.194   5.871  0.0323 -0.0083 -0.1236
16298W        W32482  12.655   1.016   1.224 -0.2565 -0.0074 -0.1233
16299W        W32483   5.885   6.507   2.120  0.0491  0.2324  0.1680
16300W        W32484   8.196  10.222   2.218  0.0330  0.0451 -0.0619
16301W        W32485   0.682   9.243   4.472  0.1538 -0.0091  0.2567
16302W        W32486  11.857  10.600  11.980  0.1288 -0.1382  0.0885
16303W        W32487   3.744   6.154   2.048  0.2305  0.1370 -0.1387
16304W        W32488   2.718   8.921   1.467  0.1678 -0.1738  0.1287
16305W        W32489   6.698   2.649  16.753  0.0938 -0.0240  0.0296
16306W        W32490   3.147   7.772   6.137 -0.1554 -0.2732  0.3368
16307W        W32491   1.011  10.402   4.995  0.1092 -0.2488 -0.2470
16308W        W32492   4.376  13.948  14.480  0.0619 -0.0406  0.3446
16309W        W32493   6.148   8.011   4.886  0.1964  0.1912  0.0710
16310W        W32494   9.352  17.770  15.127 -0.0555  0.0344 -0.4151
16311W        W32495   7.578   9.840  12.179  0.1122 -0.1287 -0.0723
16312W        W32496   6.185  11.962  12.616 -0.0762  0.1981  0.0288
16313W        W32497   3.674  10.248   3.303 -0.0337  0.0646 -0.2236
16314W        W32498  15.403   4.350   1.586  0.1513 -0.1416 -0.0198
16315W        W32499  14.162   3.086   3.032  0.0419  0.3755  0.1854
16316W        W32500  11.964   7.789   3.229  0.1793  0.1966 -0.2285
16317W        W32501   6.174  10.712   4.259  0.1402 -0.1565 -0.2988
16318W        W32502   0.120  10.117   2.488 -0.2564  0.3756  0.0579
16319W        W32503  15.423  16.667   5.936  0.0051 -0.0197  0.0609
16320W        W32504  17.510   0.887   1.782  0.0077  0.3427 -0.0635
16321W        W32505   9.013  15.707  12.514 -0.1121  0.4175  0.0329
16322W        W32506   4.384   5.478   2.905  0.2124 -0.2975  0.1376
16323W        W32507  15.795   3.706   0.819 -0.0156  0.1310 -0.1417
16324W        W32508  10.655   1.748  16.674  0.2065 -0.0442  0.0187
16325W        W32509  13.834   4.537   5.919  0.3202  0.0770  0.1655
16326W        W32510  10.293  14.653   3.331 -0.0930 -0.0678 -0.0363
16327W        W32511  11.539   3.382   2.886 -0.2983  0.1198  0.2877
16328W        W32512  11.512  10.972   2.881 -0.2833  0.0185  0.0315
16329W        W32513   9.057   1.547  14.985 -0.4063 -0.1039  0.1103
16330W        W32514  10.453   4.431   0.255  0.2143 -0.0853 -0.1131
16331W        W32515   6.238   5.768   5.123  0.0746 -0.0614  0.1492
16332W        W32516   1.817   4.206  13.482 -0.0093  0.1221 -0.2351
16333W        W32517   6.283   8.592  14.174  0.1696 -0.1265 -0.3026
16334W        W32518   3.064   8.056   2.542  0.0582 -0.2619  0.0124
16335W        W32519   3.174  16.457  12.121 -0.0302 -0.2311  0.1396
16336W        W32520  11.372   8.736   5.416  0.0120  0.0958 -0.0641
16337W        W32521   2.761   8.439  14.163  0.5218  0.0732  0.0777
16338W        W32522  16.514   7.526   4.107 -0.0731 -0.0011  0.1275
16339W        W32523   2.737  17.324  13.219 -0.1199  0.0301 -0.1904
16340W        W32524   6.594   3.997   4.158  0.0139  0.1947  0.0701
16341W        W32525   0.766  11.706   2.865 -0.0700  0.0574  0.0221
16342W        W32526   9.430   3.412   2.297 -0.0027 -0.1426  0.0255
16343W        W32527   2.050  13.502  13.021 -0.1185 -0.0657 -0.0356
16344W        W32528  11.107   4.345   2.759  0.2771 -0.0645  0.0934
16345W        W32529  12.521   2.529   5.486  0.0328 -0.0181 -0.2935
16346W        W32530   1.710  10.026   4.296  0.2273  0.1918  0.1014
16347W        W32531   9.852  11.185   4.655 -0.0082  0.2246 -0.1906
16348W        W32532  14.984   1.023  15.886  0.1196 -0.0547  0.2007
16349W        W32533  12.513   2.115   0.650  0.4660  0.0604  0.0671
16350W        W32534   9.988   7.672   0.485 -0.1394 -0.0939 -0.2376
16351W        W32535   5.776   7.840   4.621  0.0085  0.1657 -0.1217
16352W        W32536   4.400   2.521   6.299  0.0137 -0.0396  0.0292
16353W        W32537  15.737   8.543   5.862 -0.0597  0.0852 -0.0052
16354W        W32538   1.304  16.070  15.997 -0.1972 -0.1981  0.1758
16355W        W32539  14.972   7.547   1.349  0.1077  0.3162 -0.2370
16356W        W32540  11.377  10.445   2.817 -0.1282  0.1449  0.0266
16357W        W32541   6.262  12.264  16.617 -0.1571 -0.0379 -0.1628
16358W        W32542   4.452  10.882  13.996  0.1995  0.1138  0.2021
16359W        W32543   7.477   8.475   1.342 -0.3425 -0.3007 -0.3313
16360W        W32544   1.697  16.283   3.204 -0.3058  0.1813 -0.0335
16361W        W32545  15.428   9.196   5.532 -0.1670  0.0610  0.0847
16362W        W32546   0.375  16.827   4.340  0.2567 -0.5959  0.3227
16363W        W32547   5.458  13.131   2.042  0.0828 -0.2818 -0.2103
16364W        W32548  15.495   5.123  15.274 -0.1253 -0.2209 -0.0201
16365W        W32549  15.639  10.020  13.422  0.1150  0.2553 -0.2541
16366W        W32550  16.543   6.211   2.785 -0.0554 -0.0258  0.3038
16367W        W32551  17.668  16.962  15.335 -0.8198 -0.3577  0.0784
16368W        W32552   9.775  14.395  11.417 -0.1355  0.1932 -0.0217
16369W        W32553   4.001   9.267  12.381  0.0563  0.1644 -0.1407
16370W        W32554   4.071   7.159  15.167  0.0453 -0.1223 -0.0483
16371W        W32555   8.977   6.941  11.375 -0.0318 -0.0845  0.1201
16372W        W32556  13.507   7.224  12.008  0.1373 -0.2465  0.3886
16373W        W32557   9.260  17.511   5.051 -0.3145 -0.2127 -0.2874
16374W        W32558   6.130   5.449  16.111  0.0007  0.0019  0.1559
16375W        W32559   4.254   7.207  16.730  0.0217 -0.1260 -0.2911
16376W        W32560  16.992  16.299   2.894 -0.0806  0.2662  0.1101
16377W        W32561  11.595  17.414  14.854 -0.1158 -0.0898  0.0539
16378W        W32562  13.862  12.150  14.738 -0.0003 -0.1596 -0.1037
16379W        W32563  16.162   9.334   2.079 -0.1138  0.2528 -0.0042
16380W        W32564  12.494  16.650  14.071  0.1456 -0.1906 -0.0586
16381W        W32565   0.570   7.850   0.714 -0.0374 -0.0486  0.0989
16382W        W32566  13.058   2.018   2.821 -0.0124 -0.1782 -0.2174
16383W        W32567   5.194  17.785   4.035 -0.3752 -0.1295 -0.2695
16384W        W32568   3.104  11.858  15.005  0.0935 -0.2524 -0.1282
16385W        W32569   8.617   5.225  15.948 -0.0713  0.3503 -0.2327
16386W        W32570  17.398  14.981  12.856 -0.1965 -0.4052 -0.0219
16387W        W32571  16.917   4.124  15.715 -0.3857 -0.0308 -0.1562
16388W        W32572  13.813  16.362  16.225  0.0331  0.1446 -0.0875
16389W        W32573   5.112  10.110   0.193  0.1320  0.1302  0.3269
16390W        W32574  17.188   2.868   0.155  0.2814 -0.2544 -0.2324
16391W        W32575   4.626  13.102   2.373  0.0548  0.1567  0.1245
16392W        W32576  17.856  14.148   4.892 -0.0524  0.1939  0.1327
16393W        W32577  14.818  11.781  12.256 -0.1765  0.0353 -0.0577
16394W        W32578   6.849   4.068   5.912 -0.2735 -0.1087  0.2050
16395W        W32579   4.085   4.528   4.626  0.1557  0.1860  0.5645
16396W        W32580  12.448   0.828  12.297 -0.1946 -0.0767 -0.0716
16397W        W32581  11.796   4.132  14.961 -0.0526  0.4520  0.3000
16398W        W32582   3.551   6.134  16.271 -0.3566 -0.0358  0.4840
16399W        W32583  15.150   4.816   0.321  0.0850  0.0218  0.0231
16400W        W32584  14.801   5.546  16.231  0.0333  0.3021 -0.0930
16401W        W32585   2.551   4.263  15.394  0.1337 -0.1271  0.3584
16402W        W32586   0.418  15.804  14.948 -0.0452 -0.0507 -0.2059
16403W        W32587  16.812  11.550  15.342 -0.2888  0.1103 -0.0494
16404W        W32588   9.770  16.596   4.648 -0.1409 -0.0757  0.2312
16405W        W32589  11.829  15.169   0.580  0.0812  0.3172 -0.1304
16406W        W32590   3.833  13.336  12.967  0.2215 -0.1809 -0.0664
16407W        W32591  17.822  14.523  15.784 -0.2758  0.0398 -0.3710
16408W        W32592  10.459   3.913   2.617  0.2361  0.2978  0.1252
16409W        W32593  10.315  12.953   0.643  0.0225 -0.2351  0.0953
16410W        W32594   1.242  12.829   3.634 -0.2298  0.0479  0.1618
16411W        W32595   6.139   2.413  12.882  0.0818 -0.0747  0.1986
16412W        W32596   2.940   0.460  14.192 -0.3134  0.1216  0.0893
16413W        W32597  14.963  13.190  14.779 -0.0473 -0.2391 -0.0120
16414W        W32598   2.172  10.188  14.451 -0.2709  0.0834 -0.0362
16415W        W32599  13.401   9.219  11.420  0.0166 -0.1226 -0.0713
16416W        W32600  11.891  15.948  16.199 -0.2578  0.1007  0.0158
16417W        W32601   0.957   6.797   3.083  0.3076  0.2099  0.1516
16418W        W32602  12.853   9.431  11.569 -0.0668 -0.0598  0.0377
16419W        W32603  17.439  13.630  16.029 -0.3318  0.1536  0.2386
16420W        W32604  16.740  16.163  15.829  0.3991  0.0337  0.0615
16421W        W32605  10.865   4.932  15.912  0.0651 -0.0107  0.0249
16422W        W32606  16.793   1.313   3.753 -0.0814  0.1158 -0.1170
16423W        W32607   2.604   8.312   4.950 -0.1456  0.1107  0.0929
16424W        W32608   2.153   1.680   5.293 -0.0332 -0.2803  0.1361
16425W        W32609  12.531  17.144   5.376 -0.0467 -0.1381 -0.1042
16426W        W32610  13.733  10.003  14.573  0.2370  0.4183 -0.0359
16427W        W32611   1.137  13.549  16.351  0.0385 -0.0216  0.1164
16428W        W32612   3.458  11.193  11.876 -0.0558  0.0431  0.1380
16429W        W32613   1.052  15.128   3.682 -0.1493  0.1845 -0.1732
16430W        W32614   4.201  14.856  14.856  0.0042 -0.3607  0.0446
16431W        W32615   5.547   3.801  14.351 -0.3002 -0.1858  0.1497
16432W        W32616  15.557  17.279  12.360  0.0595  0.0819 -0.1589
16433W        W32617   4.843   1.732  12.180 -0.2526 -0.0391  0.2116
16434W        W32618   0.298  14.932   0.117 -0.0525 -0.3834  0.1027
16435W        W32619   8.099   6.433   1.037  0.0967  0.3131  0.2413
16436W        W32620   6.635   1.267   3.331  0.2313 -0.0644  0.2895
16437W        W32621   0.754  14.559   0.056 -0.2467 -0.0010  0.0669
16438W        W32622  14.351   1.274   1.019 -0.1427 -0.0065 -0.2054
16439W        W32623   1.115   8.777  15.849 -0.3344 -0.0582  0.0705
16440W        W32624  11.514   4.867  15.659  0.1295  0.1441 -0.0224
16441W        W32625  14.490   9.089   4.515 -0.1316  0.0196  0.0790
16442W        W32626  11.153   5.982   4.335  0.0595 -0.0520 -0.0485
16443W        W32627  17.448  17.634   4.411 -0.1737  0.0782 -0.1254
16444W        W32628  14.730   7.982   3.950 -0.1832  0.3381  0.2205
16445W        W32629   5.437   7.613   4.956  0.3777  0.1608  0.4106
16446W        W32630  13.749  15.802  14.657 -0.0759 -0.1484 -0.0221
16447W        W32631   0.289  17.030  15.530  0.2248 -0.1894  0.0650
16448W        W32632  11.940   0.898  13.098 -0.1959  0.1375 -0.2752
16449W        W32633   3.276  13.948  16.870 -0.1893  0.3080  0.1771
16450W        W32634  15.881  10.504   3.022  0.1990  0.3885  0.1458
16451W        W32635  16.827   1.655   4.372  0.2737  0.0815  0.1063
16452W        W32636  10.683  10.824  11.456 -0.0356 -0.4597 -0.1464
16453W        W32637  17.582   9.803   2.556 -0.0693 -0.0464 -0.0060
16454W        W32638   4.117  12.889  12.829 -0.1984 -0.1786  0.1765
16455W        W32639   1.962   6.339   4.538 -0.0005 -0.1544 -0.0112
16456W        W32640   1.986   4.069  16.698  0.0496  0.3293  0.0926
16457W        W32641  17.803   1.340   0.908 -0.1648 -0.3248 -0.0503
16458W        W32642  12.607  17.529  15.242  0.1917 -0.1925  0.4308
16459W        W32643   4.095  10.660   5.575 -0.3530 -0.1678 -0.0442
16460W        W32644   3.151  10.214   4.635 -0.0420  0.2429  0.0593
16461W        W32645   5.434  11.463  12.715 -0.2489 -0.3161  0.0242
16462W        W32646   0.125   1.107  14.884  0.1404  0.0538 -0.2378
16463W        W32647   5.052  17.258   5.595 -0.0765  0.1625 -0.3088
16464W        W32648   7.621   7.561  13.627 -0.0702  0.2739  0.2192
16465W        W32649  12.955   4.542  16.596  0.0906  0.0502 -0.2335
16466W        W32650  14.258  12.540   5.016 -0.3670  0.0919  0.2402
16467W        W32651   3.407   8.009  14.639  0.0555  0.1549  0.0221
16468W        W32652   7.395  16.823   3.951  0.0558 -0.0023 -0.2409
16469W        W32653   2.219   0.182   4.387 -0.0058 -0.1713 -0.0684
16470W        W32654   0.690   5.924   3.312 -0.1575 -0.1429  0.1722
16471W        W32655   1.722   3.114   1.891 -0.1935  0.3432  0.0816
16472W        W32656  12.168   2.561   1.152  0.0313  0.2160  0.2424
16473W        W32657  11.311   0.517   4.158 -0.0828  0.1562  0.0113
16474W        W32658   4.521   0.867   4.356 -0.0813 -0.1123 -0.2464
16475W        W32659  12.788   6.728  13.690  0.0178 -0.2684  0.1702
16476W        W32660  13.938  15.569   1.178  0.0091 -0.2024  0.2239
16477W        W32661  11.984   9.652  12.379  0.0571  0.1303  0.2372
16478W        W32662   3.870   1.745  16.063  0.1643 -0.0936 -0.2106
16479W        W32663   0.124  17.483   1.997 -0.1914  0.1999 -0.0322
16480W        W32664  14.871   2.795   2.989  0.1736 -0.2679 -0.2052
16481W        W32665   4.081  12.059  12.632 -0.0181 -0.0648  0.0475
16482W        W32666   7.417  13.733   1.497 -0.1434  0.2169 -0.0636
16483W        W32667   4.581   2.884   5.470 -0.2702 -0.1744 -0.1830
16484W        W32668  14.493   6.751  14.762 -0.0030 -0.0420 -0.1560
16485W        W32669   6.626   7.001   4.493  0.2365 -0.1152  0.1230
16486W        W32670   2.819  12.098   5.201 -0.3647 -0.0254  0.0014
16487W        W32671  16.755  11.018  16.188  0.1325  0.1290  0.2532
16488W        W32672   7.288   9.296   0.208  0.0350  0.3468 -0.2091
16489W        W32673   8.022  11.765  12.507 -0.1835 -0.0304 -0.1797
16490W        W32674  12.115   9.138  15.796 -0.2781  0.0193 -0.3790
16491W        W32675   8.528   3.555   3.555  0.1551  0.1555 -0.1704
16492W        W32676   9.402   0.844  13.886 -0.1325  0.1344  0.0806
16493W        W32677  11.022   6.111  12.542 -0.1286 -0.0852 -0.2187
16494W        W32678  12.144  17.264   2.961  0.0611  0.0200  0.2322
16495W        W32679   0.278   2.714  15.404 -0.0855  0.2678  0.1234
16496W        W32680  17.851   9.325   4.076 -0.2012 -0.1578  0.0560
16497W        W32681  14.428   7.382   0.150 -0.0472  0.1224  0.0189
16498W        W32682  12.631   8.644   1.810  0.1124 -0.1635  0.0116
16499W        W32683   6.213   9.970  16.789 -0.0796  0.3167  0.3896
16500W        W32684   6.962  13.655  13.389  0.2459  0.3384 -0.2206
16501W        W32685   8.325   1.153  12.663 -0.4074 -0.1956 -0.0795
16502W        W32686   7.138   5.324  12.606  0.0441  0.0765  0.4010
16503W        W32687  13.686   6.765   5.239  0.0344 -0.1590 -0.1097
16504W        W32688  13.647   1.888  15.194 -0.1328 -0.0390  0.1749
16505W        W32689   2.761   7.439   2.129  0.2257  0.4097 -0.1164
16506W        W32690   9.086   0.040  12.092  0.0979 -0.0393 -0.1955
16507W        W32691   5.814   1.098   1.829 -0.2182 -0.1366  0.0418
16508W        W32692   7.264   4.211  14.818  0.1481 -0.2066 -0.0235
16509W        W32693   5.820   4.521   2.693 -0.0322 -0.1924 -0.0911
16510W        W32694   2.702   1.404   3.941 -0.2554 -0.0999 -0.4041
16511W        W32695   2.843   3.708   1.809  0.0376  0.0169 -0.0603
16512W        W32696   9.788   8.967   2.725 -0.3276 -0.0367 -0.0633
16513W        W32697  14.900   8.375  14.454  0.0508  0.4068 -0.1932
16514W        W32698   3.503   0.229   4.826 -0.2481 -0.1354 -0.0390
16515W        W32699  10.116  14.246  13.201  0.3072  0.2471 -0.1434
16516W        W32700  13.231  15.942  12.899  0.3602  0.1986  0.0386
16517W        W32701  15.195   6.031   5.286 -0.0764 -0.0893 -0.2052
16518W        W32702   1.528  13.819  16.335 -0.1612  0.0060  0.1271
16519W        W32703  13.405  15.697  13.906 -0.0635 -0.0065 -0.0616
16520W        W32704   2.619   1.927   3.895  0.0354  0.3271 -0.0553
16521W        W32705  14.045   2.652   0.456 -0.1438  0.0534  0.0816
16522W        W32706  10.145  16.477  16.148 -0.3775 -0.0607  0.1219
16523W        W32707   5.648   4.364  13.981  0.0787 -0.1563  0.2268
16524W        W32708   6.794   1.150   4.102  0.0571 -0.2355 -0.3939
16525W        W32709   9.705   1.440   0.127 -0.0392  0.3382  0.0098
16526W        W32710   2.870  12.361  14.741  0.2331 -0.3093 -0.0067
16527W        W32711  17.618   4.619   0.168 -0.1227  0.1401 -0.2892
16528W        W32712  10.168  12.711   2.649 -0.1041  0.0715 -0.0755
16529W        W32713   0.038   5.927  13.035  0.0300 -0.1582 -0.0530
16530W        W32714   2.633   2.114   3.427  0.2682  0.1610  0.0615
16531W        W32715   5.436   5.729   3.173  0.2559 -0.0634 -0.0814
16532W        W32716   3.619   0.220   0.890 -0.0668 -0.1547  0.1407
16533W        W32717  15.834   9.565  15.570  0.0536  0.0447  0.2819
16534W        W32718   3.142   2.277  15.285  0.0344  0.4536 -0.0722
16535W        W32719   1.075   2.604  13.000 -0.0766 -0.1652  0.1246
16536W        W32720   7.892   8.924   0.829 -0.2941 -0.0365 -0.1930
16537W        W32721  14.937   8.085   3.115 -0.0314  0.1601  0.3342
16538W        W32722  13.080   1.604  12.585  0.2334  0.0599 -0.2187
16539W        W32723  16.611  11.641  13.370 -0.1012  0.0695 -0.0433
16540W        W32724  12.245  15.691   3.068  0.1604 -0.1913 -0.2254
16541W        W32725  11.987   9.710   4.631  0.1771 -0.1843 -0.3136
16542W        W32726   9.920  15.539   3.126 -0.0118 -0.1235 -0.2713
16543W        W32727  13.493  12.044  15.864 -0.2753 -0.2946  0.1525
16544W        W32728   1.761   6.985  13.411  0.2083  0.2810  0.3308
16545W        W32729  17.856   0.776  13.721  0.0761 -0.0014  0.0237
16546W        W32730   8.999  17.378  11.599  0.0261  0.0784 -0.0485
16547W        W32731   1.011  17.314  15.700 -0.3642 -0.1040  0.2207
16548W        W32732  12.719   5.125  12.913  0.1183  0.0736 -0.1737
16549W        W32733  13.956  15.386   2.201 -0.1185 -0.1261  0.2124
16550W        W32734   4.525   0.368   0.682  0.0064 -0.0107 -0.1526
16551W        W32735   0.743   7.102  14.498  0.0776  0.0269  0.0657
16552W        W32736  10.243  16.545   5.229 -0.2108 -0.1436 -0.1739
16553W        W32737   8.931   2.158  16.635  0.0800 -0.1299 -0.0222
16554W        W32738   3.387  17.389   0.491 -0.0470  0.0988  0.1631
16555W        W32739   8.382   9.084   3.747  0.3413 -0.1007  0.0163
16556W        W32740   4.049   6.015  13.590 -0.0192 -0.0892 -0.1004
16557W        W32741   4.722  13.029  11.774 -0.3196 -0.0370  0.1744
16558W        W32742   4.600   3.665  14.704  0.0266 -0.2452 -0.1737
16559W        W32743   7.790   6.846  15.060 -0.0943 -0.0640 -0.0327
16560W        W32744   3.863  10.407  16.450 -0.0354 -0.1920  0.1372
16561W        W32745  14.489   5.735   3.094  0.1372  0.1048 -0.0654
16562W        W32746  14.949  15.609  12.104  0.0889 -0.2161 -0.2144
16563W        W32747   8.770   9.565  14.875  0.1676 -0.0247 -0.1583
16564W        W32748  13.389   1.899   0.204  0.1339  0.0249 -0.0154
16565W        W32749   2.941   0.402   3.173  0.0328 -0.4402 -0.1383
16566W        W32750  12.714   3.841  16.822  0.1811 -0.0690 -0.1083
16567W        W32751  11.039   9.521   0.909  0.3377 -0.0372 -0.1033
16568W        W32752   8.105   0.582   3.194 -0.1902  0.0753 -0.0492
16569W        W32753   1.105  10.041   1.337  0.1055  0.1001  0.0174
16570W        W32754  11.500   3.945   4.826 -0.1095  0.0429  0.0503
16571W        W32755  14.860  17.033   3.992 -0.0881 -0.1961  0.1234
16572W        W32756  17.522  12.537  12.154  0.0826 -0.0994 -0.0723
16573W        W32757  11.594  15.160   4.886  0.0255  0.0184 -0.0779
16574W        W32758   6.956   6.251  14.998  0.2842  0.0898  0.1629
16575W        W32759  15.196  14.932   0.381  0.1814 -0.1080 -0.0886
16576W        W32760  16.650   4.997   3.432  0.0611  0.3396 -0.2915
16577W        W32761   2.185  15.658  12.230  0.2614  0.0742 -0.4691
16578W        W32762  12.807  14.449  13.523 -0.0611  0.0876 -0.0478
16579W        W32763   1.776  12.558   2.024 -0.0951 -0.1858 -0.1618
16580W        W32764   1.240   2.864  16.933  0.2511 -0.1571 -0.2683
16581W        W32765   9.356  13.730  15.332 -0.0344 -0.3433 -0.1917
16582W        W32766  12.419  17.039   2.526  0.4426 -0.0803 -0.0542
16583W        W32767   3.972  17.408  16.517  0.0177  0.3344 -0.3166
16584W        W32768   1.304   4.283  12.343 -0.2334  0.2894  0.2865
16585W        W32769  16.091   5.470  15.079  0.0223  0.1274  0.0520
16586W        W32770   1.184  15.686  11.576 -0.0298 -0.0285  0.3117
16587W        W32771  10.370   0.309   0.553  0.2889  0.1998 -0.1049
16588W        W32772   3.203   6.730   2.122  0.1552 -0.0553  0.1610
16589W        W32773   1.719  15.738  13.742  0.1991  0.1107  0.3506
16590W        W32774  15.294   3.909   0.401  0.0706 -0.3604 -0.0685
16591W        W32775   5.386  15.552  15.859  0.1928  0.1708 -0.0255
16592W        W32776  17.030   1.576   2.160 -0.0261  0.0166 -0.1643
16593W        W32777   2.165  15.591  11.707  0.2050  0.6422 -0.0998
16594W        W32778  12.304  12.190  12.063  0.2167  0.1488 -0.0599
16595W        W32779   1.867  10.302  13.020 -0.0905 -0.1964  0.2251
16596W        W32780  16.283  12.920   4.771 -0.1053  0.4207 -0.3709
16597W        W32781  12.408   3.267  12.028  0.0998  0.1634  0.1171
16598W        W32782   4.561   6.629  13.070  0.0866 -0.2982 -0.0768
16599W        W32783   8.967   1.322   4.373  0.0711  0.1203  0.0247
16600W        W32784  14.771   2.543  14.445  0.0191  0.0790  0.3886
16601W        W32785  11.795   9.048  11.756 -0.0233 -0.1053  0.0586
16602W        W32786   4.452   5.667   4.906 -0.2105 -0.0579 -0.1076
16603W        W32787  15.555  13.507  14.832 -0.1367  0.0759  0.3213
16604W        W32788   2.284   4.848  13.434 -0.0281  0.2132  0.2088
16605W        W32789   5.269   5.918  15.357  0.0474 -0.2229 -0.1280
16606W        W32790   9.282  15.536  11.703  0.0034  0.0056  0.2475
16607W        W32791   6.467   3.323   0.634  0.0538 -0.2620  0.2829
16608W        W32792   8.211  15.002  14.481  0.1792 -0.1682  0.1274
16609W        W32793   2.355   1.331  15.104 -0.3099 -0.0953 -0.0982
16610W        W32794   1.626   6.057   6.424 -0.2130  0.0797 -0.3319
16611W        W32795  16.121  15.248   5.075 -0.1779 -0.1104  0.1898
16612W        W32796  14.471  11.536  11.875 -0.1389 -0.0069  0.0667
16613W        W32797  12.375  16.246   1.525  0.2262  0.0843  0.0213
16614W        W32798  16.356  11.990  12.430 -0.4050 -0.0053  0.0280
16615W        W32799   6.226  16.682  16.553 -0.1202  0.1893 -0.0169
16616W        W32800  15.804  15.636   0.926  0.0127 -0.2086 -0.0221
16617W        W32801  16.954   7.098  13.069  0.1215  0.0638  0.1485
16618W        W32802   7.324   3.128   3.203 -0.1833 -0.1544 -0.1411
16619W        W32803  10.725   8.985  16.043 -0.0965  0.3516  0.0425
16620W        W32804   0.194  13.906  15.160  0.1308  0.1434 -0.1026
16621W        W32805  11.923   2.535  13.903 -0.1218  0.0996  0.0203
16622W        W32806   6.706   0.980  15.201  0.0468  0.0385 -0.4157
16623W        W32807   9.700  11.366   3.598 -0.1654 -0.1718 -0.1681
16624W        W32808  11.713   9.809  15.107  0.1425  0.1678 -0.0057
16625W        W32809  12.971   0.445   3.957  0.0383 -0.0529 -0.1458
16626W        W32810  13.744   6.231  16.347 -0.0737  0.0719 -0.1114
16627W        W32811   7.880  11.852  16.515 -0.1379 -0.0841 -0.4221
16628W        W32812   3.111   5.285   1.207  0.0312 -0.3199 -0.3999
16629W        W32813   8.176   5.989   3.592  0.0785  0.1375 -0.1033
16630W        W32814  10.251  12.106  16.877 -0.0494  0.3077 -0.0547
16631W        W32815   7.346  14.447   3.512  0.4000  0.1177 -0.1399
16632W        W32816   8.271  12.994  10.579  0.1575  0.2644  0.1555
16633W        W32817  10.099  12.428  15.198 -0.4034  0.3461  0.0313
16634W        W32818   4.390   5.414  16.295 -0.1526  0.2354 -0.1288
16635W        W32819  13.941   5.975  13.740 -0.0766 -0.0766 -0.3677
16636W        W32820   5.123  14.391   1.881  0.0610  0.0199  0.0012
16637W        W32821   3.397   5.401  15.267  0.0451 -0.1654 -0.2509
16638W        W32822  12.915   3.079   3.056  0.0778  0.3627  0.1108
16639W        W32823   5.015  10.358   5.244  0.1521  0.1889 -0.0167
16640W        W32824  16.725  10.281  15.960  0.1124 -0.2040 -0.1473
16641W        W32825  15.189   8.192  13.402  0.0524 -0.1149  0.2057
16642W        W32826   0.997   0.726   2.377  0.0303  0.0205  0.2626
16643W        W32827   0.008   3.474  13.972  0.2800  0.0337 -0.0916
16644W        W32828   2.769   0.208   0.881  0.0102  0.0084  0.1369
16645W        W32829  15.265   7.191  14.397  0.2991 -0.2700  0.3267
16646W        W32830  17.566  11.056  13.754 -0.3278  0.0124  0.1899
16647W        W32831  17.371  16.775  13.979 -0.2233 -0.1681  0.0246
16648W        W32832  14.544  15.744  13.887  0.1017  0.2074  0.0304
16649W        W32833  12.454   7.978   5.225 -0.4340 -0.1189  0.0427
16650W        W32834  15.477  12.727   3.035 -0.2244  0.0675 -0.2338
16651W        W32835  10.202   2.104  12.728  0.1280 -0.5951 -0.0675
16652W        W32836  12.342  16.077  13.903  0.1255 -0.0994  0.4025
16653W        W32837  14.641   6.018  12.436 -0.0658 -0.2189 -0.2448
16654W        W32838   3.299   0.090  11.671  0.0228 -0.0808  0.0346
16655W        W32839   1.531  15.408   3.124 -0.1478  0.0053  0.2921
16656W        W32840   9.386  12.889  15.127  0.1808  0.2144 -0.2895
16657W        W32841  16.474  14.888   3.822 -0.0079 -0.1652 -0.0959
16658W        W32842   9.085  16.729  12.412 -0.0161 -0.2314  0.1682
16659W        W32843  13.595   3.751   2.256 -0.1989  0.2617 -0.2399
16660W        W32844  10.666   3.261   1.776  0.0511  0.0180  0.2118
16661W        W32845   7.556  15.385   4.606 -0.2128  0.2569  0.1688
16662W        W32846   7.848  16.412  16.476 -0.0555  0.2953  0.0184
16663W        W32847   1.233   4.345  11.807  0.0090 -0.2342 -0.4443
16664W        W32848  11.047  11.364  13.236 -0.1348  0.0588  0.1198
16665W        W32849   2.600   3.201   2.700  0.1592  0.1111 -0.1497
16666W        W32850   9.910  13.448   4.551  0.0392 -0.0820  0.2979
16667W        W32851   2.041   9.846  16.691 -0.1220 -0.0742 -0.2237
16668W        W32852   1.508   9.400   1.739 -0.2230  0.0407  0.1948
16669W        W32853   4.252   0.846   1.344  0.0662  0.0987  0.1736
16670W        W32854  15.653  16.411  11.585 -0.1097 -0.0479  0.0843
16671W        W32855  17.218  12.347   1.254  0.0041 -0.0817 -0.0337
16672W        W32856   1.931  16.593  12.121  0.0656  0.0606 -0.2710
16673W        W32857  10.209  16.512  12.447 -0.3097  0.3046 -0.1709
16674W        W32858   9.498   7.612   4.544 -0.3032 -0.2479 -0.0542
16675W        W32859   1.900  13.911  14.198 -0.1759 -0.2142 -0.2162
16676W        W32860   1.255  14.953   0.006  0.2448  0.2833  0.1118
16677W        W32861   8.970  16.108   5.233  0.0009  0.2502 -0.1245
16678W        W32862   2.929   8.812   3.106  0.0583  0.2413  0.1233
16679W        W32863  17.013  17.237   2.611  0.1288  0.1469  0.0360
16680W        W32864   7.222   1.487   3.332  0.3506  0.0203 -0.3386
16681W        W32865   2.496   4.228   3.870 -0.0125 -0.0665  0.3788
16682W        W32866  13.090  17.600  12.495 -0.1648  0.1977  0.1872
16683W        W32867   7.548   9.202  13.241  0.3515  0.2625  0.2692
16684W        W32868   3.704  16.061  15.332 -0.1152 -0.0691 -0.2384
16685W        W32869   0.880   1.338  15.994  0.0253 -0.2454 -0.0581
16686W        W32870  16.562   4.621  12.228 -0.3113  0.0318 -0.1730
16687W        W32871   0.688   6.462   1.380 -0.1420 -0.0517 -0.1746
16688W        W32872   9.725  13.993   3.835  0.2951 -0.2268 -0.0831
16689W        W32873   7.034  16.585   5.125  0.1258 -0.0142  0.1473
16690W        W32874   8.993   8.029   4.191  0.2428 -0.3484  0.0545
16691W        W32875  15.612  15.878  15.243 -0.1801 -0.0431  0.1028
16692W        W32876  12.347   9.906   4.334  0.1635 -0.1426 -0.3791
16693W        W32877  11.801   8.868  13.571 -0.0205  0.1655 -0.0605
16694W        W32878  10.277   1.657  15.218  0.1018 -0.1334 -0.1361
16695W        W32879  14.133  12.593  12.450  0.0918 -0.0281  0.1981
16696W        W32880   4.879   6.262  12.860 -0.2749 -0.0350 -0.2920
16697W        W32881   9.833   1.367  15.436  0.0322 -0.4097  0.0696
16698W        W32882   9.973   2.332   3.330 -0.1483  0.1011 -0.2522
16699W        W32883  11.746  14.179  12.572 -0.3094 -0.0637  0.1380
16700W        W32884   7.257  11.878   0.601  0.2953  0.1434  0.0110
16701W        W32885  15.974   3.026   4.972 -0.2484 -0.4630 -0.2807
16702W        W32886  13.267   0.177  14.204 -0.1060  0.0531  0.2209
16703W        W32887  14.160   7.944   0.879 -0.0405 -0.0711 -0.1593
16704W        W32888   0.722  11.661  16.897  0.1635  0.1247 -0.0018
16705W        W32889  16.632  13.041  13.543 -0.1160  0.3890 -0.0542
16706W        W32890  12.953   7.641   2.290 -0.0858 -0.1057  0.1106
16707W        W32891  12.943   2.962   5.635 -0.1085 -0.4421  0.0440
16708W        W32892  13.323  11.352   0.346 -0.0714  0.1878 -0.0140
16709W        W32893  12.198  17.355  13.385  0.1030  0.3985  0.0617
16710W        W32894   1.974  11.867   4.533 -0.1382 -0.2686  0.1359
16711W        W32895  11.061   9.182   5.679  0.0407 -0.0650  0.0375
16712W        W32896   5.865  13.751  16.194 -0.2882  0.4390 -0.0050
16713W        W32897  15.327   0.985  13.234 -0.0848  0.0595  0.1812
16714W        W32898  13.679  15.291   4.782 -0.1963  0.1280 -0.1617
16715W        W32899   7.305   0.723  16.195  0.0066  0.3311 -0.3023
16716W        W32900  13.412  13.596   1.121  0.0571 -0.2612 -0.1577
16717W        W32901   6.788   2.905  11.643 -0.1105 -0.0153 -0.0205
16718W        W32902   4.527   1.887  16.648 -0.1194  0.1608 -0.2012
16719W        W32903  11.667   9.300  15.880 -0.0861  0.1032 -0.1082
16720W        W32904   7.903   5.448   2.838 -0.0185 -0.0667  0.4426
16721W        W32905   7.153   2.333   2.412  0.0433  0.3099 -0.0779
16722W        W32906  17.401  14.826  14.238 -0.2897  0.0880 -0.2046
16723W        W32907   8.774   2.648  14.560  0.2634 -0.0290 -0.0705
16724W        W32908   4.562  16.645   2.676  0.0228 -0.0674 -0.3077
16725W        W32909  10.403   3.941  13.763 -0.0469 -0.0501 -0.0038
16726W        W32910   7.291  15.669   4.337 -0.2929 -0.0925  0.2801
16727W        W32911   9.346   9.978  11.706  0.3307  0.0621 -0.0761
16728W        W32912   8.354   6.896   4.617  0.1334 -0.0936 -0.1907
16729W        W32913   9.890  15.377  14.442  0.0769  0.4167 -0.1277
16730W        W32914  15.050  16.036  15.419 -0.1661  0.2075 -0.3853
16731W        W32915  13.247   4.384   3.132 -0.1449  0.1091  0.3120
16732W        W32916  11.336   7.632   2.595 -0.2967  0.1589  0.3025
16733W        W32917  10.929   6.646  16.407 -0.1006  0.3568 -0.3217
16734W        W32918  16.511   7.309   5.278  0.2069 -0.3137  0.2220
16735W        W32919   8.052  16.810   1.900 -0.1362  0.1327 -0.0381
16736W        W32920  11.027  16.846  12.047  0.1923  0.0025  0.0079
16737W        W32921  12.615   8.516  16.409  0.2639  0.0006  0.2139
16738W        W32922  10.111  17.022   5.077  0.2955 -0.2781 -0.0408
16739W        W32923   2.459  13.063   2.530  0.4104 -0.0155  0.0342
16740W        W32924   2.842  13.405  11.360  0.0262  0.1093 -0.0014
16741W        W32925   6.428   4.143  15.874  0.1446 -0.0532 -0.0290
16742W        W32926  11.632   9.221   5.690 -0.0088  0.3134 -0.0444
16743W        W32927  13.732   8.195   2.117  0.2631  0.3314  0.2205
16744W        W32928  12.523   3.752  14.925 -0.0831 -0.1087 -0.1902
16745W        W32929  10.831  13.146   5.762 -0.0681  0.1975  0.1336
16746W        W32930  11.422  13.993  14.100 -0.1275  0.0341  0.1160
16747W        W32931  15.935   7.611  12.314  0.0956 -0.1811  0.1375
16748W        W32932   5.919  14.666  13.680  0.3169  0.0932  0.0822
16749W        W32933   2.277   3.676  14.543 -0.1714 -0.1872 -0.1523
16750W        W32934   2.987  12.057  11.910  0.2660 -0.0916  0.1544
16751W        W32935  14.948  12.814   2.409  0.0360 -0.4162 -0.1800
16752W        W32936  10.339   8.950   5.180 -0.0680  0.2617 -0.1250
16753W        W32937   0.363  16.102  15.350 -0.0990 -0.0310  0.0667
16754W        W32938   8.585  14.966   5.461  0.1490 -0.3282 -0.0022
16755W        W32939   6.670  16.879  16.747 -0.1285 -0.2612  0.1943
16756W        W32940   0.461   3.582  15.604 -0.3761 -0.0327  0.1101
16757W        W32941   3.194   4.070   0.167  0.2417  0.1167 -0.1040
16758W        W32942  17.559   8.899  16.364  0.0569  0.1569  0.4460
16759W        W32943   3.237  12.878  14.695 -0.1742  0.1012  0.0654
16760W        W32944   4.394   7.846  13.519  0.0915  0.2493  0.0479
16761W        W32945  12.874  13.192  12.151  0.0936 -0.1404  0.1455
16762W        W32946   4.931  11.402   3.768 -0.1466  0.2551  0.1254
16763W        W32947   6.261   6.351   2.512 -0.3745 -0.0107 -0.1600
16764W        W32948  11.655   5.324   3.105 -0.1728  0.0529  0.0697
16765W        W32949  13.033   9.979   2.604 -0.1614 -0.2325 -0.0366
16766W        W32950  15.050   2.338  15.655  0.0896 -0.2914  0.0995
16767W        W32951   8.179   0.832  16.619 -0.1803 -0.2895  0.0058
16768W        W32952   6.096   6.262   4.763  0.2329  0.1516 -0.5083
16769W        W32953   4.402   6.990   4.044  0.0063  0.0321  0.2045
16770W        W32954  16.155  15.329   3.696  0.2433 -0.0744 -0.3025
16771W        W32955   0.519  10.510   4.755 -0.0296 -0.3032 -0.0464
16772W        W32956  13.912   3.148   2.128  0.0748 -0.3446  0.3049
16773W        W32957  13.706  17.015  13.526  0.1577  0.2043 -0.0612
16774W        W32958   1.933  10.855   2.682  0.2852  0.1890  0.1701
16775W        W32959  16.758   4.443  15.306 -0.0455  0.3716  0.0149
16776W        W32960   9.271   0.693   4.935 -0.0666 -0.3192  0.0147
16777W        W32961   9.711   3.223  14.455  0.0676  0.1832 -0.0066
16778W        W32962   5.247  13.747  13.344  0.2686  0.3136  0.0918
16779W        W32963   9.560  14.686  14.166 -0.1987  0.0065  0.1672
16780W        W32964  15.456   0.798   4.180  0.1174  0.0986  0.0870
16781W        W32965  17.435   6.280  11.762 -0.2015  0.0933  0.2126
16782W        W32966   7.706   2.508  15.897 -0.1791 -0.2479 -0.3004
16783W        W32967   8.704   0.759   0.267 -0.0990 -0.1357 -0.2236
16784W        W32968  16.935   8.699   2.242  0.1561 -0.1124  0.0297
16785W        W32969  16.161   8.417  12.879 -0.1351 -0.1277  0.0144
16786W        W32970  11.791   0.887  14.974  0.0784  0.0393  0.1806
16787W        W32971   7.612   2.745  16.936 -0.2335  0.0466 -0.0338
16788W        W32972   2.206   9.344   2.772 -0.2358 -0.1014 -0.2075
16789W        W32973  10.592  12.599   2.929  0.3452  0.0136  0.2194
16790W        W32974  14.248   9.193   3.639  0.1295 -0.1422 -0.0863
16791W        W32975   6.786   5.142   4.997  0.2353 -0.1085  0.0602
16792W        W32976   0.748  15.336   0.848  0.2404 -0.0078  0.1135
16793W        W32977  10.151  15.114   1.254  0.0927 -0.1799 -0.0264
16794W        W32978   5.341   8.421  16.866 -0.1846  0.2138  0.1766
16795W        W32979   8.901  12.998   2.714 -0.1211 -0.1850  0.1903
16796W        W32980  10.317   2.421   2.320  0.1414  0.1603 -0.2750
16797W        W32981   7.851  11.730   2.864  0.0781 -0.0175 -0.0562
16798W        W32982   7.120   7.581  11.875 -0.0432  0.1302  0.1390
16799W        W32983   6.281   3.452  13.632  0.0592  0.2295 -0.1306
16800W        W32984  13.830   5.694   5.569 -0.2311 -0.0791 -0.1397
16801W        W32985   3.985   5.219   1.439  0.0649 -0.0375  0.0336
16802W        W32986  12.793   7.090   4.253 -0.1056 -0.3034 -0.0102
16803W        W32987   7.097   4.343   2.699  0.0091  0.0847 -0.2256
16804W        W32988  10.302  15.710   4.997  0.1365  0.0207 -0.4275
16805W        W32989  17.346   4.352  14.450 -0.1592 -0.1270  0.0364
16806W        W32990  10.136   1.836   0.906  0.1036 -0.2273  0.4602
16807W        W32991  13.160  15.306   0.145  0.2349 -0.0981 -0.0576
16808W        W32992  13.558   8.850  11.709  0.0656  0.0465 -0.2921
16809W        W32993   4.233  12.832   0.168 -0.2291 -0.1949  0.0299
16810W        W32994   7.327   6.407   4.616  0.1543  0.2002 -0.0244
16811W        W32995   9.547   0.698  16.581 -0.2245  0.0548  0.3783
16812W        W32996   4.357   4.181   4.429  0.2168  0.0142 -0.0840
16813W        W32997   9.551   0.293  12.339 -0.2393  0.0588 -0.0281
16814W        W32998  13.659   8.093  13.947 -0.2659 -0.2001 -0.4967
16815W        W32999   7.812  13.689   3.193 -0.3558 -0.1976 -0.1012
16816W        W33000  15.561   3.026   2.527 -0.0119  0.2189  0.0004
16817W        W33001   4.367   8.374  15.481 -0.1491  0.0985  0.1367
16818W        W33002  11.668   0.879   1.302  0.0364 -0.1904 -0.1887
16819W        W33003  15.409  14.524   0.687 -0.2878 -0.2118 -0.0925
16820W        W33004  13.693  15.889  16.456  0.1488  0.0147 -0.0135
16821W        W33005  17.497   4.017   3.341 -0.0536  0.2122  0.1607
16822W        W33006  13.932   6.320  14.982 -0.1790 -0.0661  0.2725
16823W        W33007  13.918   2.234   1.875 -0.1011  0.1224 -0.0032
16824W        W33008   6.765  10.295  15.937  0.0117 -0.1726  0.4420
16825W        W33009   9.065   8.707  13.979 -0.5447  0.3522  0.1000
16826W        W33010   9.917   7.596  13.749 -0.1347 -0.0791 -0.0803
16827W        W33011  15.967   6.339  15.129 -0.1319  0.3285 -0.5280
16828W        W33012  17.743  13.521  13.811 -0.2579  0.1184 -0.1329
16829W        W33013   6.290   1.172  15.362 -0.2323  0.0814 -0.0051
16830W        W33014  11.171   8.290   3.510 -0.0566  0.0007  0.3630
16831W        W33015  13.058  15.735  11.919 -0.1359 -0.0768 -0.0922
16832W        W33016  11.738   5.533   4.997 -0.1626 -0.2971  0.1554
16833W        W33017   6.228   5.018  13.986 -0.2458 -0.1589 -0.1357
16834W        W33018  13.135  13.217  16.712  0.1407 -0.1546 -0.1323
16835W        W33019   1.693  17.067  14.076  0.0509 -0.0886 -0.0417
16836W        W33020  12.407  12.796  15.108  0.0988  0.1639 -0.1544
16837W        W33021   1.102   0.879   1.029  0.2610 -0.1436  0.0074
16838W        W33022  10.036   6.990   2.824 -0.3860 -0.1540 -0.0102
16839W        W33023   2.609  16.228  14.669 -0.2401 -0.0102  0.1129
16840W        W33024  13.368  12.370   4.610  0.1490  0.0077  0.0929
16841W        W33025   0.126   6.771  12.133 -0.3269  0.3325 -0.0099
16842W        W33026  12.731  15.957  15.166  0.3822 -0.0291  0.1251
16843W        W33027  14.152  10.186   5.087 -0.0959  0.3725 -0.3617
16844W        W33028   2.760  14.815  14.427  0.0369 -0.0293  0.0525
16845W        W33029   2.851   8.495   4.569  0.0154 -0.0544 -0.1033
16846W        W33030  17.021  10.498  12.570  0.2573  0.1209  0.1102
16847W        W33031   1.537  14.111  15.931  0.0016  0.3423  0.0659
16848W        W33032   4.905   8.482  16.207  0.0528  0.0642  0.2897
16849W        W33033   0.352  11.666  15.433 -0.1485  0.2684 -0.0705
16850W        W33034  14.260   3.381  16.781  0.1343  0.1319  0.3068
16851W        W33035  13.634   3.816   4.697  0.1233 -0.1490 -0.2494
16852W        W33036  17.068  13.684   0.974  0.1674 -0.1208  0.0157
16853W        W33037   0.760   0.191   2.322  0.0292 -0.0986  0.1845
16854W        W33038   5.409   1.481  14.156 -0.0927  0.2614 -0.0679
16855W        W33039   2.890  17.462  15.420 -0.1389 -0.2985 -0.0054
16856W        W33040   2.674   6.084  15.368 -0.0176  0.0586  0.0394
16857W        W33041   0.264   1.212   3.409 -0.0833  0.0722 -0.3090
16858W        W33042  12.417   8.728  15.691  0.1011 -0.0755  0.5144
16859W        W33043  16.162   3.073   4.058  0.1199 -0.3223  0.2166
16860W        W33044  17.580   3.424   4.711  0.1739  0.0835  0.2497
16861W        W33045  17.841   9.507  16.381  0.1412 -0.3481 -0.1279
16862W        W33046  12.968  11.609  16.559 -0.1416  0.0881 -0.4002
16863W        W33047  11.897   7.508  13.410 -0.1186  0.1896 -0.0481
16864W        W33048  12.822   8.483  15.447 -0.2817 -0.0587  0.0914
16865W        W33049   2.306   0.083  15.959  0.3770  0.0735  0.0295
16866W        W33050  17.012   8.825   5.459 -0.0004 -0.1402 -0.2678
16867W        W33051   1.911  15.483   5.124  0.1570 -0.1536  0.1292
16868W        W33052   9.120   5.432  16.837 -0.1874 -0.2104 -0.0203
16869W        W33053  10.445  15.571   0.318 -0.0132 -0.0209 -0.0772
16870W        W33054   0.850   5.370  14.244 -0.3104  0.1950 -0.0924
16871W        W33055   4.474  16.797  15.790  0.0609 -0.2077  0.0354
16872W        W33056   4.352  15.791   6.349 -0.2170  0.1539  0.2058
16873W        W33057  15.185  15.173  12.244 -0.2268  0.0982  0.1255
16874W        W33058  15.192   7.480  15.588 -0.0307  0.1167 -0.1407
16875W        W33059  11.051   8.904  13.917  0.2684 -0.4574 -0.0721
16876W        W33060  14.692   3.621   3.762  0.1022  0.0307 -0.1498
16877W        W33061   7.103   8.895  16.473  0.0952  0.0043  0.0405
16878W        W33062   9.052  14.848  11.310 -0.0669  0.2746  0.1130
16879W        W33063  10.740   9.902   1.046  0.1457  0.2839 -0.1408
16880W        W33064  10.632  17.072   4.807  0.1060  0.0373 -0.0314
16881W        W33065  10.590  12.007  16.367  0.2854  0.2898  0.1589
16882W        W33066  14.265   4.331  15.966  0.1600 -0.2522 -0.0155
16883W        W33067  15.616   5.478  12.061  0.2731  0.2908 -0.3623
16884W        W33068  15.406  12.467   3.458  0.1737 -0.0414 -0.0431
16885W        W33069   0.876   8.181  16.392  0.1797  0.0708 -0.1260
16886W        W33070  14.965   1.917   3.219 -0.2744  0.0373 -0.3692
16887W        W33071   3.585   9.664  14.346  0.0239  0.1150 -0.1591
16888W        W33072   4.832   3.307   4.460 -0.0102 -0.2609 -0.2872
16889W        W33073   8.987  15.830   3.899 -0.0439  0.0664 -0.1350
16890W        W33074   4.380   2.734   2.858  0.1383 -0.0198 -0.0534
16891W        W33075  12.066  17.047   1.123 -0.0937 -0.1090 -0.2987
16892W        W33076   0.896   7.159   4.752  0.1595  0.1623  0.0520
16893W        W33077   9.910  11.836   4.482  0.1948 -0.4251 -0.1371
16894W        W33078  14.679   3.052  16.790 -0.0906 -0.0586 -0.2701
16895W        W33079   1.673   2.539   1.904 -0.3223 -0.0769  0.0249
16896W        W33080   5.951  10.156  14.844  0.1818 -0.1588 -0.1172
16897W        W33081  10.939  16.447   1.552 -0.2116  0.3535 -0.0689
16898W        W33082  13.070   0.042  11.342  0.3334  0.0611  0.1903
16899W        W33083   2.112  16.341  14.481  0.2758 -0.2767 -0.1791
16900W        W33084  15.678  12.811   5.415  0.1512 -0.2580 -0.0994
16901W        W33085  15.050  12.386   5.660 -0.0865  0.1178  0.0323
16902W        W33086   5.557   8.698  15.035  0.0422 -0.3914 -0.1633
16903W        W33087  13.367   7.608  14.392 -0.1980 -0.0671 -0.0185
16904W        W33088  17.875   7.820  12.377  0.0661  0.1924 -0.1633
16905W        W33089   2.350  10.137  16.410 -0.3837  0.2157  0.1719
16906W        W33090  15.194   6.971  13.885  0.0431  0.1303 -0.1626
16907W        W33091   6.021  17.834   6.176 -0.0421  0.0318  0.0267
16908W        W33092   7.996  13.543   3.701 -0.0921  0.0576  0.4244
16909W        W33093   8.464  13.345   1.218 -0.2574  0.1319  0.1298
16910W        W33094  15.242  10.054  15.755 -0.1215 -0.0232  0.0972
16911W        W33095  10.256   5.543   1.247  0.0329 -0.0890 -0.0003
16912W        W33096  13.861  17.009  14.485  0.1321 -0.0990  0.1333
16913W        W33097  17.276  13.498  16.575 -0.0196  0.2088 -0.1246
16914W        W33098  17.860   7.164   4.427  0.3414 -0.1586 -0.0293
16915W        W33099   3.162   5.357  16.643  0.0398  0.0353  0.0526
16916W        W33100  16.033  17.730   1.351 -0.1886 -0.1410  0.1717
16917W        W33101  10.989   2.520   5.668 -0.0027  0.1740 -0.1630
16918W        W33102   3.424  13.203   4.996 -0.2057 -0.0387  0.0285
16919W        W33103   1.887   6.751  15.399  0.2636  0.0461 -0.0794
16920W        W33104   6.898   8.960  16.892 -0.0522 -0.2070 -0.1263
16921W        W33105  13.025   3.463   1.027  0.3081 -0.2679  0.1045
16922W        W33106   6.241  15.182   0.520 -0.2210 -0.1925 -0.1238
16923W        W33107  16.165   0.101  10.689  0.0536 -0.1849 -0.2207
16924W        W33108   9.787   8.096   3.894  0.0375  0.1026  0.0602
16925W        W33109   7.497  11.518   1.284  0.0636  0.0666 -0.1268
16926W        W33110   7.169   7.546   6.785 -0.0016  0.1037  0.0332
16927W        W33111  16.809   3.165   0.968 -0.3034 -0.0884 -0.0513
16928W        W33112  10.121   7.867   2.241  0.2325  0.0058 -0.1730
16929W        W33113   6.709  15.132  12.849 -0.1334 -0.3037  0.0344
16930W        W33114   0.545   6.645   3.988  0.2544  0.3317  0.0878
16931W        W33115  14.762  15.116  12.978 -0.1814 -0.0800 -0.0624
16932W        W33116   9.462   2.806   5.301  0.2857  0.1487  0.1367
16933W        W33117   7.956  10.280   2.631 -0.0646 -0.3117 -0.0957
16934W        W33118   5.962  15.794   3.688 -0.1062 -0.0624 -0.2632
16935W        W33119   5.127   3.012  15.192 -0.1467  0.0425 -0.1467
16936W        W33120  15.136  13.427   5.748 -0.1864 -0.1948 -0.0634
16937W        W33121   1.701   3.673   0.566 -0.3033 -0.0503 -0.2673
16938W        W33122  13.921  13.549   2.848 -0.1267 -0.0456  0.0634
16939W        W33123  14.421  16.375  16.621 -0.4271 -0.0632 -0.1008
16940W        W33124   1.707   2.588  15.214 -0.2403 -0.2504  0.0079
16941W        W33125  16.845  16.816  12.396 -0.0873  0.2211  0.0974
16942W        W33126  12.587   7.986  16.928 -0.1184 -0.0366  0.1553
16943W        W33127  16.422  13.186   1.734  0.1055  0.1290  0.1829
16944W        W33128   8.088  14.976  11.676  0.0274  0.2167 -0.0617
16945W        W33129  14.324   5.579   3.718 -0.1341  0.0030  0.3073
16946W        W33130   2.958   9.135  16.061 -0.1730  0.0637 -0.1912
16947W        W33131   0.556   9.436   2.034  0.2385  0.3889 -0.0472
16948W        W33132  12.747   9.164   4.548 -0.0089  0.0468 -0.0551
16949W        W33133   3.094   7.435  10.986 -0.1036 -0.1812  0.1840
16950W        W33134  14.381   2.936   1.409 -0.0441  0.0540 -0.2482
16951W        W33135  15.128   3.427  15.848  0.0195 -0.2056 -0.0772
16952W        W33136   6.750  15.490   1.696  0.2863 -0.2433  0.3598
16953W        W33137  13.319  14.257  13.641  0.1696  0.1976 -0.1000
16954W        W33138  10.133  11.976  15.947 -0.2727  0.0524 -0.0980
16955W        W33139   7.478   3.157   2.297 -0.1987 -0.0575  0.1970
16956W        W33140  14.243   3.427   5.745 -0.1151 -0.2696 -0.0252
16957W        W33141   0.586   6.064   5.299  0.1520 -0.0271 -0.0743
16958W        W33142   7.095  10.508   2.741 -0.2481  0.1155 -0.3178
16959W        W33143  13.733   6.983   0.640 -0.0092  0.1732  0.2296
16960W        W33144   6.011  10.477   3.667  0.1589 -0.1948 -0.0930
16961W        W33145  15.954  16.900   3.019  0.1002 -0.1842 -0.0963
16962W        W33146   8.539  13.529  12.559  0.1673  0.0154 -0.1122
16963W        W33147   3.381   0.997  16.382 -0.0184 -0.0585 -0.1156
16964W        W33148   9.674  14.177   0.463 -0.1041  0.1661 -0.1043
16965W        W33149   4.145  15.819   3.757 -0.1696 -0.3547 -0.0363
16966W        W33150  17.326  13.874  13.053  0.2622  0.0725  0.0672
16967W        W33151  11.047  10.567  14.288  0.1156 -0.0772 -0.0817
16968W        W33152   5.348  14.760  16.494  0.0546 -0.4814 -0.1927
16969W        W33153   8.492   9.659   2.368 -0.2732 -0.1569  0.0774
16970W        W33154  12.050   1.752   1.314  0.0572 -0.0563 -0.4419
16971W        W33155  16.930   7.245  12.243 -0.3126 -0.0394  0.3660
16972W        W33156  14.024   8.223   2.695  0.0247  0.1903 -0.0922
16973W        W33157   7.169   1.614   0.909 -0.0823  0.2171  0.1427
16974W        W33158   8.551   1.145   2.010  0.2747 -0.1538 -0.1031
16975W        W33159   1.682   8.347  16.882  0.0352 -0.0137  0.3764
16976W        W33160  13.347  16.636   3.366 -0.1848 -0.0371  0.3335
16977W        W33161   7.648  13.105  15.190 -0.0729  0.1014  0.2500
16978W        W33162   3.424   0.903   5.594  0.2393  0.3151  0.0493
16979W        W33163  10.414  14.317   5.273  0.1738 -0.0615 -0.0642
16980W        W33164  10.074   3.403   1.842 -0.0592  0.1979 -0.0818
16981W        W33165   5.165  15.562  15.377  0.1381 -0.0785 -0.0929
16982W        W33166  16.093   5.955  16.241  0.2858 -0.0139 -0.1679
16983W        W33167   8.421   5.182   1.051  0.1653 -0.1038  0.0949
16984W        W33168  15.805   3.466  14.111  0.5952  0.0990 -0.0744
16985W        W33169  15.777   4.416  13.152  0.3085  0.3283  0.1171
16986W        W33170  16.519   1.163   2.841 -0.1371  0.4647  0.0887
16987W        W33171  15.112   5.763   1.370 -0.1938  0.0211 -0.1092
16988W        W33172   5.726   7.533  13.120  0.2119 -0.0323  0.0165
16989W        W33173   8.931  10.237   4.673 -0.1437 -0.0534 -0.1260
16990W        W33174  16.683  10.504   2.751  0.0987 -0.1741  0.1247
16991W        W33175   7.762  16.958  16.008  0.1667 -0.1470  0.2346
16992W        W33176  13.098  13.336  15.235  0.3054  0.3723  0.0496
16993W        W33177  17.449   3.773   5.082  0.0107  0.1128 -0.0250
16994W        W33178   7.502  13.655  13.462 -0.1332  0.2356 -0.1787
16995W        W33179  16.728   9.674   2.696 -0.2655  0.0575 -0.0450
16996W        W33180  17.467  12.172  11.856 -0.0061 -0.3778 -0.0209
16997W        W33181  16.782  13.726  13.186 -0.0309  0.3613 -0.1324
16998W        W33182  10.529   2.902   3.933  0.0741  0.1266 -0.2794
16999W        W33183   5.859  11.599   4.376 -0.3058 -0.1841 -0.0301
17000W        W33184  10.911   4.226   0.497 -0.4145 -0.2493  0.1857
17001W        W33185   5.097   9.670  11.630  0.2107 -0.3160 -0.3587
17002W        W33186  14.604   1.651   2.899  0.0735  0.0621 -0.1548
17003W        W33187   0.470   4.106  15.248 -0.2187 -0.1470  0.0421
17004W        W33188  10.110   8.199   1.790  0.1098  0.0334  0.2787
17005W        W33189   7.049   4.164  16.793 -0.3395  0.0515  0.4067
17006W        W33190   2.184   4.604   3.992 -0.0930  0.1736  0.1035
17007W        W33191  11.245   0.122  12.493  0.0985  0.2802  0.0493
17008W        W33192  10.546  14.605  11.868 -0.0487  0.0067 -0.1643
17009W        W33193   6.778  14.101   6.199 -0.3782 -0.0328  0.0445
17010W        W33194  13.987  17.069  16.768  0.2616  0.1756 -0.4598
17011W        W33195  10.591  15.164  12.164 -0.4001  0.2274 -0.0298
17012W        W33196  11.161   5.042   0.168  0.2481  0.0584 -0.1302
17013W        W33197   3.595  13.704   3.616 -0.4681  0.1585 -0.0876
17014W        W33198  16.611   0.583   0.022 -0.2402 -0.1407 -0.0152
17015W        W33199   0.514  16.070   3.734 -0.0445  0.3120  0.2950
17016W        W33200   3.975   7.957  13.997 -0.0750 -0.1336  0.0290
17017W        W33201  13.230   1.618   0.631  0.0024  0.1393 -0.1761
17018W        W33202  16.202  10.336  16.153 -0.0149 -0.4925 -0.2563
17019W        W33203   4.189   5.271   4.809  0.1288 -0.1261 -0.4319
17020W        W33204   6.958   0.704   4.898  0.0011  0.0095  0.0351
17021W        W33205  10.472   6.175   5.587 -0.1240  0.1071  0.1110
17022W        W33206  12.825  13.914   1.649  0.0792  0.0013  0.1602
17023W        W33207  15.528  17.486   0.107 -0.1534  0.2019  0.1352
17024W        W33208   1.707  14.245  15.400  0.0559 -0.1157  0.3101
17025W        W33209   9.893   9.759   2.286 -0.0522  0.1364 -0.1429
17026W        W33210   2.972  17.695   2.333  0.3458 -0.2835  0.0943
17027W        W33211  16.419   8.392  13.774  0.1100 -0.0405 -0.0731
17028W        W33212  17.236   5.489  15.208 -0.0428 -0.0693  0.2333
17029W        W33213  17.459  15.007   5.620  0.1402  0.2917  0.0359
17030W        W33214   9.675  12.469  16.496  0.0104  0.2525  0.0162
17031W        W33215   3.876   2.360   4.313  0.1455 -0.0998  0.0490
17032W        W33216   9.594   6.211   5.375 -0.2919  0.2625  0.0580
17033W        W33217   3.462   3.091  15.492 -0.0383  0.0673  0.0834
17034W        W33218   9.754   5.309   1.253 -0.2415  0.1510  0.0964
17035W        W33219   7.105   9.397   5.782  0.1864  0.2080  0.0582
17036W        W33220   4.976   5.789   1.809  0.3644 -0.0067 -0.1785
17037W        W33221  15.582   9.457   2.195 -0.2865  0.2128  0.2616
17038W        W33222  17.299  13.677   5.642  0.0123 -0.1149 -0.0848
17039W        W33223   9.593   7.009   2.485 -0.0513  0.2871 -0.1732
17040W        W33224   4.121  11.758  13.732  0.1328 -0.0731  0.1121
17041W        W33225  17.656   8.082  13.415  0.2097 -0.2302 -0.0111
17042W        W33226   6.651  15.855  16.321 -0.1186 -0.0693  0.1026
17043W        W33227   7.579  17.378  11.364 -0.1615  0.1904 -0.0576
17044W        W33228   2.137  15.215   2.940  0.3808  0.2245  0.0418
17045W        W33229   0.544   7.353  16.869 -0.3428  0.0383  0.4229
17046W        W33230  10.067   8.704  13.748  0.1232  0.0853 -0.1264
17047W        W33231   9.870   2.983   1.226  0.0105  0.2445  0.1213
17048W        W33232  15.507  16.233   2.458  0.0328  0.2273 -0.0341
17049W        W33233   0.279  17.567  13.811 -0.0168 -0.4027  0.0790
17050W        W33234   5.480   0.861   0.926 -0.2976  0.0913 -0.1604
17051W        W33235  17.850  11.398  13.483  0.1454 -0.0562  0.0932
17052W        W33236   4.791   0.733  14.641 -0.1458  0.0064  0.1654
17053W        W33237  17.502   9.718   4.142 -0.1287  0.2021 -0.2733
17054W        W33238   3.656   2.681  16.297  0.0260 -0.0466 -0.2218
17055W        W33239   7.354  16.792  13.990 -0.0653 -0.2572  0.1499
17056W        W33240  13.056   9.790  12.944 -0.0343 -0.0946  0.2127
17057W        W33241  12.093  13.955  16.633 -0.0702  0.2494  0.1409
17058W        W33242   4.479   7.939   3.841  0.2653  0.1398  0.0092
17059W        W33243   1.852   9.951  14.110 -0.0942  0.3943  0.0977
17060W        W33244   4.397  14.841  13.947  0.2185 -0.1675 -0.0521
17061W        W33245   0.245  14.443   0.078 -0.0245  0.1409 -0.4647
17062W        W33246   9.229   2.406  14.795  0.0445 -0.0948 -0.1739
17063W        W33247  15.731   8.101  13.403  0.0808  0.1652  0.3457
17064W        W33248  14.719   7.614   3.011  0.0142 -0.2155  0.0664
17065W        W33249   3.192   2.800   4.354 -0.0825  0.0009 -0.2031
17066W        W33250  14.127  14.939  14.535 -0.0833 -0.2089  0.0409
17067W        W33251   1.304   8.942   4.362 -0.0161  0.0097 -0.2485
17068W        W33252   4.846  16.497   4.348  0.3071 -0.1903  0.3956
17069W        W33253   3.179   3.164   4.692  0.3506  0.2285 -0.0441
17070W        W33254   0.111   1.361   4.955 -0.0264  0.0099 -0.1667
17071W        W33255   0.003  16.839   1.319 -0.0544 -0.0481 -0.0685
17072W        W33256   4.286  13.752   2.872 -0.2006 -0.1583 -0.0675
17073W        W33257   7.408   5.364  13.089 -0.1633  0.3033 -0.1589
17074W        W33258  10.064   8.202   0.241 -0.2573 -0.0596 -0.0819
17075W        W33259  17.818   6.821   5.661 -0.1168 -0.1408 -0.1147
17076W        W33260  15.911  12.591  14.792 -0.0649 -0.1196  0.0162
17077W        W33261   7.706  16.597  14.273 -0.2305  0.1604 -0.1424
17078W        W33262   2.033  17.744   0.377  0.1646 -0.1923 -0.0927
17079W        W33263   7.574  12.203   5.940  0.2642 -0.0393 -0.0649
17080W        W33264   8.911  11.657   1.406 -0.0033  0.0170 -0.0197
17081W        W33265  15.497  16.587  14.482  0.7134  0.0710  0.0427
17082W        W33266   6.319  14.771   1.700  0.0801  0.2718  0.1831
17083W        W33267   7.225   6.178   1.539  0.1870 -0.1843 -0.4730
17084W        W33268  10.754   7.039  16.746 -0.4380 -0.0370  0.0819
17085W        W33269  17.073   0.186  14.493 -0.1610 -0.2548 -0.0752
17086W        W33270  16.393  17.235   2.684 -0.2728  0.1819 -0.2040
17087W        W33271   5.929  12.468   2.869 -0.1682  0.0724 -0.1703
17088W        W33272   0.641  14.946  13.759  0.1374 -0.0702  0.0682
17089W        W33273  15.920  16.194   3.912 -0.1640  0.0899  0.1744
17090W        W33274   7.949  16.312   1.798  0.1422  0.2826 -0.1766
17091W        W33275   9.598   4.398   1.560  0.0395 -0.1527 -0.0477
17092W        W33276  10.959   7.074   5.209 -0.0479 -0.0124 -0.0116
17093W        W33277  16.631   8.411   0.215  0.0545 -0.0708  0.1561
17094W        W33278   4.700   9.282  15.099 -0.3222 -0.0177  0.0867
17095W        W33279   1.807   0.817  12.940 -0.0013 -0.1374 -0.0281
17096W        W33280   7.067   2.034   6.088  0.1264 -0.0626  0.3222
17097W        W33281   1.192  17.719  15.300 -0.0033 -0.0618  0.0175
17098W        W33282  13.074  13.301   6.374  0.3400  0.2752 -0.1289
17099W        W33283   2.652   5.188  15.818  0.1503  0.1160  0.0928
17100W        W33284   3.663  11.322   3.150 -0.3074 -0.3470 -0.3336
17101W        W33285   4.020  13.000  12.029 -0.0964  0.0105 -0.0229
17102W        W33286  10.353  13.088  14.843 -0.3552  0.0922 -0.0084
17103W        W33287   3.983   7.156   5.897  0.0189 -0.0295  0.0013
17104W        W33288   8.821   3.387  15.801  0.0299  0.1321  0.1546
17105W        W33289   1.491  11.032  15.868 -0.0802  0.1262 -0.3045
17106W        W33290  14.724   2.393   2.602  0.0796  0.1239 -0.1329
17107W        W33291   0.796   3.785   2.691 -0.1783 -0.1185  0.0357
17108W        W33292   0.987  16.908  15.399  0.1115  0.1733  0.1011
17109W        W33293  15.965   0.315   2.244  0.1207 -0.0485 -0.1849
17110W        W33294  15.471   3.915   6.007  0.0012  0.1298  0.0040
17111W        W33295   5.054   6.174   1.013 -0.0571 -0.0711  0.3307
17112W        W33296   8.852   6.987   4.441  0.0291  0.1562  0.0826
17113W        W33297  15.909   1.909   0.630 -0.0287 -0.0900 -0.0906
17114W        W33298  11.913  13.039  12.475 -0.3126  0.3371  0.1601
17115W        W33299   7.611  10.066  16.722 -0.1702  0.2010 -0.0520
17116W        W33300  12.120   5.365   1.348  0.1473 -0.0797 -0.1484
17117W        W33301   8.287   6.951  14.167  0.1074  0.0847 -0.0858
17118W        W33302   8.957   1.371   1.017 -0.2178 -0.0056  0.1748
17119W        W33303  12.629   9.022  16.639 -0.1373 -0.0034  0.1544
17120W        W33304  16.263   6.780   5.305  0.0641  0.1874 -0.2211
17121W        W33305   6.023   0.756  16.515  0.0482 -0.2036 -0.0414
17122W        W33306   0.969  16.464  12.691 -0.3337 -0.0145  0.0185
17123W        W33307  14.383  11.908   2.020 -0.3692 -0.1644  0.1098
17124W        W33308   1.415   5.332  14.937 -0.0604  0.0780 -0.1170
17125W        W33309   5.475   2.063  16.910 -0.0421  0.0712  0.2511
17126W        W33310  11.122   6.692   3.127 -0.0701 -0.1225  0.0294
17127W        W33311  11.796  17.151  14.382 -0.1798 -0.3653  0.1283
17128W        W33312  16.736   0.965  11.665  0.0533 -0.2422  0.1128
17129W        W33313  16.849   2.526  14.761 -0.2431 -0.1406 -0.2785
17130W        W33314  14.997   9.376   1.846 -0.0263  0.0238 -0.0805
17131W        W33315   3.761  12.339   0.757  0.3490  0.0131  0.0303
17132W        W33316  17.455   6.622   3.848  0.0302  0.2547 -0.2956
17133W        W33317  10.839  12.986  13.219 -0.3374  0.1509 -0.3123
17134W        W33318   7.411   0.216  15.017 -0.1010  0.2978 -0.1605
17135W        W33319   6.334  13.873  16.023  0.4291  0.1408 -0.0061
17136W        W33320  10.814  13.308  11.292  0.0786 -0.0411 -0.0946
17137W        W33321  13.219   5.182   4.453 -0.1065 -0.1296 -0.0993
17138W        W33322   5.307   0.480   4.825  0.0350 -0.0343 -0.2781
17139W        W33323   4.784  17.294  11.587 -0.3296  0.1352  0.0191
17140W        W33324  13.852  13.232   4.250 -0.1325  0.0679 -0.1543
17141W        W33325   4.682   5.384  13.150 -0.1971 -0.2735  0.2106
17142W        W33326   2.258   8.535   4.645  0.2643  0.0720  0.1420
17143W        W33327   7.640  11.500  11.805  0.1016  0.0728  0.3184
17144W        W33328   0.398   7.079  13.661  0.1748  0.0287 -0.0816
17145W        W33329  16.613   8.846   1.141  0.2531  0.1484  0.1053
17146W        W33330   5.562  15.224   2.816  0.0891 -0.0935  0.0473
17147W        W33331   2.416  16.423   1.751 -0.0755  0.1130 -0.0191
17148W        W33332   2.600   3.700   4.047 -0.2135  0.1730 -0.1465
17149W        W33333   1.083  13.895   0.182 -0.2008  0.1116 -0.2090
17150W        W33334  13.731  15.412   0.304 -0.0481 -0.1858 -0.3635
17151W        W33335  11.596  11.790  12.766 -0.1953  0.0083  0.0005
17152W        W33336   1.064  10.528   6.017 -0.2037  0.3992 -0.1670
17153W        W33337   1.377  11.936  16.115  0.1067 -0.0225  0.1848
17154W        W33338  17.661  13.150  13.428 -0.2168  0.1932 -0.1523
17155W        W33339   4.405   3.910  11.977 -0.2007  0.2652 -0.0822
17156W        W33340  10.608  13.703   4.930  0.1442  0.0108  0.0906
17157W        W33341   9.847   6.023   5.974  0.1346  0.0020  0.1973
17158W        W33342  12.352  11.373   6.419  0.3067 -0.0906 -0.0979
17159W        W33343  13.006   9.829  10.734  0.0468  0.0736  0.0333
17160W        W33344   1.093   1.443   3.009  0.0271  0.0919  0.1569
17161W        W33345   1.426  14.972   0.472  0.0046 -0.2227  0.0204
17162W        W33346   5.240  10.501   4.796  0.2606  0.3075  0.0696
17163W        W33347  12.059  10.857   3.027 -0.3194 -0.1160  0.2367
17164W        W33348  12.455   1.808   0.197 -0.1549 -0.1233  0.0584
17165W        W33349   7.218  10.315   1.196  0.1564  0.0878  0.1084
17166W        W33350  14.604   4.610   4.567  0.0499 -0.1578 -0.0963
17167W        W33351  14.765  15.595  14.512  0.0251 -0.1145 -0.1018
17168W        W33352  12.025  11.270  12.341 -0.1985  0.0738 -0.1634
17169W        W33353  15.991   8.670  14.626  0.2260 -0.1392  0.3256
17170W        W33354   0.465  10.055  14.528 -0.2067 -0.1900 -0.1482
17171W        W33355  15.085  10.607  11.805  0.3349  0.1255 -0.1664
17172W        W33356   8.640  11.859  15.305  0.2695 -0.0659  0.1955
17173W        W33357   6.548   0.715   3.418  0.1057  0.0355  0.0755
17174W        W33358   9.704  13.615   5.188  0.0325  0.3533 -0.0967
17175W        W33359   6.500  17.418  14.946  0.2045  0.1941 -0.2123
17176W        W33360  13.882  14.113  13.024  0.1715  0.3196 -0.1043
17177W        W33361   8.042   6.807   0.141 -0.1985  0.3550  0.1739
17178W        W33362  13.746   8.894   5.597  0.3454  0.0587  0.1979
17179W        W33363   2.346   4.919  11.366 -0.0561  0.0592  0.1115
17180W        W33364   9.322   0.424  14.071 -0.1191  0.0731  0.0390
17181W        W33365  12.581  15.256  15.893 -0.1306  0.0055  0.2591
17182W        W33366   8.370   5.352   1.604  0.1442 -0.2734 -0.0504
17183W        W33367   0.157   2.569   0.782  0.3766 -0.2025  0.1982
17184W        W33368  13.229   5.769   0.197 -0.0265 -0.0919  0.1991
17185W        W33369  16.388   5.462   3.379 -0.2107 -0.0953  0.1522
17186W        W33370  10.634   6.237   1.805 -0.0542  0.0389 -0.2251
17187W        W33371   4.198  13.569  15.097 -0.1228 -0.0216  0.2242
17188W        W33372   3.112  10.918   2.421  0.1677  0.1900  0.0006
17189W        W33373  15.123   2.344   3.018  0.1816 -0.0252  0.2598
17190W        W33374  10.611   7.585   5.214 -0.1254  0.0454 -0.2552
17191W        W33375  14.483   6.789   3.851  0.0252 -0.0951  0.1304
17192W        W33376   9.701   9.991   1.879 -0.1968 -0.2361 -0.0510
17193W        W33377   7.771  11.172  15.279 -0.0829  0.2491  0.1220
17194W        W33378   9.899   6.837   6.317  0.2686  0.1923 -0.0706
17195W        W33379   2.535  11.005   2.626  0.0872  0.1414 -0.1854
17196W        W33380   9.676   7.261   1.453  0.0775  0.0652 -0.0431
17197W        W33381   7.985  12.331   2.580 -0.0540  0.1231  0.0147
17198W        W33382   2.882  14.697  13.593  0.1278 -0.0535 -0.0239
17199W        W33383   3.466   6.333   3.344  0.2746  0.1936  0.0516
17200W        W33384   8.859   1.190   2.928 -0.0994  0.1177 -0.1199
17201W        W33385  15.820  12.448   3.786  0.0573 -0.0594 -0.3625
17202W        W33386   1.631   1.903   3.280  0.1429 -0.1732  0.0608
17203W        W33387  12.766  11.279  14.168  0.1635  0.2113 -0.2397
17204W        W33388   6.748  12.611  13.596 -0.0832  0.0480  0.1254
17205W        W33389   6.393   5.826   3.257 -0.0521 -0.2714 -0.3064
17206W        W33390   4.559   8.856   1.806 -0.1703 -0.0300 -0.1031
17207W        W33391  17.370  15.532  14.931  0.0643  0.0217 -0.0161
17208W        W33392   5.763  11.059   0.676 -0.2077  0.0176  0.0071
17209W        W33393   1.843  16.749   3.030 -0.0037  0.0137 -0.1858
17210W        W33394   9.139  13.352   2.996 -0.1003  0.0014  0.3416
17211W        W33395  11.140   3.515  12.030 -0.2256 -0.2989  0.1822
17212W        W33396   7.279   0.432  16.650  0.0481  0.0610 -0.0131
17213W        W33397   4.489  15.353  11.218 -0.0793  0.1184 -0.3100
17214W        W33398   9.868  11.784   0.082 -0.0891 -0.1956  0.0084
17215W        W33399  15.425  10.034   5.046 -0.1213  0.2884 -0.2010
17216W        W33400   3.366   9.381  16.386 -0.0260  0.2501 -0.4927
17217W        W33401   5.814  17.664  14.143  0.0989  0.0392 -0.1814
17218W        W33402   4.854   3.770   3.794  0.1346 -0.0674 -0.0040
17219W        W33403   5.891  17.284   5.158  0.1563  0.1680  0.2087
17220W        W33404  15.500   6.906   1.970  0.2828  0.1196 -0.1758
17221W        W33405   1.895   3.731  13.738  0.2704  0.1663  0.0037
17222W        W33406   4.261   0.234  11.329 -0.2512 -0.3373 -0.0528
17223W        W33407   5.480   3.234   5.691  0.0153  0.0937 -0.1661
17224W        W33408  15.115  15.482   5.201 -0.1919  0.2937  0.0901
17225W        W33409   2.192   4.254   4.876  0.3838 -0.5177 -0.4998
17226W        W33410  10.870   4.612  11.523  0.0903  0.2512 -0.0285
17227W        W33411   6.637  15.747  13.529  0.1091 -0.2651  0.1980
17228W        W33412   3.847   2.399   0.184  0.1261  0.0612 -0.0332
17229W        W33413   2.903  16.541   1.627  0.0132 -0.1041  0.2135
17230W        W33414   1.320  15.492  14.001  0.3486 -0.0356  0.0446
17231W        W33415  14.948   4.213  14.093  0.1850 -0.1536  0.3349
17232W        W33416  15.752   4.491   0.162 -0.0713  0.0640  0.1924
17233W        W33417  12.115  15.298   0.186 -0.3187  0.1234 -0.0499
17234W        W33418   2.200   0.808   5.499 -0.0608 -0.2235 -0.0809
17235W        W33419   9.002  17.039   2.965  0.0289 -0.3609  0.0293
17236W        W33420   1.260  16.409   0.218 -0.2517 -0.1026  0.0000
17237W        W33421  15.981   3.154   2.325  0.2276 -0.1144  0.4732
17238W        W33422   5.892   5.463  15.140 -0.1129  0.0279  0.0491
17239W        W33423  16.206  14.387   5.198 -0.2441  0.0337 -0.0805
17240W        W33424   0.597   5.036  16.729  0.0274  0.1881 -0.0613
17241W        W33425  13.463  17.678   4.082  0.0806 -0.2765 -0.3615
17242W        W33426  13.504   0.576  15.618 -0.0602  0.1626  0.0018
17243W        W33427   8.232  17.304   3.766  0.0204 -0.4024 -0.0385
17244W        W33428  14.752  11.460  16.126  0.0808  0.0095 -0.0590
17245W        W33429  10.918   5.156  15.459 -0.2350 -0.1740 -0.1374
17246W        W33430   1.925   7.916  13.914 -0.0845 -0.1988 -0.2995
17247W        W33431   7.487   1.747   2.919 -0.1462  0.2996  0.0140
17248W        W33432  10.711  14.523   2.003  0.1969  0.0355  0.0561
17249W        W33433  15.837   8.113   4.067  0.3201  0.0865 -0.1930
17250W        W33434  10.647   6.953   3.963 -0.3380  0.0179 -0.0648
17251W        W33435  10.065   6.808   4.304  0.0878  0.1893  0.0301
17252W        W33436   5.998   7.166  15.873  0.2998  0.0750 -0.3714
17253W        W33437   7.944   7.982   0.151 -0.1007 -0.3114 -0.1243
17254W        W33438  13.024   5.640   2.618  0.0973  0.1643 -0.1311
17255W        W33439   7.504  17.255  10.915  0.0072  0.0252 -0.1233
17256W        W33440  15.488   1.524   1.496 -0.0054  0.1846 -0.0011
17257W        W33441   0.245   5.626   3.908 -0.4095  0.2146  0.1455
17258W        W33442   7.131  15.600  16.249 -0.1515 -0.1797 -0.0248
17259W        W33443   9.212  13.030  10.976  0.2146  0.0734 -0.0088
17260W        W33444  11.577   2.074  16.914  0.1403 -0.3623 -0.1736
17261W        W33445   2.727   5.487  14.812 -0.1859  0.1931 -0.1591
17262W        W33446  16.240   4.439   5.065  0.0635 -0.2093 -0.0940
17263W        W33447   9.833  12.000   2.714  0.0653  0.2365 -0.1332
17264W        W33448   8.843   9.199   6.083 -0.2763 -0.3253  0.3947
17265W        W33449  16.106  17.306   3.217 -0.1606  0.1609  0.1045
17266W        W33450   8.577   6.909  11.992  0.1161 -0.2322 -0.2403
17267W        W33451   4.259  15.762  11.370 -0.1304  0.0918 -0.0019
17268W        W33452   2.215  10.475  13.617 -0.2024 -0.0802 -0.1848
17269W        W33453   0.861  16.904   2.628 -0.2140 -0.1207  0.1069
17270W        W33454  12.501  11.722   4.760 -0.1679  0.3132 -0.2021
17271W        W33455   2.747   2.583   3.221 -0.0619 -0.2392  0.0819
17272W        W33456   4.495   6.917   0.117 -0.2050  0.2794 -0.0758
17273W        W33457  14.591  13.131   2.651  0.1964 -0.1163 -0.1599
17274W        W33458   2.055   1.271  13.061  0.1872 -0.1363  0.1141
17275W        W33459   7.743  14.188  15.443  0.3512  0.3023 -0.3734
17276W        W33460   1.939  11.584   6.165  0.2003 -0.0372  0.4017
17277W        W33461   6.944  12.436   4.706 -0.0720  0.0532 -0.0066
17278W        W33462   0.434   2.284  16.439  0.0846  0.3399 -0.1114
17279W        W33463  11.348   0.403   2.627 -0.1472  0.1064  0.0123
17280W        W33464  13.649   1.715  12.132  0.0689 -0.0497 -0.0271
17281W        W33465   4.389   9.144  11.667 -0.2076  0.1171 -0.0678
17282W        W33466   8.337   6.889   1.078  0.1325 -0.1728  0.3206
17283W        W33467   0.376   2.234  15.228 -0.2978 -0.0754  0.1545
17284W        W33468   8.878  13.210  14.734 -0.1056 -0.1530  0.0324
17285W        W33469  13.560   6.858  13.417  0.0367 -0.1182  0.1280
17286W        W33470  13.120   6.124   5.625 -0.0731  0.1997  0.0918
17287W        W33471  14.270  10.505   3.464  0.0284  0.1860 -0.3088
17288W        W33472   0.196   8.098   4.212  0.0832 -0.0577  0.0002
17289W        W33473  16.883   5.257   1.584  0.0707  0.0003 -0.1881
17290W        W33474   3.678  17.521  13.944  0.0025  0.2539 -0.0361
17291W        W33475  13.697  13.818  14.509  0.2687 -0.0525  0.0546
17292W        W33476  14.430  13.549  13.565  0.0760 -0.2762 -0.2005
17293W        W33477  12.024  10.762  14.731 -0.3495  0.0503  0.2276
17294W        W33478  12.797  10.906  12.731 -0.2420 -0.0703 -0.1322
17295W        W33479   8.915  12.997  15.676  0.0354 -0.2567 -0.1631
17296W        W33480  14.488  16.169   0.166  0.2494 -0.0068 -0.0769
17297W        W33481   4.088   4.248  12.246  0.0470 -0.0149 -0.4158
17298W        W33482  13.792  13.888   5.978  0.0616  0.0720  0.0238
17299W        W33483  15.999   5.980   4.985 -0.1004  0.0874  0.0005
17300W        W33484   0.479   4.809   1.215  0.0772  0.3245  0.0092
17301W        W33485  14.160   4.381   3.292 -0.0732  0.4040 -0.2288
17302W        W33486   7.876  17.776  12.683 -0.0620  0.0675  0.0872
17303W        W33487  13.149  10.804   0.144 -0.0701  0.0771  0.0500
17304W        W33488  14.051   8.336  11.125 -0.0185  0.0184 -0.2815
17305W        W33489   3.830   4.225   0.041 -0.1103 -0.1567  0.1127
17306W        W33490   9.590   7.756   1.762  0.1054  0.0199  0.2968
17307W        W33491   7.953  12.458   0.783 -0.0906 -0.0393  0.1874
17308W        W33492   1.755  15.946   5.875  0.0832 -0.2560  0.1241
17309W        W33493  14.955   9.643  14.371 -0.2802  0.2137 -0.0789
17310W        W33494   0.581   3.245  12.761  0.0233  0.0481 -0.0759
17311W        W33495   5.126  17.569  11.303  0.0334  0.1740 -0.0444
17312W        W33496  10.712  17.173  12.977 -0.3820  0.1081  0.1933
17313W        W33497  13.171  16.237   1.024 -0.0018 -0.3486  0.1849
17314W        W33498  10.142  10.751   2.203  0.1499 -0.0303  0.2615
17315W        W33499   0.691  15.291  12.368 -0.1336 -0.1564  0.2283
17316W        W33500   7.180  14.164   3.080  0.1445  0.1415  0.2474
17317W        W33501  13.413  12.326  12.051 -0.0687 -0.0527  0.0882
17318W        W33502   9.035   2.332   3.934 -0.2540  0.0068 -0.0928
17319W        W33503  11.538   2.384  13.449  0.0753 -0.0245  0.1258
17320W        W33504  16.135   5.049   2.575  0.1593  0.0837  0.1795
17321W        W33505   7.080   9.319  12.957  0.0628 -0.1384 -0.2675
17322W        W33506   8.429   9.151   3.230  0.0805  0.0801 -0.0858
17323W        W33507   8.455  13.754   2.394 -0.0615  0.1170 -0.0664
17324W        W33508   0.915  14.683  14.293  0.0137 -0.0035 -0.2732
17325W        W33509   5.089   4.232  14.703  0.4650  0.0214 -0.0016
17326W        W33510   7.965   4.300   4.206 -0.0778  0.0743  0.1344
17327W        W33511   6.678   2.768   1.981 -0.0399 -0.1699 -0.4269
17328W        W33512  15.439   3.904  16.317 -0.1210  0.0401  0.3314
17329W        W33513   0.897  10.746   3.163 -0.0800 -0.0411  0.3765
17330W        W33514   2.149  13.328   0.969  0.3234  0.0876  0.2094
17331W        W33515   2.243   7.530   0.775  0.0208  0.1945 -0.1686
17332W        W33516   4.567  15.170   1.805 -0.0204  0.1791 -0.0001
17333W        W33517   6.802  14.581  12.645  0.2530  0.0498 -0.2057
17334W        W33518   0.211  10.825   0.070  0.2704  0.0334 -0.0291
17335W        W33519   3.788   3.748  10.823  0.0520 -0.1863 -0.2042
17336W        W33520   9.201   7.794   5.279  0.1092 -0.1009 -0.0853
17337W        W33521   3.262  12.480   2.591  0.1329  0.0843  0.3439
17338W        W33522  14.827   7.230  11.635  0.0750 -0.1230  0.0930
17339W        W33523   4.311  15.051  15.406 -0.0757  0.3213  0.0849
17340W        W33524   2.170   8.356  16.928 -0.2505  0.2559 -0.3271
17341W        W33525  12.697  13.256  13.125 -0.0488  0.3553  0.1029
17342W        W33526  15.204  14.598  12.245  0.0578  0.1750 -0.3666
17343W        W33527   9.281   9.884  13.699  0.2172 -0.0201 -0.3842
17344W        W33528   4.432   0.608   3.878 -0.0449  0.1009  0.0756
17345W        W33529   7.819  17.810   3.979 -0.0618  0.2117 -0.2494
17346W        W33530   6.021  11.121  15.576 -0.1282 -0.0658  0.0734
17347W        W33531  12.073   0.659   5.036 -0.2731  0.2642 -0.1384
17348W        W33532   1.423   1.752  12.547  0.0394  0.2413  0.2064
17349W        W33533   4.526   3.265   2.260 -0.1088  0.0037  0.0077
17350W        W33534  11.422   6.581  16.325 -0.2425  0.0527  0.1826
17351W        W33535   5.126  13.645   0.484 -0.3453  0.1329 -0.3372
17352W        W33536   8.705  10.740  11.758  0.2375 -0.1443  0.3124
17353W        W33537  12.337   1.385  14.965  0.5087 -0.0431  0.0937
17354W        W33538  12.942  12.725  12.274 -0.0438 -0.0558  0.1322
17355W        W33539   3.901  13.743  15.436  0.0044 -0.0243 -0.0659
17356W        W33540  17.822   3.954   5.993  0.3937  0.1015 -0.2491
17357W        W33541   8.129   3.706   2.280 -0.1162 -0.0918  0.1418
17358W        W33542   9.253  16.874  11.592 -0.1058 -0.1413  0.0071
17359W        W33543  16.289   4.383   3.111  0.3085  0.4465  0.1722
17360W        W33544  16.074  11.511   3.459  0.1508  0.1772 -0.0677
17361W        W33545   4.631  14.909   5.444  0.0984  0.0449 -0.2909
17362W        W33546  16.250  17.701   2.954 -0.2890  0.1596  0.0453
17363W        W33547   4.014   1.681   6.368  0.1907 -0.3363  0.1668
17364W        W33548   0.178   8.416   3.838 -0.0057  0.2030 -0.0329
17365W        W33549   7.163  11.925  16.020  0.1425  0.2661  0.1520
17366W        W33550   6.812  14.054   5.676  0.2190 -0.0989 -0.0738
17367W        W33551  11.027  11.754  11.836 -0.1551  0.0714  0.2420
17368W        W33552   8.204   4.454   1.317  0.1632 -0.2083  0.0597
17369W        W33553   9.574  13.176  11.421 -0.2789  0.0741  0.1134
17370W        W33554   7.010   3.092  12.069 -0.0871  0.1527 -0.2315
17371W        W33555  11.767   5.797  15.231 -0.0975  0.0588  0.0315
17372W        W33556   2.297   8.620   1.945  0.3018  0.0074 -0.2432
17373W        W33557  17.699  12.983  11.956  0.0575 -0.0185  0.1600
17374W        W33558   0.062  16.564  15.312 -0.0632  0.0357  0.0178
17375W        W33559  13.739  10.286  15.434 -0.0639 -0.1726  0.1442
17376W        W33560  12.918   1.836   1.330  0.2720 -0.0629 -0.0688
17377W        W33561   4.329  15.476  13.264 -0.1493  0.0390 -0.0978
17378W        W33562  14.427  16.420  15.164  0.1972  0.1040  0.0608
17379W        W33563   4.896   4.207  13.812  0.0176  0.1699  0.1950
17380W        W33564   2.975   9.623  15.630  0.1272  0.0427  0.1795
17381W        W33565  16.998   9.982   2.030  0.2118  0.0634 -0.0988
17382W        W33566   8.013   0.880   2.791 -0.0678  0.1242  0.0840
17383W        W33567   2.289  15.361   1.308 -0.2052  0.0328  0.3354
17384W        W33568   8.644  16.955  13.903 -0.2819  0.1458  0.0572
17385W        W33569  15.629  15.124   3.587 -0.0056 -0.2331 -0.3056
17386W        W33570  10.710  15.480  15.825  0.0410  0.3459  0.2599
17387W        W33571   1.320   3.312  14.916 -0.0523  0.1950  0.3885
17388W        W33572  10.852   0.772   3.996  0.1033 -0.0183 -0.0183
17389W        W33573  11.386  12.262  15.923 -0.2019  0.0101 -0.0943
17390W        W33574   4.912   0.656   2.088 -0.1705 -0.0632 -0.0048
17391W        W33575  12.393   6.215   4.929 -0.2875 -0.1510  0.1417
17392W        W33576   5.834  16.521   3.418 -0.0763 -0.2189 -0.2966
17393W        W33577   0.111  10.501   1.817  0.1248 -0.2389  0.2695
17394W        W33578  15.039   6.698  12.363  0.1040  0.0512 -0.1534
17395W        W33579  10.371   9.469  13.786 -0.1921 -0.0330  0.0228
17396W        W33580  17.565  15.197   4.710  0.0873  0.0724  0.0780
17397W        W33581   7.136  16.451  15.719 -0.0747  0.0141  0.1561
17398W        W33582   7.830   0.113  12.237  0.1857 -0.1894  0.0057
17399W        W33583   1.067   0.000  13.866  0.1115  0.0069  0.0451
17400W        W33584   6.140   2.527  12.260  0.1050  0.3874 -0.1679
17401W        W33585   2.511  16.900  13.136 -0.1309 -0.0062  0.0341
17402W        W33586   4.991   2.117   1.018 -0.4163  0.0871  0.2325
17403W        W33587  11.316  10.236  15.973 -0.1109 -0.1668 -0.0667
17404W        W33588  15.094   3.054  15.349 -0.0869 -0.1631 -0.0340
17405W        W33589  16.424   2.492   3.415  0.3382 -0.1344  0.0885
17406W        W33590   0.960  15.999   3.559 -0.4942  0.0021 -0.2472
17407W        W33591  16.094   3.756   3.098 -0.0698  0.0832 -0.0392
17408W        W33592  12.856  16.779  12.905 -0.2056  0.3138  0.0054
17409W        W33593   7.305   4.266   0.977  0.1710  0.0617  0.0221
17410W        W33594  11.139   7.518   5.024  0.2703  0.0619  0.1392
17411W        W33595   9.114   3.259  12.922  0.1167  0.0742 -0.4986
17412W        W33596  13.213   9.375   3.437 -0.2018  0.1714  0.0251
17413W        W33597  15.138   6.788  14.727 -0.0159 -0.2083  0.0660
17414W        W33598   1.359   7.286   0.365  0.1328 -0.0412 -0.0039
17415W        W33599  15.727   8.993  14.336  0.3759  0.0708  0.1188
17416W        W33600   6.925   6.486  16.536  0.4131  0.2271 -0.2034
17417W        W33601  14.539   4.382   5.332 -0.0596  0.0821 -0.0196
17418W        W33602  16.754  15.158   0.645 -0.0505  0.1085  0.0302
17419W        W33603  11.056   7.007  12.079 -0.1280 -0.0654  0.3745
17420W        W33604  14.808   1.168   2.808  0.1302 -0.0764  0.0729
17421W        W33605  15.622   6.156   5.492  0.0529 -0.3625 -0.5296
17422W        W33606  16.329   9.911   1.112  0.0416 -0.2623  0.0540
17423W        W33607  13.397   1.911  12.886 -0.0285  0.3441 -0.0332
17424W        W33608  12.677  17.437   2.721 -0.2831  0.1350 -0.1014
17425W        W33609   2.501  16.048  14.207 -0.0921  0.0273  0.1272
17426W        W33610   5.863  16.513   4.021 -0.0221  0.1923  0.1139
17427W        W33611  12.082  10.169   2.569  0.0106  0.1445  0.0414
17428W        W33612  15.795   4.515   3.875  0.2989  0.1797 -0.0759
17429W        W33613   6.410   5.240   1.017  0.1734 -0.2442  0.1815
17430W        W33614  14.912  11.102   1.386 -0.1277  0.0854 -0.1325
17431W        W33615  17.437  17.466  12.642  0.3672 -0.1660 -0.0754
17432W        W33616  17.434   5.390  15.674  0.0768  0.0663  0.3681
17433W        W33617   1.830   8.309   4.921  0.0691  0.2632  0.3229
17434W        W33618   7.589   3.034  15.186  0.1870 -0.2444 -0.1689
17435W        W33619   3.261   7.380  13.975  0.1858  0.0770  0.0036
17436W        W33620  15.433  11.802  13.812 -0.2897  0.2974  0.1950
17437W        W33621  13.866  11.871   5.641  0.1827 -0.1540 -0.2948
17438W        W33622   5.177  13.748  15.579 -0.2305  0.0517 -0.0654
17439W        W33623  13.440   6.794   0.212 -0.1058 -0.0294 -0.1327
17440W        W33624   2.043   8.476  15.243 -0.1945  0.0545 -0.1075
17441W        W33625  11.281  11.492  14.598 -0.3536 -0.0927  0.2658
17442W        W33626  12.992  11.945   3.207 -0.2280  0.0262 -0.1916
17443W        W33627   5.573  16.718  11.580 -0.1044 -0.1721 -0.0033
17444W        W33628   7.780   0.811   4.199 -0.0059  0.0089 -0.0476
17445W        W33629  15.696   9.717   2.753 -0.0551 -0.0179 -0.1475
17446W        W33630   0.628   7.227   3.170  0.2439  0.4249  0.0874
17447W        W33631   8.309  15.423   0.486 -0.2099  0.1297 -0.3143
17448W        W33632  10.755  13.238   5.117  0.1513 -0.3642  0.1306
17449W        W33633   0.322   0.245   4.702  0.2337  0.0469 -0.0068
17450W        W33634   3.718  11.298  16.409  0.1087 -0.3282  0.0800
17451W        W33635   6.937   6.438   1.937 -0.0644  0.1108  0.0993
17452W        W33636   3.649   0.885  12.991  0.0031  0.3900 -0.0257
17453W        W33637   1.963   5.672  15.580  0.1154  0.1948  0.1548
17454W        W33638  15.638  17.107  12.818  0.2139 -0.1348  0.0927
17455W        W33639  12.417   8.634  14.569  0.1840  0.0271  0.1606
17456W        W33640  10.912   0.851  15.808  0.0017  0.1439 -0.1002
17457W        W33641   6.749   1.720   0.194  0.0819  0.0566 -0.3613
17458W        W33642   6.914  14.593   0.464 -0.0884 -0.1038 -0.1464
17459W        W33643  15.901  12.650  13.818  0.1059  0.3668  0.3784
17460W        W33644   1.629   0.758   4.215 -0.1175 -0.2074 -0.2726
17461W        W33645   7.397  15.441  14.835  0.1431 -0.0253 -0.2513
17462W        W33646   0.519   9.797   2.641  0.1312 -0.0161  0.0262
17463W        W33647   1.275  13.281   0.737  0.1790 -0.0797 -0.0450
17464W        W33648  11.519  13.232  15.637 -0.1159 -0.0171 -0.3796
17465W        W33649  17.032   3.434   0.332  0.2968 -0.0807 -0.0367
17466W        W33650  10.408  13.225   2.860 -0.0092 -0.1772  0.0237
17467W        W33651  13.052  11.157  12.191  0.3231  0.0378 -0.1122
17468W        W33652  11.390   8.651  14.168  0.3348 -0.0316 -0.1232
17469W        W33653   5.901   4.931   4.936 -0.1171  0.1518  0.0836
17470W        W33654   3.676   6.947  12.901 -0.0160  0.0086  0.0236
17471W        W33655  10.063  12.734   3.980 -0.1386 -0.2375 -0.2374
17472W        W33656  12.579  14.094   6.017 -0.0476 -0.0343 -0.1066
17473W        W33657   2.091  12.923   4.429 -0.0686 -0.0647  0.1958
17474W        W33658  12.431   8.853   2.450  0.0936  0.0173  0.0913
17475W        W33659   6.125   9.727   4.196 -0.0420 -0.0336  0.1740
17476W        W33660   4.720  15.754  15.049  0.0639 -0.4175  0.0419
17477W        W33661   7.553   8.991   3.166  0.0021  0.3959  0.1114
17478W        W33662   3.349   2.326   0.235 -0.2470  0.0064  0.2726
17479W        W33663  16.961   4.792  15.091 -0.1685 -0.2982 -0.3144
17480W        W33664   1.077  10.973  16.851  0.0640 -0.0352  0.0495
17481W        W33665   6.261  17.623   5.056  0.4608  0.0394 -0.1170
17482W        W33666  10.982  14.051   2.714 -0.0152  0.0139 -0.0607
17483W        W33667  12.774  17.250   1.106  0.0294  0.1073 -0.1754
17484W        W33668  12.776   1.139   2.597  0.0729 -0.0494 -0.0614
17485W        W33669   1.372   0.383  13.736  0.0325 -0.2236  0.1817
17486W        W33670   8.199   1.936  13.092  0.0983 -0.1945  0.3376
17487W        W33671   0.640   4.543   4.663 -0.0262 -0.0678  0.1274
17488W        W33672   9.465  10.055   5.263  0.0602 -0.0922 -0.0371
17489W        W33673   7.387   1.454  11.839  0.3319 -0.0232 -0.3420
17490W        W33674   5.626   7.167   3.418  0.0489 -0.0918 -0.1402
17491W        W33675  13.164   2.380  12.001 -0.0606  0.0865 -0.6429
17492W        W33676  11.406  12.275  13.645 -0.0182 -0.4431  0.1219
17493W        W33677  15.840  16.940  14.555  0.0659 -0.2346 -0.0565
17494W        W33678   9.989  16.780  14.714 -0.0424  0.2181 -0.0175
17495W        W33679  12.923   5.806   0.833 -0.2987  0.2725  0.0520
17496W        W33680   7.446   0.455   1.550 -0.1541 -0.2784 -0.2347
17497W        W33681   7.600   8.038  13.992 -0.1286  0.0664  0.0072
17498W        W33682  11.094   3.338   1.502  0.0638 -0.1790 -0.1291
17499W        W33683  13.680   2.281  13.270  0.0570 -0.2061 -0.0552
17500W        W33684   2.220   0.278   2.570 -0.1332  0.0761 -0.0228
17501W        W33685   7.370  15.407  14.004  0.3536 -0.0157  0.1087
17502W        W33686   4.786   0.558  14.195 -0.0336  0.1041 -0.1324
17503W        W33687   9.955   6.091   4.427  0.0325 -0.0050  0.0308
17504W        W33688   8.726  15.913   5.629 -0.3332  0.0750 -0.1442
17505W        W33689   5.302  13.990  12.894  0.2483 -0.0395  0.0802
17506W        W33690   0.794   8.776   0.664  0.2122 -0.0132 -0.0005
17507W        W33691   4.153  16.815   0.432  0.1526  0.1503 -0.0470
17508W        W33692   9.947  16.357  15.128 -0.1843 -0.4878 -0.0953
17509W        W33693  16.977   5.661  12.129 -0.1830  0.0235  0.0921
17510W        W33694  16.272   7.955  15.844 -0.2620  0.0927  0.1255
17511W        W33695  17.531   9.364   2.823  0.1112 -0.0631  0.1871
17512W        W33696  10.942  10.454  12.317 -0.0284  0.2366  0.2200
17513W        W33697   3.080   6.354   3.697  0.0582 -0.0551  0.0353
17514W        W33698   9.317   2.826  11.849  0.2619  0.0725  0.3157
17515W        W33699   0.036  16.200  14.971 -0.0198  0.2408 -0.0575
17516W        W33700   7.720  15.759   2.348  0.2551 -0.3009 -0.0414
17517W        W33701   9.092   2.359   4.432 -0.0272 -0.0040 -0.0960
17518W        W33702   2.414   6.288   2.916 -0.3836 -0.1128  0.2021
17519W        W33703  11.400   5.259  13.996  0.1571 -0.1937  0.0982
17520W        W33704   1.952   3.234   0.754  0.2761 -0.0899  0.0664
17521W        W33705  13.530   8.398   0.722  0.0266  0.1130 -0.2127
17522W        W33706   1.563  11.119  15.384 -0.1670  0.4245 -0.3939
17523W        W33707   1.056  10.985   3.569 -0.2299 -0.4372 -0.1160
17524W        W33708   0.123   8.410   1.353  0.2837  0.1136 -0.2236
17525W        W33709  17.114  12.274   5.105  0.1264 -0.0676 -0.3563
17526W        W33710   9.021  11.701   6.178  0.1760  0.0958  0.0077
17527W        W33711   3.811  15.492  13.939 -0.1090 -0.2347 -0.1871
17528W        W33712   0.615  11.961  11.918 -0.3769  0.2734  0.2106
17529W        W33713   6.325  13.403  16.230  0.1764  0.0342 -0.1946
17530W        W33714  14.296   4.572   2.337  0.0804  0.4212  0.0549
17531W        W33715   8.669   8.383  11.193 -0.1100 -0.1151 -0.0589
17532W        W33716   0.914  15.935   1.431 -0.2365 -0.1815  0.0904
17533W        W33717   5.099  13.906  11.438  0.2415 -0.0367  0.0053
17534W        W33718  16.349  15.872  16.665  0.0639  0.2294  0.1247
17535W        W33719   0.736   8.906   1.928 -0.1944  0.2388 -0.0922
17536W        W33720  14.252   7.336  13.054  0.2824  0.1516 -0.1615
17537W        W33721   0.755  14.908   2.271  0.2031  0.0590 -0.0526
17538W        W33722  15.929   8.039   1.686  0.0515  0.0484  0.1538
17539W        W33723  14.393  14.311  16.809  0.1163 -0.0074 -0.1133
17540W        W33724   4.679   5.826   0.747 -0.1654 -0.0312 -0.1882
17541W        W33725   9.336  15.313  11.249  0.2318  0.0110  0.1988
17542W        W33726  15.556  12.206  12.067 -0.1639 -0.0060 -0.0636
17543W        W33727  12.948   6.340   0.805  0.1111 -0.2147 -0.0151
17544W        W33728  14.552   9.233  15.589  0.1550  0.0640  0.0464
17545W        W33729  10.242  14.737  15.324 -0.0194 -0.1733  0.0679
17546W        W33730  11.410  14.366   1.165  0.0098  0.0877  0.0391
17547W        W33731   4.442   8.302   0.540 -0.0664  0.1524  0.1104
17548W        W33732   5.817   0.136   3.424 -0.2533 -0.2959  0.1818
17549W        W33733   1.516   3.474   1.592  0.1283  0.2863  0.2027
17550W        W33734   3.499   7.892   4.640 -0.2174 -0.0928  0.0275
17551W        W33735  12.199   0.319  15.454  0.1035 -0.0026  0.0241
17552W        W33736   7.294  15.881   3.887 -0.1025  0.0391  0.0361
17553W        W33737   5.068   1.326   0.157  0.3092 -0.1715 -0.0390
17554W        W33738  10.191  14.025   6.171 -0.0717  0.1435 -0.3057
17555W        W33739  14.443   1.846  14.931 -0.1798  0.1249  0.0823
17556W        W33740   6.152  14.732  14.930  0.3248 -0.0914 -0.1534
17557W        W33741   4.816  15.385   3.877  0.1791  0.3082  0.1015
17558W        W33742  14.411  11.853  16.019 -0.3214 -0.0377  0.2848
17559W        W33743   0.221  16.154  14.501 -0.0197  0.0373  0.3115
17560W        W33744  13.933  12.825   1.388  0.2615  0.2024  0.0430
17561W        W33745   9.451  13.958  14.860 -0.1575  0.1806 -0.1262
17562W        W33746   5.721  10.041   0.726 -0.0918  0.0148 -0.0658
17563W        W33747  17.591   8.963   4.436  0.0858 -0.1684  0.1373
17564W        W33748  13.201   8.108   3.800  0.1626  0.0039  0.2038
17565W        W33749   4.576  10.499   3.689 -0.3482  0.0008  0.0168
17566W        W33750  17.672   3.281  12.460  0.1485  0.0473  0.0060
17567W        W33751   9.715   5.768  15.324 -0.2758  0.1925 -0.0230
17568W        W33752   4.061  17.691   2.606 -0.2675 -0.3763  0.1918
17569W        W33753  11.292  14.809   4.732 -0.0591 -0.4440 -0.1253
17570W        W33754   2.191  13.222   3.260  0.0012  0.0161  0.0196
17571W        W33755  12.544  11.165  16.732 -0.1581  0.0921  0.1260
17572W        W33756  14.927   9.181  14.576 -0.0969  0.0207 -0.0341
17573W        W33757  10.370  10.306   2.950 -0.0162  0.1202 -0.0020
17574W        W33758  14.434  17.879  11.774  0.1675  0.0684 -0.0580
17575W        W33759  12.764   6.138  15.551 -0.0802 -0.1362  0.2344
17576W        W33760   4.210   6.970  16.282  0.2588 -0.1469  0.0128
17577W        W33761  16.455   8.067   5.818 -0.0451 -0.0651  0.1404
17578W        W33762   7.510  12.763   0.081  0.0826 -0.1534 -0.1440
17579W        W33763  15.029  17.406  12.286 -0.5359  0.0350 -0.0995
17580W        W33764  15.902  14.699   2.297  0.1848  0.2282 -0.1766
17581W        W33765   3.742  12.391   2.415 -0.2368 -0.0539  0.1676
17582W        W33766  16.266   4.092   2.114  0.0475  0.0961  0.0617
17583W        W33767   2.764  14.588  13.090  0.2047  0.1976  0.1582
17584W        W33768   5.475  13.894   0.810 -0.0386  0.0807 -0.4598
17585W        W33769   5.998   3.476  11.428  0.3244  0.0824 -0.2807
17586W        W33770   9.028   7.005   3.894  0.2598  0.0020  0.0771
17587W        W33771   0.962  11.355  16.560  0.0912  0.3043  0.0862
17588W        W33772   8.537  13.113  15.353 -0.2294 -0.0733 -0.0928
17589W        W33773   4.923  16.825   3.964  0.0218  0.4173  0.0062
17590W        W33774   8.346   9.829  14.115  0.1830 -0.0658 -0.1790
17591W        W33775   8.785  14.477  12.286 -0.0293  0.0546 -0.0099
17592W        W33776   0.895  10.349  15.737 -0.1150 -0.2513 -0.0186
17593W        W33777   7.298  16.070  16.119  0.0169  0.0569 -0.1236
17594W        W33778  14.254  15.138  15.893 -0.2001  0.3426  0.0706
17595W        W33779  12.152   0.363   2.363 -0.2123  0.2193 -0.1009
17596W        W33780   5.298  14.672   4.464  0.0577  0.1831 -0.0093
17597W        W33781   1.509   3.388  13.483 -0.0601 -0.1170  0.1227
17598W        W33782   3.959   7.868  15.713  0.0835 -0.1253 -0.0562
17599W        W33783   3.649   1.939   1.374 -0.2030 -0.0310 -0.2180
17600W        W33784   6.943   7.920   2.587 -0.1982  0.2033 -0.3201
17601W        W33785   5.175   0.976  14.932  0.2184  0.1018  0.0599
17602W        W33786   4.978  12.517  16.199  0.0180  0.1479  0.3538
17603W        W33787   2.878   0.162  13.749 -0.1070  0.0594 -0.1677
17604W        W33788  11.602   9.835   1.568 -0.2490 -0.0482 -0.1990
17605W        W33789   3.427  10.209  14.160 -0.0276  0.1876  0.3919
17606W        W33790  17.609   5.462  13.888  0.3599 -0.0344 -0.0728
17607W        W33791   3.855  17.559   2.184  0.4775  0.1557  0.3474
17608W        W33792   4.952   7.957   1.343 -0.1836  0.0612  0.2921
17609W        W33793   5.009  16.809  13.642  0.1805 -0.3689 -0.1362
17610W        W33794   5.514   4.020  13.087  0.0877 -0.2377  0.1507
17611W        W33795  16.747   3.578  16.162  0.3409  0.1384  0.1788
17612W        W33796  11.386  13.739  15.471 -0.0192  0.0178  0.1922
17613W        W33797   9.662   7.791   0.154 -0.0396 -0.1078 -0.0063
17614W        W33798  10.000   0.048   2.242 -0.0626  0.2375 -0.2752
17615W        W33799   0.963  11.059   0.665  0.3634 -0.0312 -0.0895
17616W        W33800   0.325  10.931   0.668 -0.2014  0.2141 -0.1330
17617W        W33801   7.484   7.503  12.666 -0.0086 -0.1444  0.3240
17618W        W33802  17.717   7.959  16.418  0.1126  0.0584 -0.1860
17619W        W33803   4.021  16.121   4.683  0.0276 -0.0610  0.0215
17620W        W33804  16.675   8.518   4.043  0.1081  0.2398  0.1153
17621W        W33805   6.408  10.075   5.068  0.0705  0.0200 -0.1072
17622W        W33806  16.555   0.594  15.524  0.0413  0.0269  0.1395
17623W        W33807   5.951  14.173  12.561 -0.0806  0.3080  0.3437
17624W        W33808   5.959   8.641   2.373 -0.0181 -0.0975 -0.0013
17625W        W33809   2.015  17.426  13.969  0.0420 -0.2381 -0.0894
17626W        W33810   8.226   0.688   4.428  0.0294  0.0639 -0.3679
17627W        W33811   7.112   6.937  16.836  0.3152  0.0004  0.0311
17628W        W33812   0.088   6.557   3.073  0.1731  0.0185 -0.0044
17629W        W33813   8.299   5.394  13.149  0.1449  0.0054 -0.1081
17630W        W33814   3.595  15.268  11.664  0.0044  0.0849 -0.3651
17631W        W33815  12.141   0.804  11.879 -0.0570  0.2276 -0.1690
17632W        W33816   8.454  11.619   1.059 -0.2853 -0.1833 -0.1718
17633W        W33817  10.996  17.312   0.342 -0.0081 -0.3421 -0.1183
17634W        W33818  15.503   4.760   5.369 -0.0128  0.2525  0.0283
17635W        W33819   2.778   8.629   5.879  0.1102  0.0190 -0.1221
17636W        W33820  14.306  13.968  16.393 -0.0351 -0.0285  0.3151
17637W        W33821  14.633   5.030   2.339  0.1536 -0.0095 -0.0059
17638W        W33822  13.357   0.698  13.897  0.0714  0.2505 -0.3085
17639W        W33823   2.938   5.846   1.011 -0.0924  0.1248 -0.0394
17640W        W33824  14.989  16.464  13.287 -0.0716 -0.0332 -0.1298
17641W        W33825  17.858   2.696  14.084 -0.1755 -0.0099  0.4787
17642W        W33826  10.759   2.554  14.511 -0.1812 -0.0674  0.2323
17643W        W33827  16.663   7.987   4.938 -0.1710 -0.1574  0.0192
17644W        W33828   9.508   9.504  12.035  0.1991 -0.1833  0.1273
17645W        W33829  14.803   7.079   1.499 -0.1719 -0.1300 -0.0601
17646W        W33830   3.976   3.838   3.657  0.2871  0.3532  0.1306
17647W        W33831  14.010   6.140  12.778  0.0978  0.1348  0.0552
17648W        W33832   0.733   8.468  15.846  0.1819  0.1339  0.2145
17649W        W33833   5.115  15.213   0.522  0.0736  0.0062  0.0287
17650W        W33834   0.541   6.755   3.411  0.4755 -0.0178  0.0966
17651W        W33835  16.965   9.125   4.997 -0.2466  0.3538 -0.1797
17652W        W33836   4.974   8.894  12.277 -0.3681 -0.1105  0.1154
17653W        W33837   9.775   1.089   5.617 -0.5079  0.1157 -0.0820
17654W        W33838  15.694   9.275  15.129  0.0117  0.0809  0.2712
17655W        W33839   4.253   8.996   4.945  0.0009 -0.2863 -0.0835
17656W        W33840   4.856  12.912  14.571 -0.0008 -0.2466  0.1266
17657W        W33841   3.143  16.598   0.142 -0.0319 -0.2214 -0.1254
17658W        W33842  10.633   0.313   4.794 -0.1097 -0.2902  0.2104
17659W        W33843  13.259   9.641  15.084 -0.0285  0.3018  0.1844
17660W        W33844  15.355   5.027  12.410  0.2705 -0.0121 -0.2503
17661W        W33845  10.405   3.801  12.364  0.0355  0.3992 -0.0352
17662W        W33846  14.681  10.570  12.882 -0.2029  0.0384  0.0187
17663W        W33847   3.552  16.296  14.615 -0.0160  0.2868 -0.0270
17664W        W33848  10.912  17.782   0.926 -0.1136  0.2036  0.3537
17665W        W33849  17.373   5.312  14.385  0.0693 -0.0184 -0.2680
17666W        W33850   8.122   5.269   4.144 -0.1694 -0.0359  0.0159
17667W        W33851   6.204  13.479  14.864  0.0117  0.1340 -0.2272
17668W        W33852  15.680  11.876   0.356  0.2070  0.0114 -0.0382
17669W        W33853   9.040   9.410   2.378 -0.0404  0.1226  0.0848
17670W        W33854  14.992   2.979   4.808 -0.1063  0.1101  0.0767
17671W        W33855   1.391   2.296   0.446  0.2926  0.1383  0.1606
17672W        W33856   6.335   6.428  12.582 -0.0444 -0.1202  0.0741
17673W        W33857  12.970   6.478   3.153  0.4329 -0.3897  0.0234
17674W        W33858   7.567  10.562  15.818 -0.1446 -0.0402  0.2194
17675W        W33859   0.586   7.564  13.379 -0.0120 -0.0904 -0.2334
17676W        W33860  14.578   5.916  14.289 -0.1514  0.2827 -0.0651
17677W        W33861   5.242  12.515   2.724  0.0520  0.0506  0.0309
17678W        W33862   6.541  16.629   1.185  0.1347  0.1130  0.2260
17679W        W33863   8.305   9.332  12.628  0.1444 -0.1619  0.0987
17680W        W33864  14.227  13.118   1.731  0.1157  0.0018  0.1547
17681W        W33865   7.532  12.812  13.277  0.1371  0.0306  0.0529
17682W        W33866   2.816  15.122   1.369  0.1518 -0.1994 -0.1587
17683W        W33867   7.952  11.918   0.078 -0.1226  0.4942  0.3525
17684W        W33868   6.932   0.999  11.563 -0.0104  0.0398 -0.1252
17685W        W33869  16.403   3.511  12.256 -0.2050  0.1009  0.1195
17686W        W33870  17.491  16.590   4.222  0.1338 -0.2199 -0.2099
17687W        W33871   9.574   5.801  14.002  0.3324  0.0060 -0.1826
17688W        W33872   6.683   6.733  16.094  0.1070 -0.3009  0.0455
17689W        W33873   9.887  10.952   2.841  0.1148 -0.0335  0.2383
17690W        W33874  12.407   1.055   5.044 -0.0215 -0.0788 -0.2603
17691W        W33875  13.644   6.923  11.601  0.0235  0.0045  0.3033
17692W        W33876   0.806  11.491  13.426  0.0981  0.2429 -0.1810
17693W        W33877  12.527   0.356   4.157  0.2220 -0.2034 -0.3362
17694W        W33878  12.583   5.187  14.768 -0.1990 -0.1984  0.0741
17695W        W33879   4.072  12.394   1.987  0.0028 -0.0531 -0.5891
17696W        W33880  10.009   8.311   1.228 -0.0163  0.2863 -0.1685
17697W        W33881   1.646   7.938  14.350 -0.1151  0.0060  0.0173
17698W        W33882   3.883   2.586   2.627 -0.1940 -0.0243 -0.0783
17699W        W33883  13.045   7.635  15.525  0.0676 -0.1305 -0.1699
17700W        W33884  13.039  11.437   3.491 -0.0796 -0.0649 -0.1145
17701W        W33885  11.414   9.335   1.231 -0.0801  0.1407  0.0535
17702W        W33886   1.547   8.837  16.265  0.0010  0.0941  0.0049
17703W        W33887   3.833   9.914  12.783  0.3542 -0.0876 -0.2856
17704W        W33888   6.055  16.291   2.229  0.3239  0.0187 -0.0643
17705W        W33889  12.326   9.550  11.731 -0.1826  0.2579 -0.0405
17706W        W33890   7.876  14.191  14.607 -0.1591 -0.0692  0.2768
17707W        W33891  14.409   5.764  13.469 -0.2681 -0.3433  0.2254
17708W        W33892   4.100   8.946   2.712  0.0739 -0.0197  0.1101
17709W        W33893  16.796   9.228   2.350 -0.1383  0.1244  0.1097
17710W        W33894   7.291   4.753  12.400 -0.1913 -0.4148  0.2421
17711W        W33895   0.917  11.799  12.455 -0.2107 -0.0625 -0.1880
17712W        W33896   4.871   6.333  14.022  0.1528  0.0097 -0.0493
17713W        W33897  16.461  12.814   5.703 -0.1509  0.0077 -0.0649
17714W        W33898   9.484   7.490  13.591  0.2205  0.2236 -0.0509
17715W        W33899  12.696  14.617  12.231  0.1346  0.1283  0.0841
17716W        W33900  13.358   2.710   5.780 -0.0188 -0.3656  0.3489
17717W        W33901   9.772   3.089   5.513  0.1910  0.1354  0.2258
17718W        W33902   1.515  16.290  13.732 -0.0209 -0.0643  0.1869
17719W        W33903   7.949   4.501  16.479 -0.2338 -0.2375  0.0809
17720W        W33904  14.145   1.611  12.105  0.2649 -0.1087  0.1297
17721W        W33905  11.037   9.939   4.724  0.0348  0.0096 -0.1377
17722W        W33906   4.287  14.524  15.256  0.0675  0.2088 -0.2513
17723W        W33907  17.710   3.368  13.438 -0.1062  0.1176  0.0442
17724W        W33908   8.298  10.874   5.791  0.1113  0.0497 -0.3092
17725W        W33909   2.620  10.170   5.273  0.0674 -0.0558  0.1081
17726W        W33910  16.723   8.662  16.304  0.2791 -0.0486  0.2002
17727W        W33911   7.064   5.295  11.991 -0.0580  0.0674 -0.2893
17728W        W33912  14.530   1.917   0.424 -0.3125  0.0492  0.0805
17729W        W33913  16.302   3.963  13.570 -0.1775  0.3555 -0.1664
17730W        W33914  15.943  11.210  12.168  0.0018 -0.1786 -0.1546
17731W        W33915   2.640   8.887   3.535 -0.4007  0.1124  0.0331
17732W        W33916   0.372  12.857   1.791 -0.0132  0.1313  0.1369
17733W        W33917   5.807   1.423   3.034  0.0386  0.1250 -0.2485
17734W        W33918   8.603   3.668   4.642  0.0654  0.0326  0.1290
17735W        W33919   4.903  15.186   5.126  0.1972 -0.1606 -0.0448
17736W        W33920   7.110   2.339   5.146  0.0238 -0.0582  0.3250
17737W        W33921  16.078   8.829   1.165 -0.0624  0.3566 -0.2667
17738W        W33922   9.293  16.563   4.469  0.4170 -0.0889 -0.1078
17739W        W33923   3.428  12.948   4.098 -0.0306 -0.3846 -0.0014
17740W        W33924   2.595   1.538  16.464  0.0047  0.0016  0.1329
17741W        W33925   6.882  14.678   5.713  0.1236 -0.0196  0.0735
17742W        W33926  16.781   3.489   2.322 -0.1415  0.5840 -0.0804
17743W        W33927  16.997  13.697  12.726 -0.1028  0.0756 -0.0715
17744W        W33928   2.681  14.422  15.696 -0.2534 -0.0593  0.1349
17745W        W33929  15.014  11.440  11.860 -0.1427 -0.2676 -0.1714
17746W        W33930  15.376  12.608  11.837 -0.1169  0.1600  0.0965
17747W        W33931   8.302   0.164  12.692 -0.1742  0.0034  0.2355
17748W        W33932   6.398  13.208   2.041  0.1197  0.0704 -0.0632
17749W        W33933   1.763   6.115  14.587 -0.0516 -0.0743 -0.1638
17750W        W33934  17.590  10.687  15.842 -0.1913 -0.0466 -0.1480
17751W        W33935  10.883   6.543   3.749 -0.0336  0.0633 -0.0434
17752W        W33936   3.592  10.856  12.257  0.0973 -0.1540 -0.3210
17753W        W33937   8.616  15.536   4.168 -0.2701 -0.0188  0.0669
17754W        W33938   5.830   9.162   4.159 -0.0792  0.0599 -0.0697
17755W        W33939   6.357   4.663   0.605  0.1416  0.3060  0.0065
17756W        W33940   6.657   8.289   2.592  0.1238  0.1698  0.1020
17757W        W33941   2.578   8.926   0.940  0.1828  0.0694  0.0999
17758W        W33942  16.900   1.347  12.328 -0.1505 -0.1763 -0.1433
17759W        W33943  16.612  15.763   0.767 -0.0277 -0.2261  0.0070
17760W        W33944  15.404  14.815   2.721  0.1962  0.1267  0.1027
17761W        W33945   6.353  12.487   1.235 -0.0247  0.0176 -0.1896
17762W        W33946  17.287   4.720   5.057  0.0158  0.1301  0.0849
17763W        W33947   0.991   4.178   2.029 -0.0381  0.0342  0.0681
17764W        W33948   2.938   4.929  16.506 -0.0360  0.1240  0.1019
17765W        W33949   5.585  16.439   2.328  0.0908  0.0898  0.1569
17766W        W33950  13.565   2.717  12.095  0.2237  0.2505 -0.2066
17767W        W33951  15.292  12.198   0.259  0.4021  0.0479 -0.0010
17768W        W33952  15.361   5.878   3.247 -0.0117  0.3671  0.2351
17769W        W33953   7.971   7.966  14.317 -0.2376 -0.4682 -0.4098
17770W        W33954  11.826   5.774   0.078  0.1129  0.2402 -0.0709
17771W        W33955  10.142  15.056   3.796  0.2258  0.1764  0.2328
17772W        W33956   8.036  11.393   5.022  0.0795 -0.1183  0.2253
17773W        W33957  12.739  15.372  11.765  0.1149 -0.1655 -0.0283
17774W        W33958  17.123   3.457   2.651 -0.0536 -0.0368  0.3324
17775W        W33959   0.920   5.389   0.040 -0.0326  0.0896  0.2451
17776W        W33960   7.805   8.868   4.541  0.0866 -0.1955 -0.0181
17777W        W33961  13.982  10.501  11.654  0.2369 -0.1073  0.2181
17778W        W33962  11.959   6.820  13.136  0.0469  0.3027  0.0960
17779W        W33963  11.585   9.471   2.904 -0.3901 -0.0401 -0.1438
17780W        W33964  14.716   7.047   2.102 -0.0823  0.1827 -0.0470
17781W        W33965   3.590  10.912   0.018  0.0080 -0.0285  0.1754
17782W        W33966   2.642   2.266  12.510 -0.1229 -0.0821  0.0565
17783W        W33967   8.196   2.320   3.468 -0.0478  0.2094  0.1970
17784W        W33968   2.595   0.337   4.139  0.1477 -0.0140  0.4260
17785W        W33969   9.089  14.156  16.871 -0.1707 -0.2035  0.0133
17786W        W33970   2.726  14.360  14.654  0.0074 -0.2442  0.2778
17787W        W33971  11.873  12.519  13.707  0.0933  0.1255 -0.0005
17788W        W33972   0.182   2.111  12.919 -0.0897 -0.1294 -0.1135
17789W        W33973   7.859  15.274  13.140 -0.1045 -0.0776 -0.3185
17790W        W33974  15.907  11.072   0.626  0.1409  0.1014  0.1515
17791W        W33975   4.600   6.365   5.083 -0.2288 -0.0014 -0.1630
17792W        W33976  11.784   7.382   4.232 -0.1915  0.2202 -0.1091
17793W        W33977   8.839   3.409  12.533 -0.0232  0.0316 -0.3072
17794W        W33978  17.744   2.286   5.167 -0.0873 -0.0722 -0.2241
17795W        W33979   6.518  17.863   5.396  0.0309  0.0891 -0.1153
17796W        W33980  11.177   8.471  15.078  0.0632  0.1261 -0.0376
17797W        W33981  12.982   2.430  13.705 -0.1294 -0.0082 -0.2709
17798W        W33982  16.827   9.625   3.285  0.0087 -0.1569 -0.0386
17799W        W33983   5.928  14.275   4.653  0.0517 -0.1051  0.0977
17800W        W33984   6.191   9.746   3.724  0.1954  0.0222  0.0766
17801W        W33985   7.135  13.867  16.480  0.0647  0.3584  0.1377
17802W        W33986   8.752   2.776  13.626 -0.0521 -0.3143 -0.2546
17803W        W33987  15.416   1.933  16.298  0.2858  0.4926 -0.1664
17804W        W33988   3.610  16.257  10.418  0.1496 -0.1547 -0.1440
17805W        W33989  17.128  11.542   3.803  0.2654  0.1110  0.1775
17806W        W33990  12.792   3.353  15.147  0.3442 -0.2929 -0.1889
17807W        W33991   1.195   5.770  16.145  0.0151  0.1992 -0.0432
17808W        W33992   3.849  14.355  15.116 -0.0652  0.0291 -0.2189
17809W        W33993   5.503   2.677  14.986 -0.1738  0.0788 -0.3976
17810W        W33994   8.520  12.728  16.651  0.0976 -0.1612 -0.1482
17811W        W33995   9.884  14.631  13.263 -0.0833  0.0917 -0.1934
17812W        W33996   5.003   1.063  13.331 -0.0157  0.3608  0.1567
17813W        W33997  11.940   2.306   3.076  0.2157  0.3072 -0.0361
17814W        W33998   8.498   5.556   3.750 -0.1414 -0.0462 -0.0438
17815W        W33999   2.790  16.040   3.450  0.1516  0.3808 -0.1434
17816W        W34000  13.955   1.881  12.547 -0.2172 -0.1898 -0.0410
17817W        W34001   0.352  10.207   2.916  0.2502 -0.3297 -0.2279
17818W        W34002  11.802   7.306   0.631  0.1718 -0.2262  0.2628
17819W        W34003  12.368  14.846  11.751 -0.1251 -0.1764 -0.2079
17820W        W34004   8.330  15.812  11.468 -0.0440  0.2122  0.1649
17821W        W34005  17.230  17.643   5.386 -0.1975 -0.0739  0.2100
17822W        W34006   4.918  15.086  13.757 -0.1542  0.2107 -0.2207
17823W        W34007   2.266   0.277  12.625 -0.1002  0.1153  0.2129
17824W        W34008   9.742  14.295  16.417 -0.2365 -0.0613  0.0763
17825W        W34009   0.687  14.651   4.423  0.2853 -0.0063 -0.1889
17826W        W34010   8.687   3.031   1.989  0.2348 -0.1163  0.1566
17827W        W34011   4.226   2.054   0.726 -0.1051 -0.0891 -0.0943
17828W        W34012  15.968  10.557  16.753  0.0719  0.3231  0.2250
17829W        W34013   0.641   5.248   2.766  0.2749  0.0236  0.0107
17830W        W34014  10.563   2.481   3.663 -0.1792  0.1692 -0.2421
17831W        W34015   2.907   4.986  13.869  0.0449 -0.1015  0.1555
17832W        W34016  13.882  17.538  14.515  0.1159  0.2882 -0.1150
17833W        W34017   1.534   0.384   3.804 -0.0760  0.0490 -0.2110
17834W        W34018   1.353  14.640  12.099  0.2431 -0.2496  0.1387
17835W        W34019  10.019  11.991  12.381 -0.0391  0.0233 -0.1113
17836W        W34020   4.616   6.347  14.766  0.0258 -0.0598 -0.0440
17837W        W34021   1.566  15.905   5.384  0.1070 -0.0377  0.3713
17838W        W34022   6.303  15.561  11.283 -0.2840  0.1782  0.2201
17839W        W34023  11.178   7.393  14.819 -0.3104  0.1800  0.2725
17840W        W34024  10.501   2.532   4.674  0.0712 -0.1952 -0.2128
17841W        W34025   9.901   3.081  13.616  0.1071 -0.0199 -0.3435
17842W        W34026  13.084  12.095  14.613  0.1134 -0.3039  0.1259
17843W        W34027   9.221   9.017  15.963  0.0880  0.1868 -0.0871
17844W        W34028   0.363  11.535  13.748 -0.0259 -0.2115 -0.0212
17845W        W34029  10.479   5.336  12.765 -0.1766 -0.1105  0.2234
17846W        W34030  14.317   8.632   4.442 -0.4404  0.1090  0.6297
17847W        W34031   9.247  14.682  16.922  0.0711  0.2360  0.2340
17848W        W34032   4.215  16.157   1.838  0.1022 -0.0235  0.0744
17849W        W34033   7.056  13.420   2.528 -0.1660  0.0815  0.1705
17850W        W34034  12.910  16.316   3.125 -0.1770  0.2843  0.2799
17851W        W34035   6.880  11.361   3.128 -0.1701 -0.2259  0.0320
17852W        W34036  12.310  13.199   0.243  0.3037 -0.0549  0.2839
17853W        W34037   6.942  13.989  15.151  0.1248 -0.0953 -0.1640
17854W        W34038   6.660   8.182   1.681 -0.1728 -0.0264  0.4345
17855W        W34039   7.221  12.933   1.383 -0.1663 -0.2506  0.0876
17856W        W34040  12.629   6.465   2.156  0.0653 -0.1705 -0.1487
17857W        W34041  14.836  13.609   1.780 -0.0172 -0.1336 -0.0483
17858W        W34042   4.759  15.894  11.216 -0.0912  0.1178  0.1846
17859W        W34043   1.544  17.721   1.714  0.2804  0.1427  0.1508
17860W        W34044   1.358  17.875   3.497 -0.0990  0.1751 -0.0706
17861W        W34045   5.126  14.425  14.523  0.0818  0.1859  0.1176
17862W        W34046   3.402  17.176  16.548 -0.1440  0.0737 -0.0705
17863W        W34047  15.034  11.245   1.911 -0.0239 -0.1534  0.1487
17864W        W34048   7.781  14.492   2.606 -0.0927  0.0344  0.0637
17865W        W34049   6.268  15.389  12.233 -0.0649  0.1855  0.1661
17866W        W34050  10.223   3.008   5.307  0.1906 -0.0097 -0.0420
17867W        W34051   7.916  11.755   3.816 -0.1521 -0.1011  0.1823
17868W        W34052   9.756   1.930  13.394 -0.2104 -0.0084 -0.0201
17869W        W34053   4.149   4.635   4.135 -0.0656  0.1135  0.1431
17870W        W34054   6.188   0.192   1.646  0.1416 -0.1972  0.1350
17871W        W34055  16.250  14.068   1.123  0.1462  0.0446  0.0511
17872W        W34056   4.420  15.130  16.052  0.2575  0.1093 -0.0963
17873W        W34057   5.505  10.518  13.074  0.2717 -0.3471 -0.0934
17874W        W34058  11.236   8.277   5.568 -0.0086  0.1871  0.2351
17875W        W34059   4.915  12.113   0.780  0.0525  0.0314 -0.3334
17876W        W34060  14.294   3.777  11.668 -0.0864  0.0844  0.2540
17877W        W34061   8.799   4.321  13.278 -0.0168  0.1136 -0.2210
17878W        W34062  15.732   8.958  13.166 -0.3242  0.0314 -0.0143
17879W        W34063   8.740   3.411  14.818  0.2786 -0.2348 -0.1200
17880W        W34064  11.704   6.169   1.154  0.3602 -0.1565  0.2374
17881W        W34065   3.631  17.180   2.442  0.2416 -0.0274 -0.1421
17882W        W34066  12.304  10.896  11.951 -0.1861 -0.2236 -0.0995
17883W        W34067  12.293  16.188   5.808  0.1907  0.2089 -0.0584
17884W        W34068   0.586  15.218  11.773 -0.3658 -0.1102 -0.2226
17885W        W34069   6.809   3.129  14.499  0.0033 -0.3229  0.3457
17886W        W34070   0.015   2.926  16.344  0.0314 -0.1117  0.1499
17887W        W34071  13.318  13.268   1.877  0.0219 -0.2024  0.2256
17888W        W34072   3.970  16.408   3.945 -0.1854 -0.1989 -0.2620
17889W        W34073   4.620   1.806   4.067 -0.0850 -0.1632 -0.3756
17890W        W34074   8.321   9.589   5.325 -0.2628 -0.0592 -0.1712
17891W        W34075   4.578  15.067   4.806 -0.2421 -0.0620  0.0594
17892W        W34076  15.174  12.060   0.964 -0.1465 -0.1693 -0.1258
17893W        W34077   6.437   7.428  12.593  0.4956  0.1289  0.0971
17894W        W34078  16.760  10.502   2.243  0.1464 -0.3022  0.3963
17895W        W34079  13.817  15.311  14.672  0.0311  0.2717  0.0440
17896W        W34080   8.777  17.075  16.019 -0.1678  0.3746 -0.1179
17897W        W34081   5.961   4.418  15.971 -0.0749  0.0351  0.0387
17898W        W34082   0.338   3.529  14.549 -0.0493  0.3397  0.0942
17899W        W34083  12.898   7.435  15.130  0.1061 -0.1206  0.2098
17900W        W34084  15.779   2.383   5.758  0.0707  0.1654  0.1267
17901W        W34085  10.219  15.521  15.605 -0.1308  0.0835  0.1472
17902W        W34086  12.193  10.525   4.147 -0.2149 -0.2032 -0.1002
17903W        W34087  17.241  13.806  15.508  0.0334  0.1743 -0.2197
17904W        W34088   7.816   2.013   4.812  0.0812  0.1375 -0.0815
17905W        W34089  13.534   0.196  13.811 -0.0852  0.0780  0.1596
17906W        W34090   2.615  12.677  16.742  0.0792 -0.1007 -0.2772
17907W        W34091   8.804  15.690  11.570  0.0148  0.2074 -0.0466
17908W        W34092  16.212   1.700   0.285 -0.1748  0.0951  0.2086
17909W        W34093  16.272   5.780   2.984  0.2538 -0.0539  0.0378
17910W        W34094  12.745   8.665  11.820 -0.1254 -0.1270  0.0069
17911W        W34095   4.693   5.355   4.139  0.1102 -0.1678  0.2405
17912W        W34096   9.340   9.082   2.147  0.0910  0.0422 -0.0573
17913W        W34097   6.645   4.034   0.170 -0.3272 -0.2491 -0.2464
17914W        W34098  15.273  17.864  15.614  0.0594 -0.2704  0.1647
17915W        W34099   4.046   0.348   1.348  0.0537  0.2916 -0.1172
17916W        W34100  13.128   0.864   1.161 -0.0677  0.1505 -0.0225
17917W        W34101   3.988   6.994   3.570 -0.0328 -0.1048  0.1003
17918W        W34102   2.086  11.043   0.096 -0.0587  0.1829  0.1932
17919W        W34103   8.541   2.065   3.109  0.1724  0.0212 -0.2610
17920W        W34104  15.126  13.609   3.343 -0.0831  0.0059 -0.2159
17921W        W34105   9.379  10.482  14.101 -0.1051 -0.3942  0.0341
17922W        W34106   4.052   1.066  15.471  0.3444  0.0293  0.0562
17923W        W34107   9.131   5.261   0.367 -0.0896 -0.0365 -0.3135
17924W        W34108  15.326   0.900  14.393  0.1437 -0.1865  0.1692
17925W        W34109   4.961   1.531   2.532  0.0234 -0.2320  0.2415
17926W        W34110   5.264   5.846  15.921 -0.1968 -0.3657  0.0404
17927W        W34111   1.813   7.200   0.707 -0.0785  0.3808 -0.0216
17928W        W34112   1.111   3.509   0.837  0.0282  0.1768  0.0537
17929W        W34113   6.746   3.590   3.639  0.2465 -0.4618  0.1180
17930W        W34114   3.157  11.840   0.354  0.1496 -0.2671 -0.1039
17931W        W34115   8.929   1.717   3.355 -0.0730  0.1489 -0.0222
17932W        W34116   9.823  15.422   5.398 -0.0501 -0.0102  0.3449
17933W        W34117   6.586   6.703  14.224  0.0735 -0.0882 -0.0472
17934W        W34118   5.846  14.441  12.117 -0.3210  0.0325  0.0821
17935W        W34119  15.159  16.926  12.988  0.1268  0.0139  0.1004
17936W        W34120   0.366  13.191   4.131 -0.3596  0.1773  0.0378
17937W        W34121  14.149  11.592  14.322  0.1070  0.3414 -0.1119
17938W        W34122   3.014  10.878  16.791 -0.0738  0.0898  0.4776
17939W        W34123  13.718   6.371   3.473  0.0508 -0.2671 -0.0710
17940W        W34124   9.170  16.967   0.331  0.0228  0.1213 -0.1281
17941W        W34125   4.517   2.026   3.646  0.0687  0.0527 -0.0540
17942W        W34126   3.458   7.839  14.136  0.3788 -0.2384 -0.0175
17943W        W34127   7.173  11.186  13.590 -0.2017  0.2200  0.0520
17944W        W34128  14.386   5.714   4.834 -0.1842  0.2388 -0.3356
17945W        W34129   5.263  11.235  14.238  0.3253  0.1401  0.1863
17946W        W34130   1.749   1.947  16.499  0.0899  0.1445 -0.3058
17947W        W34131  10.016  11.407   3.187  0.3027 -0.0530  0.0128
17948W        W34132   0.236  13.656   2.255  0.2981  0.0495 -0.1177
17949W        W34133   3.872  16.507   1.379 -0.1458 -0.0407 -0.1241
17950W        W34134  11.000   5.729  14.336  0.3056 -0.0498 -0.0893
17951W        W34135  15.920   4.906  15.064 -0.0336  0.0294 -0.1256
17952W        W34136   9.339   1.609  13.217  0.1089 -0.0026  0.0913
17953W        W34137  17.678  16.601   3.730 -0.1946  0.0790 -0.0494
17954W        W34138   2.030   8.306   6.098  0.0254 -0.3202  0.0019
17955W        W34139   6.072  15.131   2.143 -0.2249  0.3062  0.0739
17956W        W34140  15.321   5.672   6.191  0.0103  0.0761  0.1223
17957W        W34141  10.785  14.388  14.899 -0.1443  0.1878 -0.2239
17958W        W34142   5.593   8.347   3.840  0.2835 -0.2559  0.0448
17959W        W34143  14.763  15.205  16.012 -0.1765  0.0410  0.0679
17960W        W34144  13.939   0.004  13.527 -0.2419  0.0184 -0.0899
17961W        W34145   9.354   1.678   1.848  0.0096  0.1270  0.0205
17962W        W34146  11.756  10.617   0.904  0.0737 -0.0225  0.1852
17963W        W34147  12.204  13.183  14.491 -0.1678 -0.1185 -0.1741
17964W        W34148   0.997   3.216   0.375 -0.0021 -0.0998 -0.4001
17965W        W34149  13.998  17.248  14.064  0.0045  0.0406  0.1043
17966W        W34150   3.933  15.418  12.823 -0.0772 -0.1669  0.0629
17967W        W34151  17.342  14.413   3.531  0.1071  0.4824 -0.0383
17968W        W34152   2.907   2.519   6.079  0.1570 -0.1587  0.1967
17969W        W34153   4.812   1.777   5.528 -0.0876  0.1846 -0.0908
17970W        W34154  12.887   9.378  16.408  0.2786  0.0749  0.0283
17971W        W34155   8.849   4.651  16.354 -0.4222  0.0460  0.1516
17972W        W34156   8.211   1.966  16.862  0.0239 -0.0715  0.2633
17973W        W34157  13.594   2.185   4.063  0.0185  0.1641  0.2465
17974W        W34158  15.379  16.929  13.463  0.0153 -0.4118 -0.0388
17975W        W34159  10.505   6.293   5.110  0.0129  0.1047 -0.0150
17976W        W34160   8.130   6.159  15.432 -0.0170 -0.0000  0.0723
17977W        W34161   5.314  11.958  12.649  0.0386 -0.0273  0.1234
17978W        W34162   8.449  13.590  12.036  0.1935 -0.3816 -0.0212
17979W        W34163  11.849   1.338  15.197  0.0449  0.0482  0.2126
17980W        W34164  10.807   1.937   0.221 -0.0194 -0.1406 -0.1367
17981W        W34165   7.790   1.238  16.484 -0.1131  0.2310 -0.1391
17982W        W34166  13.870  11.459  11.790  0.0145  0.0808 -0.1436
17983W        W34167  16.249  14.108   4.800 -0.0044  0.2567  0.0219
17984W        W34168  17.687  10.263   3.742  0.1154 -0.1703 -0.0468
17985W        W34169   6.189  10.463  16.886 -0.4883  0.4520  0.0720
17986W        W34170   3.377  14.828  16.796  0.1586 -0.0022 -0.0404
17987W        W34171   4.770   1.155  16.010  0.1760  0.1646 -0.1173
17988W        W34172   6.093   8.843  15.051  0.1795  0.3418  0.2646
17989W        W34173   0.391  10.472   0.356  0.1975 -0.0670 -0.2903
17990W        W34174  11.616  14.341   2.914  0.0261  0.0283  0.3864
17991W        W34175   5.043   5.824   3.873 -0.3677  0.2912 -0.1124
17992W        W34176   5.817   0.981  15.509  0.0509  0.3173 -0.0962
17993W        W34177   1.986  10.762  13.232 -0.3440  0.2647 -0.0419
17994W        W34178   2.818  16.310   0.853 -0.0613  0.1375  0.3842
17995W        W34179  11.263  14.657   6.552  0.4084  0.0113  0.1872
17996W        W34180  14.315   6.538  12.993  0.0045 -0.1743 -0.1941
17997W        W34181  12.282  15.781  15.422 -0.3154 -0.2073 -0.0756
17998W        W34182   4.526  14.824  14.446  0.1997  0.0948 -0.2050
17999W        W34183   8.132  12.661  14.903 -0.1518  0.1834 -0.3291
18000W        W34184   3.018   5.987  12.790  0.1400  0.0981  0.1763
18001W        W34185   7.228   2.717  15.656 -0.1264  0.5202 -0.0379
18002W        W34186  13.040  13.897  15.149 -0.0917 -0.0937  0.2675
18003W        W34187  13.280  16.316  16.354  0.2485 -0.0399  0.2230
18004W        W34188  10.114   0.076   2.801 -0.1342 -0.0739  0.0633
18005W        W34189   1.005   9.924   5.028  0.1681  0.2651 -0.0248
18006W        W34190   0.669   0.515   3.926  0.1866  0.2676 -0.0333
18007W        W34191  17.332   7.348   4.524  0.2460 -0.1735 -0.0338
18008W        W34192   0.647   1.824  13.113  0.0208 -0.0141 -0.3358
18009W        W34193  14.888  16.142  16.749 -0.0691 -0.2075 -0.0373
18010W        W34194  11.399  15.887   0.486 -0.0128 -0.1255  0.0659
18011W        W34195   2.196  14.759   2.982 -0.3099 -0.1488  0.1189
18012W        W34196   9.779  14.763  16.589 -0.0009 -0.1038  0.0441
18013W        W34197  13.138   2.624   5.313  0.2240  0.1537 -0.2429
18014W        W34198  16.239  10.815  12.236  0.1321 -0.1023  0.0520
18015W        W34199   5.499  15.149   0.943 -0.1654  0.0611  0.1264
18016W        W34200  11.037  10.503   1.488 -0.0100 -0.0903 -0.1615
18017W        W34201   9.887   6.743  11.302  0.1819 -0.1185 -0.1122
18018W        W34202   9.841   8.901  14.329 -0.1829 -0.2514  0.3390
18019W        W34203  14.601  16.984   2.999  0.0043 -0.1041 -0.1893
18020W        W34204   2.576  13.060  12.089  0.1085  0.0329  0.1124
18021W        W34205   0.344   9.839  12.063  0.3111  0.0536  0.1346
18022W        W34206   1.013  13.322   1.995 -0.1324  0.0956  0.1746
18023W        W34207  14.786   2.306   0.189  0.1491  0.1486  0.0347
18024W        W34208   3.768  11.996  16.235  0.2122  0.1994 -0.2377
18025W        W34209   1.195   3.848  12.657  0.0338  0.1831  0.0660
18026W        W34210   4.183  17.579   4.254 -0.3563  0.1094 -0.2219
18027W        W34211  12.471   2.786   2.064 -0.1276 -0.0127  0.2763
18028W        W34212  17.277  16.189   1.772  0.2310 -0.0780 -0.1794
18029W        W34213  12.834  11.929   1.596 -0.0295  0.3972  0.0551
18030W        W34214  16.831  13.729  14.079  0.0244  0.0582 -0.0664
18031W        W34215  14.734   0.059  15.775  0.4213  0.1849  0.0510
18032W        W34216  14.410   7.049   4.258  0.1115 -0.0430 -0.4494
18033W        W34217   4.460  13.362  12.092 -0.0349  0.2338  0.1448
18034W        W34218  14.807  15.387  12.532 -0.0338 -0.0603  0.2369
18035W        W34219   0.917  12.248  15.081  0.0720  0.2682  0.0945
18036W        W34220   8.382   8.195  15.648 -0.0589 -0.0191  0.1681
18037W        W34221   9.330   7.386  12.046  0.0592 -0.0642  0.2457
18038W        W34222  10.633  15.490  15.311 -0.1991  0.0757  0.3076
18039W        W34223   9.629   6.228   3.013  0.2079  0.1528 -0.2094
18040W        W34224  13.557  10.383  11.987 -0.0301 -0.5241 -0.0419
18041W        W34225  12.792   4.064  12.282  0.1431  0.2613  0.0281
18042W        W34226   7.664   5.651  12.041 -0.0053  0.0374  0.1116
18043W        W34227  12.213   6.489   3.568  0.0983 -0.0846  0.0976
18044W        W34228  16.726  11.658  16.185  0.2495 -0.0788 -0.1281
18045W        W34229   6.291  12.882   1.640  0.0842  0.1325  0.5119
18046W        W34230   5.254   2.237   1.867 -0.2866  0.1534 -0.0431
18047W        W34231   6.306   1.696  15.407 -0.2500  0.1407 -0.3507
18048W        W34232  15.568  11.177   2.898 -0.0819  0.2224 -0.0916
18049W        W34233  17.747  11.283  15.499  0.0785 -0.2094 -0.1880
18050W        W34234  16.315   4.816   2.054  0.3067  0.1498  0.0259
18051W        W34235   4.506   5.405   1.455 -0.0149 -0.4626 -0.2633
18052W        W34236  10.218   0.206  11.687 -0.0804  0.3379 -0.3628
18053W        W34237  11.362  11.335  11.612  0.2901  0.0202  0.0400
18054W        W34238   6.643   0.333  16.642 -0.0381 -0.0987  0.3446
18055W        W34239   2.778   5.504  12.533 -0.2163 -0.1063  0.1321
18056W        W34240   0.888   9.125   6.404 -0.2098  0.1241  0.0818
18057W        W34241  12.519   8.761  15.164  0.2873 -0.2298  0.1640
18058W        W34242   1.666  13.843  12.061 -0.0760 -0.1437  0.1247
18059W        W34243  15.145   9.702   2.384  0.2147  0.0471 -0.0252
18060W        W34244   6.503   1.546  15.909  0.0196 -0.0292 -0.0055
18061W        W34245   7.749  12.126   4.123 -0.1469  0.2542 -0.0770
18062W        W34246   1.107   2.076  15.837 -0.0541 -0.2729 -0.0721
18063W        W34247  15.732   8.444   2.008  0.2553  0.2050 -0.0587
18064W        W34248   4.804  14.782  16.853 -0.2920 -0.1707 -0.0436
18065W        W34249  10.649  14.996  15.525  0.0309 -0.5201  0.3933
18066W        W34250   5.063  10.548   3.306 -0.0303 -0.1117 -0.1820
18067W        W34251   0.855   5.795   1.451 -0.0992 -0.0813  0.0180
18068W        W34252  14.035   3.819  15.051 -0.2406 -0.1941 -0.0842
18069W        W34253  14.892   9.171   2.839 -0.0725  0.0343 -0.0318
18070W        W34254   2.918   9.041  13.721 -0.2722  0.1866  0.1918
18071W        W34255  14.131  13.295   3.418  0.0281 -0.0824 -0.1104
18072W        W34256   8.662  13.365  15.912  0.0989  0.0657 -0.1462
18073W        W34257   4.587   6.669  15.598 -0.0033  0.2329  0.1123
18074W        W34258  13.547   8.121  11.986  0.1693  0.1478  0.2353
18075W        W34259   3.499  13.853   1.401  0.0047 -0.3046  0.1248
18076W        W34260   2.480  14.363  12.677  0.5339  0.1698 -0.1964
18077W        W34261   7.656   4.151   4.584  0.0817 -0.0026 -0.1835
18078W        W34262  13.458  17.066   0.001  0.1390 -0.1232 -0.0362
18079W        W34263   6.393  17.141   5.132  0.1626 -0.1680 -0.0723
18080W        W34264   0.413  10.235  15.762 -0.0526  0.2883 -0.1919
18081W        W34265   4.380   8.667  12.994 -0.0842  0.2279  0.2517
18082W        W34266  13.454   7.523   2.231 -0.2733  0.0065 -0.1668
18083W        W34267   1.706   1.545   2.030  0.5288 -0.0687  0.2261
18084W        W34268   0.365  10.621   3.180  0.1013  0.2183 -0.0856
18085W        W34269   9.656   4.347  12.253  0.0546 -0.2214  0.0487
18086W        W34270  15.819  13.292  12.058  0.1335 -0.0349  0.0486
18087W        W34271  13.927   3.965  12.093 -0.2371 -0.2503  0.3228
18088W        W34272  11.071   4.358   2.111 -0.0754 -0.0053  0.0345
18089W        W34273   6.132  17.177   2.514 -0.0252  0.0387 -0.3104
18090W        W34274  15.046   3.277  13.960 -0.0702 -0.0297 -0.1538
18091W        W34275   2.999  11.349   3.642  0.0058  0.1876  0.0028
18092W        W34276   1.701  12.048  13.337 -0.3643  0.2385  0.0853
18093W        W34277  13.491   3.374   0.924  0.1464 -0.1313  0.2423
18094W        W34278  17.040   0.919   4.720 -0.1351 -0.1218  0.2339
18095W        W34279   0.533   5.790  14.236  0.0175  0.2234  0.0555
18096W        W34280   4.347   4.784  12.005  0.1507 -0.0249 -0.0773
18097W        W34281  11.685  13.899   4.437 -0.0837  0.2364  0.0228
18098W        W34282   0.989   6.809   1.380  0.0783  0.1476  0.1368
18099W        W34283   7.972   2.478   4.438  0.2090  0.0910 -0.4460
18100W        W34284   4.068  17.399   4.711 -0.0717  0.0630 -0.0911
18101W        W34285  10.395   3.836   3.296 -0.0278 -0.1910 -0.0347
18102W        W34286  12.243   4.914  13.001 -0.0140  0.0139  0.3232
18103W        W34287   0.738   2.309  13.936 -0.0173  0.2605  0.4113
18104W        W34288  17.380   7.399   5.061 -0.1182  0.0215  0.0589
18105W        W34289  13.749   4.162   5.078 -0.0599 -0.0421 -0.0031
18106W        W34290  12.708   2.455   3.483  0.2896 -0.0581 -0.3103
18107W        W34291  10.949   7.284   0.260  0.1748 -0.0971 -0.1269
18108W        W34292   6.359   2.849  15.800 -0.0635  0.0067  0.0412
18109W        W34293   0.567  13.919   2.557  0.0240 -0.2031  0.0338
18110W        W34294   2.166   8.026  15.036  0.1258 -0.1634  0.2023
18111W        W34295   7.732  10.148  15.195  0.1067 -0.1049 -0.0276
18112W        W34296  14.422   5.225   6.306 -0.1078 -0.2178  0.0453
18113W        W34297   6.661  11.351  13.407 -0.3939  0.0036  0.1151
18114W        W34298   5.453   6.876   4.651  0.0279 -0.0548  0.1957
18115W        W34299  10.361   2.433   4.176  0.0767 -0.2529  0.2960
18116W        W34300   8.422   7.929   2.912  0.3106 -0.1521  0.1201
18117W        W34301   6.216   0.937  14.066  0.1461 -0.0415 -0.1253
18118W        W34302   2.325  13.888  12.522  0.2605  0.3011 -0.2656
18119W        W34303   4.084   8.768  12.360 -0.2464 -0.1547  0.0282
18120W        W34304   6.459   1.642  12.877  0.1198  0.4779 -0.1189
18121W        W34305   6.314  11.410   4.037 -0.0416  0.0966 -0.1317
18122W        W34306   2.197   6.294  14.730  0.1543  0.0479 -0.0313
18123W        W34307   1.288  12.508   0.806  0.1179  0.4129  0.3454
18124W        W34308   9.681   7.852  15.742 -0.2416  0.0984  0.1361
18125W        W34309   2.846   6.441   2.019  0.1352  0.1317  0.0587
18126W        W34310   2.714   7.832   5.292 -0.0687 -0.0295 -0.2376
18127W        W34311  10.703   5.117   4.139  0.2631  0.1586 -0.0277
18128W        W34312   3.904   6.921   1.246 -0.2321  0.1970  0.1018
18129W        W34313  12.681   1.514   5.768  0.0514 -0.0258 -0.0835
18130W        W34314   8.747  10.364   1.224  0.2321  0.1058  0.1127
18131W        W34315   5.458   0.077  14.371  0.1834  0.2301 -0.4861
18132W        W34316   0.867   9.783   2.155 -0.4199 -0.0374 -0.2200
18133W        W34317   1.567   3.858  13.129 -0.0032 -0.2566  0.0012
18134W        W34318   2.467  13.320   4.398  0.3748 -0.2323 -0.2114
18135W        W34319   0.324   3.605  15.079  0.0291  0.0461 -0.3387
18136W        W34320   8.883  11.134   0.652 -0.0197  0.1855 -0.0118
18137W        W34321  10.109  12.339  11.835 -0.1604  0.2080 -0.1133
18138W        W34322   4.259  13.362   3.185 -0.2626  0.1292 -0.1341
18139W        W34323  14.399   5.295   3.326 -0.0574 -0.0412 -0.2288
18140W        W34324  16.032   7.327  12.702  0.0780 -0.1102 -0.0907
18141W        W34325   8.681  10.759   1.553  0.1442  0.1118  0.0533
18142W        W34326   4.083   1.369   2.840  0.0018 -0.1384 -0.0657
18143W        W34327   2.086   4.653   5.801  0.0327  0.2002  0.1547
18144W        W34328  10.502   7.260   4.788  0.1775 -0.1733  0.0983
18145W        W34329   4.480  14.121  13.332  0.2543  0.2044 -0.1464
18146W        W34330   8.940  10.342  13.015 -0.3126  0.1534  0.0827
18147W        W34331   5.221   0.052   5.226 -0.0555  0.1096  0.0131
18148W        W34332   3.393   9.498   3.670 -0.1370  0.0470  0.1123
18149W        W34333   7.453   0.728  15.431 -0.3361 -0.1129 -0.3622
18150W        W34334  13.885   7.593  16.485 -0.0213  0.0040 -0.2426
18151W        W34335  15.695  10.068   1.486  0.1792  0.0868  0.1321
18152W        W34336  15.873   6.279  14.136  0.1858  0.0494 -0.1426
18153W        W34337   9.183   8.973  12.550  0.2281  0.1999 -0.0962
18154W        W34338   9.251   4.649   4.309  0.2799  0.0274  0.0838
18155W        W34339   5.657   3.357   2.895 -0.1532  0.0813 -0.0105
18156W        W34340   6.151  15.105   3.080  0.0599 -0.0453  0.0512
18157W        W34341  11.989   2.604   3.890  0.1465 -0.1023 -0.0663
18158W        W34342  15.610   0.177   1.383  0.2686 -0.2902 -0.0782
18159W        W34343   6.181   1.913  15.832 -0.0353 -0.0836 -0.2334
18160W        W34344   4.918   4.314   1.734 -0.0880  0.0393 -0.0775
18161W        W34345   1.381   7.474  15.037 -0.0333 -0.0817 -0.3263
18162W        W34346   9.554   5.396  15.725  0.0588  0.1216  0.0545
18163W        W34347  15.514  12.343  15.369 -0.0527 -0.1050  0.1974
18164W        W34348  16.109   8.096  12.417 -0.0659  0.0430 -0.1153
18165W        W34349  14.420   8.772  13.340 -0.5160 -0.0156  0.0094
18166W        W34350   8.494  10.991  12.451  0.2056 -0.3151  0.0360
18167W        W34351   5.369  11.527   3.557 -0.0232  0.1400 -0.1830
18168W        W34352  16.011  15.436  16.865 -0.0059  0.0651  0.0942
18169W        W34353   4.894  15.445  13.308 -0.2083 -0.0450 -0.2053
18170W        W34354   6.136  13.224   4.409 -0.0813 -0.3623  0.0324
18171W        W34355   5.769   4.027   1.242  0.1870  0.1159 -0.0681
18172W        W34356   0.944  14.782   5.439  0.0664 -0.0638  0.1898
18173W        W34357  13.752  15.814  13.395  0.1835  0.0548  0.1161
18174W        W34358   5.349  12.944  10.132 -0.1215 -0.0656 -0.0802
18175W        W34359   0.519  17.072  13.041  0.1588  0.2016 -0.1060
18176W        W34360   5.487  12.561  13.249  0.5053  0.0865 -0.0386
18177W        W34361   6.695   1.580   1.019 -0.0563 -0.0880  0.1149
18178W        W34362  16.657   7.500  13.792  0.2281  0.1195 -0.3088
18179W        W34363  12.950  15.111  13.423 -0.0382  0.1025 -0.0597
18180W        W34364   0.065   9.155   0.827 -0.0064  0.0909 -0.0288
18181W        W34365   8.052  14.871  11.148 -0.1273  0.0358  0.0573
18182W        W34366  11.129   1.236  13.478 -0.0266  0.0046  0.1222
18183W        W34367   8.659  11.576   4.089  0.3458 -0.1218  0.0029
18184W        W34368   0.081   3.789   3.960  0.2097  0.1408  0.2926
18185W        W34369   0.241  11.523  15.944  0.1129 -0.2534  0.0525
18186W        W34370   1.465  10.122  14.886  0.2860 -0.0577 -0.1030
18187W        W34371   1.468   3.165   0.611 -0.1593 -0.1412 -0.1072
18188W        W34372   2.556  13.445   0.576 -0.0128  0.0338  0.3670
18189W        W34373   3.276   5.523   0.834  0.3327 -0.3159  0.0086
18190W        W34374   2.553   1.248   3.011  0.3465 -0.0372  0.0955
18191W        W34375   0.286  11.847   5.698  0.0881 -0.0116  0.0677
18192W        W34376  15.611   2.663   3.623  0.1356 -0.1287 -0.0626
18193W        W34377  13.167   2.873  13.907 -0.0165  0.0759 -0.0129
18194W        W34378  15.849   9.903   5.711  0.1692 -0.0906 -0.1718
18195W        W34379   9.554  11.924  13.946 -0.5720  0.0072  0.0866
18196W        W34380   3.771   3.711   0.055  0.3098 -0.0110  0.3107
18197W        W34381  11.787  16.237  15.301 -0.2634 -0.0114  0.2255
18198W        W34382  14.235   5.054   5.893  0.6470  0.1065  0.2575
18199W        W34383   9.322   0.796   5.488 -0.0652  0.0149  0.0531
18200W        W34384  10.934   9.161  12.152  0.0375 -0.1245  0.1084
18201W        W34385  16.541   6.121  16.248  0.0516 -0.2294  0.0742
18202W        W34386   3.564   8.377  16.520 -0.1555  0.2854  0.2149
18203W        W34387   2.461   9.663   3.100  0.3391 -0.0250 -0.1050
18204W        W34388  15.009   6.228   4.180 -0.0210  0.1002  0.2557
18205W        W34389  10.585  10.965   1.750  0.1105 -0.1973  0.0296
18206W        W34390  10.102  15.598   0.844 -0.1485  0.1002  0.1496
18207W        W34391  14.129   3.313  15.201  0.0239 -0.0057  0.1102
18208W        W34392   6.669  14.285   4.219  0.0445  0.0303 -0.1588
18209W        W34393   3.167   1.323   3.104  0.1261 -0.0387  0.2295
18210W        W34394   9.152  16.356  14.579  0.0180 -0.0295 -0.2423
18211W        W34395  16.395  17.620   4.473  0.0150 -0.1736 -0.2077
18212W        W34396   6.143  15.237  16.588  0.0149 -0.1410  0.0208
18213W        W34397   5.216   0.912  16.163  0.0223  0.2751  0.2258
18214W        W34398   8.570  17.099   0.287  0.3058  0.0772  0.0167
18215W        W34399  11.773   1.398  11.674  0.4138 -0.1581  0.0852
18216W        W34400  12.256  13.898  13.416  0.3680 -0.1165  0.1603
18217W        W34401   4.378   3.242   3.251 -0.0109  0.1010  0.0511
18218W        W34402   2.391   4.301  12.688  0.5071  0.0222  0.0360
18219W        W34403   9.043   5.682   3.426  0.0269 -0.0643  0.0422
18220W        W34404  14.545   6.368   4.040  0.3188  0.1169 -0.4634
18221W        W34405   8.333  13.110   2.855 -0.1407  0.0034 -0.0248
18222W        W34406   5.949  14.938   0.069 -0.1169  0.0305  0.5857
18223W        W34407   1.006   4.819   1.228  0.3787  0.1269  0.3100
18224W        W34408   1.518  10.375   1.191  0.0291 -0.2364 -0.2143
18225W        W34409  16.384  10.876  14.621  0.0035 -0.0839  0.1967
18226W        W34410   3.603   5.913  14.441 -0.1324  0.1329 -0.1045
18227W        W34411   6.100  14.204  16.417  0.1239  0.2328 -0.1320
18228W        W34412  10.497  17.651   2.961 -0.1653  0.3560  0.0855
18229W        W34413   1.876   0.534   2.864  0.1851 -0.1458 -0.1056
18230W        W34414  10.778   4.762   0.378  0.1948 -0.1461  0.3531
18231W        W34415   0.301   6.031   4.877 -0.2145 -0.1986  0.2227
18232W        W34416   9.652   7.497  14.594  0.0060 -0.0240 -0.1735
18233W        W34417  10.619   6.783   0.569  0.1278  0.0962  0.0431
18234W        W34418  16.478   7.870  16.933 -0.0723  0.0419 -0.2466
18235W        W34419   9.900   5.108   3.743  0.0815 -0.1101  0.1599
18236W        W34420   9.487   7.128   3.614 -0.2265 -0.0123 -0.5178
18237W        W34421  12.664   0.093  11.683  0.0536 -0.0037 -0.0583
18238W        W34422   9.790   0.882   2.119 -0.0033  0.1025  0.2598
18239W        W34423   7.454  12.105   0.092 -0.1386  0.1568  0.0109
18240W        W34424  10.415  12.473   0.218 -0.4432 -0.0841 -0.2107
18241W        W34425  17.187   7.377   3.404  0.1105  0.1253  0.4278
18242W        W34426  12.372   7.065   3.451 -0.1586  0.0310 -0.3633
18243W        W34427  10.032  14.637  16.128 -0.5055 -0.0540 -0.2845
18244W        W34428   8.986   1.357  15.840 -0.3053  0.1977  0.1292
18245W        W34429  14.271   1.428   4.493 -0.1122  0.1653  0.0534
18246W        W34430  14.369  14.563   0.833  0.1674  0.3046  0.0464
18247W        W34431   1.057  14.107   2.771  0.1221 -0.1339 -0.0319
18248W        W34432  17.086   9.030  13.786 -0.0070 -0.2601  0.0663
18249W        W34433   9.404  14.386   4.490  0.0205 -0.1144 -0.0380
18250W        W34434  15.834   9.844  13.854  0.1561  0.0279 -0.1131
18251W        W34435   5.456  17.291   1.910 -0.1586  0.2753 -0.0823
18252W        W34436   1.861   8.672   1.672  0.3308 -0.1256 -0.1013
18253W        W34437   8.754  13.847   2.904  0.0132 -0.0657 -0.0497
18254W        W34438   9.062   0.477  11.762  0.0476  0.0266 -0.1126
18255W        W34439  11.152  15.812  12.701 -0.3177  0.2088 -0.2659
18256W        W34440  14.087   7.832  13.746  0.3740 -0.0886  0.1081
18257W        W34441   2.999  11.879  15.562 -0.0583 -0.1493  0.0820
18258W        W34442  11.807   3.440   3.661  0.0341  0.2295  0.0586
18259W        W34443  13.496   7.680   4.220  0.0196  0.0480  0.1235
18260W        W34444  16.866   7.377   0.956 -0.0179 -0.0116 -0.0425
18261W        W34445  10.770   4.726  12.628  0.2250 -0.1292  0.5305
18262W        W34446   7.880   5.526  12.803  0.1684  0.3374 -0.2731
18263W        W34447  14.671  16.651  16.123 -0.1528 -0.1041  0.1737
18264W        W34448   4.961  11.635   0.945  0.1525  0.1650 -0.0012
18265W        W34449  16.140   5.070   0.440 -0.0643 -0.1570  0.2498
18266W        W34450   6.554  13.842   4.358  0.1788 -0.1766 -0.2348
18267W        W34451  10.051   6.233  15.366 -0.0834 -0.0632  0.1502
18268W        W34452  11.185   6.006   5.821 -0.2695  0.1761 -0.0587
18269W        W34453   1.757  12.227  13.780 -0.0320  0.2120  0.2175
18270W        W34454  10.559  11.939   2.405  0.1281 -0.0179 -0.0218
18271W        W34455   3.354  16.415  15.047  0.0207 -0.1319 -0.0784
18272W        W34456  15.990  13.336  12.647 -0.1771 -0.3087  0.1833
18273W        W34457   5.193  15.266  14.135 -0.1245  0.1863  0.1924
18274W        W34458   5.243  11.974   1.181 -0.2302  0.2284 -0.4500
18275W        W34459  17.856  11.071  16.008  0.1485  0.3223  0.3833
18276W        W34460   9.068   1.890   4.637  0.1601 -0.1197  0.1433
18277W        W34461  12.525   1.344   4.420 -0.0428  0.0946  0.0647
18278W        W34462   9.667   9.201   5.760  0.1436  0.3190 -0.0486
18279W        W34463  11.627   7.733   0.963  0.2266 -0.0462  0.2250
18280W        W34464   7.706   6.382  15.201 -0.0096 -0.0071 -0.1958
18281W        W34465   0.569   5.561   5.163  0.2559 -0.1399 -0.1182
18282W        W34466   3.193  12.501  14.382  0.1909  0.1346 -0.2174
18283W        W34467   1.293  14.658   5.018 -0.1117 -0.0259  0.0776
18284W        W34468  13.100  11.691   5.761  0.0289  0.0225 -0.1131
18285W        W34469   4.045  11.339  14.963 -0.0278 -0.0563  0.0663
18286W        W34470   2.601  12.968   5.573  0.0831 -0.1194 -0.1102
18287W        W34471  12.196   8.544   0.476  0.2155  0.0329  0.2708
18288W        W34472   7.792  14.646   0.047 -0.0861  0.2869  0.1488
18289W        W34473   7.391  11.825  11.415 -0.0235 -0.4338 -0.0904
18290W        W34474   2.089  16.752   2.538  0.1395 -0.1378 -0.1123
18291W        W34475   1.293   2.360  14.921 -0.0538 -0.1741 -0.1405
18292W        W34476   4.797   6.086   0.245 -0.0023  0.2625  0.1017
18293W        W34477   2.723  12.392  14.210  0.1536  0.1688 -0.1955
18294W        W34478   8.445  10.208   2.671  0.4684 -0.4334  0.2276
18295W        W34479  15.517   7.394   5.344 -0.0447 -0.1779  0.0497
18296W        W34480   4.531  13.913  13.892 -0.1812 -0.0817  0.2292
18297W        W34481   4.280  14.090   5.285  0.0699 -0.2503 -0.1986
18298W        W34482   4.136  13.344  15.656 -0.2248  0.2620 -0.1892
18299W        W34483   5.943  10.012   5.309  0.0912  0.1355 -0.2612
18300W        W34484  15.819   9.307  11.742  0.0358 -0.1201  0.0857
18301W        W34485   5.042   0.116  16.361 -0.0610 -0.1676 -0.1513
18302W        W34486   6.601   6.458   0.018 -0.2095 -0.0398  0.0647
18303W        W34487  16.525   6.013   3.785 -0.2632 -0.0718 -0.2347
18304W        W34488  11.429   1.828   5.820  0.1799 -0.0420  0.3376
18305W        W34489   7.874  11.210  13.184 -0.0905  0.1177  0.1076
18306W        W34490   1.644  13.390  12.359  0.0363 -0.1502  0.0647
18307W        W34491  11.854  17.578   4.828 -0.0837  0.2327  0.3687
18308W        W34492  14.597   1.051   5.218  0.1149 -0.2450  0.5727
18309W        W34493  13.439  10.886  12.076 -0.1202  0.1053  0.0521
18310W        W34494  10.579   3.589   4.608 -0.0507 -0.1068 -0.2664
18311W        W34495   3.733  13.033   5.377 -0.2015  0.1493  0.1341
18312W        W34496   8.182   6.144   2.179  0.1369 -0.0096 -0.2193
18313W        W34497   9.967  16.093   5.258  0.0163 -0.1710 -0.3816
18314W        W34498   8.916  10.230   5.713 -0.1819 -0.2531 -0.0365
18315W        W34499   5.580  15.447  13.844  0.0295  0.3071  0.1335
18316W        W34500   7.793  16.772  12.569  0.0127  0.0844  0.0402
18317W        W34501   6.172  14.129  11.985 -0.3056  0.0538  0.1041
18318W        W34502   0.741   3.670  12.972 -0.0438  0.0702 -0.0779
18319W        W34503   3.544   3.654   3.464 -0.1170 -0.1456 -0.0767
18320W        W34504   7.313   3.352  13.717  0.1010 -0.2484 -0.0839
18321W        W34505   1.237  14.603  16.009 -0.0593 -0.2268  0.0422
18322W        W34506   0.426  15.162   2.689  0.1884 -0.3200  0.1711
18323W        W34507   7.770   7.272   5.417 -0.2085 -0.2781 -0.0141
18324W        W34508   9.407  15.419  14.430  0.3067 -0.0981  0.2885
18325W        W34509   6.425   7.943   0.997 -0.1468 -0.1440 -0.0701
18326W        W34510  14.164  16.819   1.825  0.0716  0.4089 -0.0419
18327W        W34511   0.794   0.429   0.910 -0.1922  0.0250  0.2393
18328W        W34512  10.720  10.334   3.407  0.0174 -0.0919 -0.0656
18329W        W34513  17.717   4.076   0.917 -0.2629 -0.0317 -0.2644
18330W        W34514  13.455   0.545   1.955 -0.2904 -0.1566  0.0892
18331W        W34515   7.163  13.057  15.862 -0.3590  0.0828 -0.2022
18332W        W34516   9.913   0.307  16.582 -0.1687 -0.0299  0.2557
18333W        W34517  14.134  14.985   0.756  0.1687 -0.1967 -0.0279
18334W        W34518   3.302  12.182  12.716 -0.0594 -0.3431 -0.1779
18335W        W34519   5.263   6.515   2.849 -0.0611  0.1144  0.4413
18336W        W34520   1.398   3.046   4.191  0.3409  0.2018  0.0067
18337W        W34521  10.367  16.372  14.852 -0.1211 -0.0884  0.1196
18338W        W34522   1.866  16.092  14.077 -0.4497  0.3624  0.2021
18339W        W34523   4.313   1.464  15.883 -0.0909  0.0473  0.1266
18340W        W34524   3.749   8.020  16.821 -0.1506  0.1676 -0.0502
18341W        W34525   5.706   6.358   4.016 -0.0095 -0.1296  0.0006
18342W        W34526   1.055   2.431  11.942  0.0404  0.1537  0.1526
18343W        W34527   3.092  13.484   0.824  0.0846 -0.2026  0.3464
18344W        W34528   4.927   6.285  15.848  0.3342 -0.0682 -0.0399
18345W        W34529   8.234   9.470  15.603 -0.1737  0.2115  0.1129
18346W        W34530   0.140  15.743   1.411  0.2244  0.0614 -0.0178
18347W        W34531   7.149  13.564  16.882  0.0799 -0.2173  0.0288
18348W        W34532   5.015   0.075   1.378 -0.0382  0.1528  0.2003
18349W        W34533  17.634   2.544   1.424  0.1981 -0.0806  0.1503
18350W        W34534  11.696   1.238   2.613 -0.1236 -0.0678 -0.1273
18351W        W34535   1.845  13.953  13.117 -0.2501 -0.1652 -0.0045
18352W        W34536   5.205  10.631   0.007  0.1850  0.2308 -0.1535
18353W        W34537  10.244  10.188   1.230  0.3613 -0.1738 -0.0645
18354W        W34538   5.900  13.029  11.409  0.0129 -0.1901 -0.3462
18355W        W34539   3.651  11.920   4.049  0.0560  0.0062  0.2108
18356W        W34540   4.852  14.047  14.750 -0.0258  0.1330 -0.1416
18357W        W34541   8.209  15.708  14.377  0.2528  0.0085  0.0767
18358W        W34542   9.164   2.406   2.947 -0.0838  0.0070  0.0736
18359W        W34543  16.869   1.920   1.148  0.2887  0.5189  0.2883
18360W        W34544   6.362   5.528   3.734  0.0832  0.2458 -0.2554
18361W        W34545   8.755   3.361   2.818  0.0855 -0.2066  0.0297
18362W        W34546  14.955  16.668   4.828  0.1388 -0.2016  0.0203
18363W        W34547   7.327   2.895   4.069  0.0980 -0.0980  0.4499
18364W        W34548   3.379   5.935   3.958  0.0820 -0.1361 -0.2500
18365W        W34549   0.822   7.070  11.465 -0.0674  0.2659  0.0300
18366W        W34550   5.338  15.672  13.222 -0.2258  0.0306  0.2875
18367W        W34551  16.966   1.933  11.790  0.1703 -0.2205 -0.1008
18368W        W34552   2.002  15.755   0.424 -0.0083 -0.1168  0.1314
18369W        W34553  13.500   6.364   4.690 -0.1249 -0.1683 -0.1201
18370W        W34554   5.671   2.129  15.964 -0.1994  0.0483 -0.1125
18371W        W34555   1.455   3.200  16.642  0.2386  0.0033  0.0402
18372W        W34556   6.728  15.528  16.699  0.2935 -0.1432  0.0740
18373W        W34557   9.687  12.589   6.156 -0.0719 -0.0009 -0.1004
18374W        W34558  12.147  17.625  10.880  0.0181 -0.2786  0.2183
18375W        W34559  15.900   2.750  11.805  0.0210  0.1072 -0.1249
18376W        W34560   2.387  10.689   4.098  0.0932 -0.0932  0.0715
18377W        W34561  17.430  12.024  12.787 -0.2513 -0.0051 -0.1277
18378W        W34562  17.350   3.784   6.029  0.0683 -0.1098 -0.0635
18379W        W34563  16.990  16.300   1.408  0.0021  0.0879  0.2727
18380W        W34564  10.874  15.353   0.442 -0.1681  0.0813 -0.0172
18381W        W34565   6.118  10.624   2.870  0.0268  0.1635 -0.1009
18382W        W34566  17.460   7.124   1.486 -0.0540  0.0445  0.1220
18383W        W34567   8.139  17.855  13.546  0.1336  0.0146 -0.0284
18384W        W34568   0.695   4.301   4.233  0.2505 -0.1084  0.1015
18385W        W34569  16.826   7.818  16.298  0.2905  0.0978 -0.0259
18386W        W34570   4.031   1.017   4.291 -0.1793 -0.0323  0.0593
18387W        W34571   4.381  10.331  16.389 -0.1774  0.0440  0.0602
18388W        W34572  14.115  12.324   2.384  0.3320 -0.1374 -0.0429
18389W        W34573  15.513   1.833   3.490 -0.0592  0.2131 -0.0865
18390W        W34574   4.383  13.502   4.479  0.2286 -0.1995 -0.1144
18391W        W34575  14.053  10.598  12.163  0.0766 -0.2068 -0.0041
18392W        W34576  10.485  16.802   1.658  0.0728 -0.0296  0.2000
18393W        W34577   8.738   8.661  13.532 -0.3874  0.1310  0.4889
18394W        W34578  11.603  12.341   2.911 -0.2243 -0.0768 -0.0135
18395W        W34579   4.116  10.892   4.619 -0.0915 -0.0696  0.0960
18396W        W34580  11.720  15.421  14.651 -0.0747  0.1477  0.2343
18397W        W34581  16.684  12.517  13.598 -0.2470  0.1360  0.1756
18398W        W34582   8.034   8.622  12.825  0.1630 -0.2570  0.1178
18399W        W34583  13.763   3.272  16.753  0.0227  0.1471 -0.2546
18400W        W34584  13.917   5.340  14.884  0.2202 -0.1462 -0.0055
18401W        W34585  10.908   8.830  16.549 -0.1413 -0.1894  0.1630
18402W        W34586   6.881  15.573   3.982 -0.0970 -0.1228 -0.2018
18403W        W34587   2.165  15.519   2.508 -0.0345 -0.1687  0.0174
18404W        W34588   9.726   6.751   5.211  0.1450 -0.0901 -0.0629
18405W        W34589  10.940   6.063   5.401 -0.0649  0.0271  0.0084
18406W        W34590   7.815   0.287   2.890 -0.1702  0.1013 -0.4687
18407W        W34591  16.845   5.893  15.324 -0.2046  0.1631  0.0010
18408W        W34592  15.507  11.132  14.563  0.0378  0.2077  0.3273
18409W        W34593  10.680  16.370   3.844 -0.0382  0.1674  0.0758
18410W        W34594  17.548  11.888   2.538  0.0472  0.2271  0.1363
18411W        W34595   0.779  12.967  14.514  0.0137 -0.2405 -0.2187
18412W        W34596   4.176   6.768   3.184 -0.0376 -0.0484 -0.2080
18413W        W34597  16.151  10.799  11.722  0.2004  0.1957 -0.0396
18414W        W34598  13.682   3.098  15.052 -0.0240  0.0750  0.0991
18415W        W34599  12.064  16.140  15.694 -0.0142  0.1542 -0.0445
18416W        W34600  14.161   4.329   4.437  0.2808 -0.0979  0.0507
18417W        W34601   1.525  15.170   4.996  0.3357  0.2755 -0.2811
18418W        W34602  11.881  15.678  12.261  0.0723 -0.1600 -0.2605
18419W        W34603   4.754   1.193   1.172  0.0600  0.1250 -0.1899
18420W        W34604   3.580  16.558   6.377 -0.0191  0.1775  0.0205
18421W        W34605   8.508  14.772  16.247 -0.1331 -0.0502  0.2564
18422W        W34606   5.664   1.003  14.138 -0.0595 -0.2858  0.0068
18423W        W34607  13.649   1.800   1.994 -0.1410  0.3575  0.0869
18424W        W34608   6.498  15.576   3.010 -0.0221  0.0030  0.1833
18425W        W34609  10.569   8.988   5.794  0.1809  0.0023  0.0985
18426W        W34610  12.081   0.303   3.839  0.1191 -0.1928 -0.0028
18427W        W34611  16.741   0.629  12.422  0.3206  0.1060 -0.1047
18428W        W34612   3.254   2.771  15.142  0.1575 -0.2524  0.1002
18429W        W34613  12.318  15.524  16.437  0.0138 -0.0206 -0.0866
18430W        W34614  10.947  11.587  13.789  0.0830 -0.1192 -0.2163
18431W        W34615   7.868   1.886   5.282 -0.0278 -0.0292 -0.1535
18432W        W34616   6.842   5.269  15.081 -0.0603 -0.3532  0.0639
18433W        W34617  17.486   7.285   0.475 -0.1175  0.2031 -0.1482
18434W        W34618   7.658   3.654   2.465 -0.0243 -0.0358  0.0679
18435W        W34619  10.265  15.529  13.562  0.1109  0.1209  0.1675
18436W        W34620  14.672   4.240  16.728 -0.1683 -0.0707  0.0521
18437W        W34621   1.217   7.722   1.190 -0.4519  0.1629 -0.0298
18438W        W34622  17.365   9.537  12.048 -0.1321  0.1208 -0.0329
18439W        W34623  15.742   6.578   3.710 -0.0059  0.0870 -0.0686
18440W        W34624   2.252  14.389   4.317 -0.0237 -0.1057  0.1912
18441W        W34625   3.383  17.291   3.165  0.1341 -0.0624 -0.1784
18442W        W34626   7.654   2.538  15.399 -0.2069  0.0834 -0.1596
18443W        W34627   3.375   5.626  13.492 -0.0096 -0.3546  0.0795
18444W        W34628   2.760  11.583   0.404  0.0106  0.2247  0.1335
18445W        W34629  13.315   2.639   1.572  0.0435  0.2083 -0.1369
18446W        W34630  11.555   7.112   4.518  0.2291 -0.1102 -0.2019
18447W        W34631   0.429  12.271   1.770  0.0200 -0.2716  0.0877
18448W        W34632  14.742  16.631   4.252 -0.2425 -0.0535  0.0263
18449W        W34633  16.562   5.905  11.950 -0.0271 -0.0297  0.0947
18450W        W34634   9.968   4.997  11.246  0.1850 -0.1211 -0.4909
18451W        W34635   9.665  17.577  13.876 -0.1908  0.0357 -0.0918
18452W        W34636   0.818   9.366  14.860  0.0305 -0.1123  0.1552
18453W        W34637   1.658   5.332  16.936  0.1827 -0.0197  0.2221
18454W        W34638   4.615  17.677   3.269 -0.0499  0.0491 -0.1905
18455W        W34639   9.989  15.332   0.429  0.0452  0.1292  0.0352
18456W        W34640  17.421  13.644   2.394 -0.0313  0.2816 -0.0609
18457W        W34641  13.091   8.056  14.622  0.3703 -0.2663 -0.2561
18458W        W34642  10.199  16.681   0.238 -0.3430 -0.1876  0.1584
18459W        W34643  13.783  12.547   4.110  0.3430 -0.0024 -0.1527
18460W        W34644   2.115   6.723  16.346 -0.1259 -0.1451 -0.1192
18461W        W34645   1.192  15.995  12.545 -0.0537 -0.2294  0.7275
18462W        W34646   4.136  11.346  14.476  0.2334 -0.0401  0.3397
18463W        W34647  13.908  16.334   2.671  0.0212  0.1063  0.0529
18464W        W34648  14.897   6.841   2.554  0.0817  0.1169 -0.0821
18465W        W34649  16.155   6.841   0.889 -0.0918 -0.3703 -0.2489
18466W        W34650  13.453   4.228   6.089 -0.1072  0.1044  0.1448
18467W        W34651  14.576  10.611  12.118 -0.2791 -0.1674  0.0770
18468W        W34652  11.279  11.234   2.396  0.4245  0.0767  0.1262
18469W        W34653  15.389  13.678   2.924 -0.1411  0.1292  0.0879
18470W        W34654   0.784   9.981  16.064 -0.0644  0.0003 -0.0937
18471W        W34655  12.312  11.249  14.046  0.1159 -0.0089  0.0637
18472W        W34656  16.800  10.268   0.326  0.1377  0.1517 -0.0007
18473W        W34657  11.377   1.959   0.974 -0.0088 -0.0586  0.0052
18474W        W34658  14.673   0.687   2.568 -0.1602  0.0985  0.1110
18475W        W34659  17.346  11.130   4.667 -0.2658 -0.1313  0.4309
18476W        W34660  11.407  12.263  12.793  0.1372  0.1537 -0.0698
18477W        W34661   7.978   4.510   3.166 -0.4141 -0.2876 -0.1174
18478W        W34662   5.075  14.137  15.265  0.1304  0.1997 -0.2041
18479W        W34663  12.163  17.272  16.689 -0.0397 -0.3369 -0.1436
18480W        W34664   9.147   6.444  12.965 -0.3259 -0.0104  0.2256
18481W        W34665  12.236   6.874  14.606 -0.0898  0.0085  0.1556
18482W        W34666  15.705   6.367  11.811 -0.0226  0.3037  0.0232
18483W        W34667   0.650  16.573   1.945  0.2340 -0.3485 -0.2048
18484W        W34668  17.444   6.856   5.242 -0.0328 -0.1133  0.0356
18485W        W34669  12.265   7.753  12.626 -0.2617  0.1973 -0.3834
18486W        W34670   8.628   0.682   2.284 -0.0907  0.0640  0.3649
18487W        W34671   6.487   5.143   1.511 -0.1135 -0.1371 -0.1927
18488W        W34672   1.546   7.490  12.719  0.1298 -0.0491 -0.4437
18489W        W34673   2.688   6.796  14.469  0.0952 -0.2759  0.0385
18490W        W34674  12.830  11.606  13.263 -0.0063 -0.1269 -0.0113
18491W        W34675   2.276   0.655   2.178  0.1214 -0.1861  0.0244
18492W        W34676   5.378  12.294   5.337 -0.2000 -0.0864 -0.1277
18493W        W34677   3.271   0.603   1.700  0.2920  0.2632  0.0419
18494W        W34678  11.231  15.647  16.478  0.1747 -0.1098  0.0691
18495W        W34679   1.016   6.062   0.071  0.0181  0.0007  0.1756
18496W        W34680  16.284  10.890   1.436  0.0805 -0.0051 -0.0112
18497W        W34681   4.212  11.067  15.381 -0.4158  0.1214  0.0467
18498W        W34682   8.966  16.849  15.493  0.0598 -0.0625  0.0290
18499W        W34683   6.575  12.603   0.781  0.2128  0.2488  0.2118
18500W        W34684   3.588  13.520   0.937  0.3927 -0.0794  0.1031
18501W        W34685   2.957   4.433  16.811 -0.0093 -0.3851  0.3139
18502W        W34686  16.662   1.390   1.461 -0.0778  0.1945  0.0931
18503W        W34687  14.800  11.863  15.422 -0.1720  0.2806  0.1164
18504W        W34688  11.773   3.586   5.739 -0.2618 -0.1633 -0.4468
18505W        W34689   6.695   1.854   1.935 -0.0425  0.0479 -0.1384
18506W        W34690  10.146   5.967   1.918 -0.2576 -0.2353  0.2593
18507W        W34691  17.096   6.905   3.095  0.0788  0.2581 -0.0153
18508W        W34692  14.719   7.914   5.039 -0.1324 -0.1919 -0.3292
18509W        W34693  17.028  14.571   5.258  0.1132  0.1899 -0.1523
18510W        W34694   7.932  11.044   5.405  0.0540 -0.1735  0.2598
18511W        W34695  13.093   3.684  14.985 -0.2456 -0.0029 -0.1645
18512W        W34696  12.626  17.654  16.722 -0.0439 -0.2014  0.0361
18513W        W34697   9.854   8.563  12.738  0.3194  0.0257 -0.0558
18514W        W34698  13.654   2.679   5.350 -0.0615 -0.0371 -0.0354
18515W        W34699   5.373  16.421  16.137 -0.2424 -0.2397  0.3839
18516W        W34700   1.062   2.424   0.111  0.0370  0.2912  0.1848
18517W        W34701   6.075  13.880  11.258  0.0447 -0.2431  0.1069
18518W        W34702  13.904  10.505   2.311  0.0866 -0.1067  0.2038
18519W        W34703   1.018  15.342   1.261 -0.0048 -0.2348  0.0012
18520W        W34704  11.378   1.478  16.601 -0.1999  0.1941  0.0828
18521W        W34705  12.097  11.721   0.027 -0.3335  0.1479  0.0194
18522W        W34706   5.229   3.064   1.073 -0.1664  0.2563  0.0307
18523W        W34707   9.871   1.815  14.680 -0.0998  0.0114 -0.1394
18524W        W34708  11.328   6.115   4.850 -0.1928 -0.1463 -0.0350
18525W        W34709   5.887   0.379  12.017  0.0235 -0.1921  0.4371
18526W        W34710  11.717   1.818   3.025 -0.0061  0.1176  0.0175
18527W        W34711  11.098  14.668  16.627 -0.0092 -0.0689  0.3327
18528W        W34712   6.797  13.076  12.578  0.0660  0.0622  0.0330
18529W        W34713  11.096   2.671  14.865 -0.0086 -0.1458 -0.2107
18530W        W34714  14.448  15.699  11.859  0.2803 -0.0990 -0.0484
18531W        W34715   7.578   5.741  13.522  0.1048 -0.0355 -0.1773
18532W        W34716   5.878   1.446  14.259 -0.2608 -0.0406  0.0239
18533W        W34717  16.703   5.105  16.033  0.0417 -0.1345  0.0513
18534W        W34718   5.736  10.715  12.674 -0.0871  0.1077 -0.0414
18535W        W34719   9.005   9.172  14.353  0.0718 -0.2561  0.0154
18536W        W34720  11.713  14.303   4.027 -0.1753  0.0426  0.0032
18537W        W34721  15.700   2.295  13.306  0.3053  0.1373 -0.0072
18538W        W34722   1.528  13.243   6.254 -0.0843  0.0084  0.1021
18539W        W34723   0.662  11.919  13.799  0.0167  0.2583 -0.2378
18540W        W34724  17.041  14.586  12.590  0.1339 -0.1314 -0.0646
18541W        W34725  17.424  14.087   2.650  0.2995 -0.1135  0.2736
18542W        W34726  12.633   7.503   4.054 -0.0188 -0.0922 -0.2634
18543W        W34727   8.260   2.266  13.456 -0.0008 -0.0599 -0.2274
18544W        W34728  12.038   2.166  13.525 -0.3901 -0.1257 -0.2833
18545W        W34729   6.164   7.545   2.093 -0.0843 -0.0169  0.1501
18546W        W34730  12.972  12.050  15.119 -0.1464 -0.1418 -0.1251
18547W        W34731   6.045   2.016   4.752 -0.0414  0.0892  0.1654
18548W        W34732   2.054  13.194   3.990 -0.1208 -0.1846  0.0612
18549W        W34733   8.915   4.053   5.157  0.1513 -0.2155  0.2281
18550W        W34734   0.791  14.369  11.913 -0.0954  0.2702 -0.2109
18551W        W34735   3.285   3.391   5.461  0.2371 -0.1152  0.3277
18552W        W34736  13.791   7.728   5.430  0.0367  0.1509 -0.2410
18553W        W34737   8.056   9.608   2.126 -0.3182 -0.3944  0.1242
18554W        W34738   3.131   3.265  12.901 -0.1113 -0.1383 -0.0580
18555W        W34739  14.422   4.289   1.392  0.1234 -0.0037 -0.0292
18556W        W34740   3.916   6.180  14.151  0.0551 -0.0181 -0.0487
18557W        W34741   2.865   4.204  14.952  0.2813 -0.0614 -0.2054
18558W        W34742   5.994  17.354  13.281  0.0130  0.1600 -0.0387
18559W        W34743   3.472  14.744   0.366  0.1413 -0.0622  0.0613
18560W        W34744  17.574   7.309   6.030 -0.1031 -0.0383  0.1263
18561W        W34745  10.977   7.274   2.259  0.1522 -0.0627  0.0304
18562W        W34746   6.001   9.285  15.815  0.0421  0.0728  0.1093
18563W        W34747  13.084  11.289  15.647 -0.0836 -0.0170 -0.2281
18564W        W34748  14.946   4.964   3.431  0.2515  0.2252 -0.2701
18565W        W34749   3.646  11.587  14.413 -0.0694 -0.3398 -0.3020
18566W        W34750  16.383   9.368   5.878  0.0029  0.3334  0.0455
18567W        W34751   8.998  12.926  16.683  0.0423 -0.2144  0.0600
18568W        W34752   5.121   7.558  16.365 -0.1153 -0.0580  0.0770
18569W        W34753   6.418  11.121   2.583  0.2516 -0.1809 -0.1455
18570W        W34754   5.229   6.425  15.501  0.1170 -0.0267  0.1345
18571W        W34755   4.991  15.077   1.526 -0.0515 -0.2361  0.2140
18572W        W34756  17.408  16.791   1.075 -0.0879 -0.3529  0.2760
18573W        W34757  17.438   7.748  14.787 -0.1499  0.2284  0.2549
18574W        W34758  17.067   8.166   3.517  0.0167  0.2159 -0.0866
18575W        W34759   2.128   8.259  15.688  0.1363 -0.1644 -0.1490
18576W        W34760  16.433  12.062  13.609  0.0705  0.0125 -0.2056
18577W        W34761   1.431  11.703   0.172 -0.0533 -0.1520 -0.2337
18578W        W34762   1.623   6.139   3.388 -0.2980 -0.0067  0.2913
18579W        W34763   9.393   9.257   0.384  0.2317  0.1852 -0.0147
18580W        W34764   3.193   8.663   5.579 -0.1316 -0.0099  0.1092
18581W        W34765  17.838  16.826  11.302 -0.1520 -0.0912 -0.0355
18582W        W34766   9.229   9.603  14.652 -0.0056  0.1454  0.2219
18583W        W34767  15.174   1.991  14.805  0.0339  0.2936 -0.2488
18584W        W34768   2.299  10.802   6.220  0.1143  0.1798  0.2085
18585W        W34769   8.273  12.699   3.843  0.0544 -0.0802  0.0161
18586W        W34770   5.280  12.907   4.582  0.0874 -0.0557 -0.1377
18587W        W34771   7.117   4.096   1.471  0.0582  0.1546  0.0179
18588W        W34772  12.905   9.403  12.590  0.2162  0.4545  0.2445
18589W        W34773   9.260   7.104  13.278  0.0508 -0.6593  0.1099
18590W        W34774   1.318  13.932   5.817 -0.0542  0.2364 -0.0100
18591W        W34775   5.024   5.052   6.080  0.0365  0.0075  0.2011
18592W        W34776   9.348   4.351   5.248 -0.3548 -0.3395  0.0848
18593W        W34777   4.366   0.269   0.211  0.1275  0.0870 -0.1701
18594W        W34778  10.916  10.552   6.199  0.2306  0.2701  0.0013
18595W        W34779  13.934   9.658   3.049 -0.0914 -0.2903 -0.1235
18596W        W34780   8.290   7.384  14.970  0.1450  0.0431  0.0952
18597W        W34781   6.215  16.974   1.003  0.2181  0.1335  0.4429
18598W        W34782   5.481   7.898  16.765 -0.2932  0.1097  0.3120
18599W        W34783   8.699   1.989   5.890  0.1242  0.1198 -0.1793
18600W        W34784   7.197  10.011  15.234 -0.0345 -0.4378  0.1848
18601W        W34785   5.711  13.529  11.360  0.0560 -0.1263 -0.2990
18602W        W34786  15.892   5.799   1.963  0.1141 -0.2621  0.1367
18603W        W34787   0.830  14.704  14.823  0.2165 -0.0210  0.3607
18604W        W34788   5.145  17.199  16.306 -0.1067  0.0077  0.1399
18605W        W34789  15.257   7.295  11.875  0.0419 -0.2301 -0.0114
18606W        W34790   0.328  16.632   3.848 -0.4575 -0.1292 -0.2124
18607W        W34791   3.500   9.183   4.078  0.0949  0.0359 -0.1675
18608W        W34792  12.662  12.071  15.741 -0.0374 -0.1752 -0.1474
18609W        W34793   8.079   6.478   3.798 -0.2085 -0.1795 -0.4138
18610W        W34794   8.752   8.655  15.349 -0.4735  0.0748 -0.2569
18611W        W34795   1.387   7.574   1.696 -0.0430  0.2997  0.1185
18612W        W34796   6.644   0.620  15.846 -0.2528 -0.1797 -0.0405
18613W        W34797   8.649  16.969  16.496  0.0160 -0.1201  0.0187
18614W        W34798   2.389  10.889   3.121 -0.2374 -0.2283  0.2767
18615W        W34799   4.641   3.647  13.217 -0.1015  0.2802 -0.0827
18616W        W34800  17.194   4.374   3.610  0.0607  0.2155  0.1331
18617W        W34801   5.876   5.371  14.250  0.1149  0.2714  0.4090
18618W        W34802   5.907   4.749   0.274 -0.1175  0.0949 -0.1596
18619W        W34803  11.901   1.394   3.188  0.2499  0.2012  0.4962
18620W        W34804   4.138   4.329   3.701 -0.0625  0.2188  0.4180
18621W        W34805   0.153   0.837   1.590  0.0600 -0.1736 -0.1290
18622W        W34806   1.641  13.190   4.434  0.1173  0.0129 -0.1402
18623W        W34807  14.185  15.131   0.235  0.1202 -0.0573 -0.0881
18624W        W34808  15.611   8.149  12.495 -0.0919  0.1116 -0.0641
18625W        W34809  11.707  11.063   0.082 -0.0678 -0.0298 -0.0837
18626W        W34810   7.064  10.472  14.211  0.1863  0.0083  0.0352
18627W        W34811  15.240   8.080  14.891 -0.1659 -0.1743  0.0476
18628W        W34812   6.482   1.700  16.692 -0.2638  0.0561 -0.1049
18629W        W34813   4.234  11.891  16.092  0.3285  0.3735  0.0851
18630W        W34814   2.818   2.656   2.302  0.0059 -0.0844  0.1182
18631W        W34815   2.005   6.013  15.115 -0.2981  0.1412 -0.0824
18632W        W34816  16.093  11.656   4.063  0.0631 -0.0865  0.1630
18633W        W34817  10.050   6.179  14.093 -0.1924  0.4540 -0.0330
18634W        W34818  15.574   0.474  13.050 -0.1536  0.1500 -0.1237
18635W        W34819  17.470  11.491   5.059 -0.0856  0.0393  0.2055
18636W        W34820   5.256  16.495   3.457  0.1377  0.0826  0.2648
18637W        W34821   3.108   5.137  12.395 -0.2318  0.2008  0.1629
18638W        W34822   4.294   0.944  16.059 -0.4887  0.3833 -0.2741
18639W        W34823  12.805   3.745   4.436 -0.0737 -0.1222 -0.1495
18640W        W34824   2.733   0.073  12.467 -0.1148  0.1903  0.0134
18641W        W34825   6.824  11.497  11.951 -0.0339  0.0398 -0.0905
18642W        W34826   6.130   4.323   1.693 -0.0643  0.1231  0.0382
18643W        W34827   4.352   1.195  16.894  0.1818  0.0933  0.2860
18644W        W34828   8.784  11.127   5.663  0.3140  0.3341 -0.3324
18645W        W34829   6.122   1.155  10.573  0.2735  0.0458 -0.0048
18646W        W34830   4.544   3.251  13.583  0.1907  0.2422 -0.0436
18647W        W34831  13.281  12.519  12.993 -0.0750 -0.1916 -0.2413
18648W        W34832  17.620   4.201  13.331  0.0951  0.2958 -0.2478
18649W        W34833  10.482   1.527   5.612 -0.1586 -0.1413  0.0569
18650W        W34834   2.508   3.033   1.416  0.0065  0.0760  0.0803
18651W        W34835   5.012   4.899  15.461 -0.0675 -0.0946 -0.2886
18652W        W34836   6.508   0.739  16.496 -0.2988  0.0891 -0.1009
18653W        W34837  12.937   0.394   4.480  0.2698  0.1841 -0.1200
18654W        W34838   1.669   9.311   4.239 -0.1613  0.1858  0.0412
18655W        W34839   1.651  11.755   4.148 -0.0873  0.1690  0.1383
18656W        W34840   9.933  15.961  15.541 -0.1153  0.1167  0.0758
18657W        W34841   0.189   3.409   4.261 -0.0504  0.1071  0.0788
18658W        W34842  14.550  17.255   5.170  0.3177  0.2043  0.2368
18659W        W34843   0.813  15.984  14.654  0.1597  0.1996 -0.2278
18660W        W34844  16.102   3.941   1.257 -0.0115 -0.0491 -0.0101
18661W        W34845  12.852  14.456   2.585 -0.0016 -0.0525 -0.0538
18662W        W34846  15.109  10.405   3.518  0.2654 -0.0880 -0.1941
18663W        W34847  13.363  10.025   1.237 -0.1405  0.0355  0.3084
18664W        W34848   5.478   6.667   5.615  0.2589 -0.1091  0.0760
18665W        W34849   1.196   9.024   2.542 -0.0583  0.1294 -0.2785
18666W        W34850   8.582   5.289   0.621 -0.0628  0.2858  0.1584
18667W        W34851   9.922  10.936  13.276 -0.1845 -0.0876  0.0589
18668W        W34852   6.567   1.938  13.625 -0.2361 -0.1451 -0.2861
18669W        W34853  16.293   8.055  13.183  0.0348  0.0968 -0.2264
18670W        W34854   4.253   4.026  15.322  0.0311 -0.0754  0.0753
18671W        W34855   5.283  10.486   1.776  0.1503  0.0956 -0.1331
18672W        W34856   5.106   1.732  13.104 -0.1359 -0.1182  0.2871
18673W        W34857  17.438  16.824   2.308 -0.3495 -0.0397 -0.3165
18674W        W34858   3.197   2.840   1.996 -0.1555 -0.0806  0.3459
18675W        W34859  15.195   2.435  14.667  0.2232  0.0613 -0.0494
18676W        W34860  16.660   3.650   4.613  0.0775 -0.3832  0.0877
18677W        W34861   4.551  10.835  15.665 -0.0370 -0.1317  0.2883
18678W        W34862   3.900  11.176   3.834 -0.0471 -0.2008 -0.0560
18679W        W34863   9.143   2.311  12.165 -0.3389 -0.0810 -0.0207
18680W        W34864  16.441   2.994   3.662  0.1481  0.0761 -0.1136
18681W        W34865  13.634   4.889  14.505 -0.3542  0.1003  0.1377
18682W        W34866  13.282   7.825   2.643 -0.0432  0.0573  0.0742
18683W        W34867  10.646   7.533   1.228 -0.0112 -0.0966  0.0725
18684W        W34868   7.809  13.735  15.613 -0.3012  0.2332 -0.1212
18685W        W34869  16.466   3.063   2.141  0.1945 -0.0771 -0.1616
18686W        W34870  10.958  11.746   4.068  0.0340  0.0902  0.0467
18687W        W34871  13.186  16.812   4.331 -0.1353  0.0101  0.0050
18688W        W34872   6.629  12.514  16.394 -0.2630 -0.1991 -0.0847
18689W        W34873   8.176   2.195   5.492 -0.1576  0.2155  0.0922
18690W        W34874  14.196  10.457  14.372 -0.1851 -0.3359 -0.2912
18691W        W34875   1.696   0.108   3.140  0.0609  0.3298 -0.0272
18692W        W34876  10.431   4.245   3.909 -0.0951 -0.2199 -0.0904
18693W        W34877   7.501  17.582  12.397  0.0121  0.3741  0.1576
18694W        W34878   7.983  15.430  15.782 -0.1268  0.0315 -0.0627
18695W        W34879   7.723   0.196  14.329 -0.1293  0.1361  0.1222
18696W        W34880  17.493   6.776   6.695 -0.2821  0.0695 -0.1042
18697W        W34881   7.728   7.555  15.604 -0.2882 -0.1003  0.1367
18698W        W34882  11.091   3.518   5.322 -0.0182 -0.1522  0.1915
18699W        W34883   0.012  14.787   1.313 -0.2036 -0.2963  0.2934
18700W        W34884   9.450   5.634  11.711 -0.1754 -0.1920  0.2184
18701W        W34885   8.194   9.448   1.668  0.0544 -0.0707 -0.2184
18702W        W34886  13.832  17.485   2.574  0.2016 -0.0644  0.0514
18703W        W34887  12.534  13.131   2.276  0.2438  0.0311 -0.2104
18704W        W34888  12.909   8.289   4.550  0.1979 -0.0540 -0.0916
18705W        W34889   6.823  10.537  14.626 -0.2015 -0.0893  0.0427
18706W        W34890  17.178   4.518   5.533  0.2583  0.0861  0.1264
18707W        W34891  13.980   2.921   4.047 -0.1983  0.1383  0.1901
18708W        W34892   3.601   9.799  16.200  0.0615  0.0617  0.0481
18709W        W34893  15.237   1.218   2.499 -0.4041 -0.1384  0.1591
18710W        W34894   7.720   0.162   4.744  0.4097  0.1894 -0.0518
18711W        W34895   1.706  15.623  14.313 -0.2691 -0.1960  0.0348
18712W        W34896  16.202  11.583   4.901 -0.0371 -0.2489 -0.3520
18713W        W34897   5.401   4.549   5.212 -0.3900 -0.0489  0.2063
18714W        W34898  14.190  11.535   5.188 -0.0029  0.0597  0.0213
18715W        W34899  14.330   3.607   2.894 -0.1439  0.2676  0.0968
18716W        W34900  13.316   4.004   2.791  0.1700  0.2304 -0.0522
18717W        W34901   4.998   3.409  13.433  0.1845  0.0198  0.0687
18718W        W34902  10.178   3.770  13.334  0.0066 -0.0824  0.1255
18719W        W34903   9.219  12.692   3.565  0.1843  0.0091  0.0190
18720W        W34904   7.175  13.324  16.378  0.2110  0.2708  0.3644
18721W        W34905   3.927   3.308   3.489  0.2745 -0.0661 -0.1741
18722W        W34906   6.756   8.173   0.261  0.2340 -0.1097 -0.2399
18723W        W34907  12.337   9.270  15.264 -0.0690 -0.2538  0.1437
18724W        W34908   0.032   0.737  11.890 -0.3380 -0.1525 -0.1245
18725W        W34909  16.575  10.973  11.448 -0.3163 -0.0345  0.1227
18726W        W34910  13.797   0.458   5.787 -0.1940 -0.2155  0.0353
18727W        W34911   6.974   3.722  12.267  0.1944 -0.2814 -0.1804
18728W        W34912  15.175   5.954  12.269  0.1665 -0.2599  0.1594
18729W        W34913   4.326   8.116   4.378  0.0744 -0.0473  0.1432
18730W        W34914  12.753   2.522   2.342 -0.0717  0.0563  0.2715
18731W        W34915   8.521   4.323   5.483  0.1537  0.2822 -0.0495
18732W        W34916  17.074   0.463   3.781 -0.0633 -0.2665 -0.2311
18733W        W34917   6.461   9.209  15.042 -0.1172  0.1798  0.1288
18734W        W34918   2.702   4.008   2.568 -0.2274  0.1992  0.1188
18735W        W34919   6.428   0.206   2.190  0.2376  0.1413 -0.2194
18736W        W34920  17.469   6.708   4.390 -0.0245 -0.0832 -0.2225
18737W        W34921  17.827  14.472   2.183  0.2463 -0.1862  0.3163
18738W        W34922   9.727   4.912   4.148 -0.2683  0.1496 -0.1144
18739W        W34923   2.960  15.181   3.011  0.0823 -0.1244  0.0894
18740W        W34924  14.104  16.739  14.863 -0.2553 -0.4525  0.2274
18741W        W34925  15.195  13.434  15.744  0.0382  0.1100  0.0886
18742W        W34926  15.043   7.983  11.382  0.1534 -0.2409 -0.0670
18743W        W34927   0.208   3.963  12.171 -0.5465 -0.0335  0.1103
18744W        W34928   3.755   2.725   2.152 -0.1052 -0.2154  0.0608
18745W        W34929   3.114   2.191   3.207 -0.0423 -0.0697  0.0298
18746W        W34930   8.679  13.082   4.519  0.1124  0.0216 -0.0040
18747W        W34931  13.429   7.089  16.551  0.0028  0.0516 -0.1397
18748W        W34932   2.835  13.846  13.078 -0.1065 -0.3345 -0.3505
18749W        W34933   4.575   5.084   0.285 -0.2460 -0.0931 -0.0419
18750W        W34934   6.686  10.363   6.297 -0.2353 -0.1450  0.2818
18751W        W34935   3.948   2.236  16.206 -0.0752 -0.0055 -0.0319
18752W        W34936   0.548  12.031   0.656  0.1329  0.0960 -0.2851
18753W        W34937  16.547  12.183   3.267 -0.0520 -0.0702  0.3592
18754W        W34938  12.859   9.994   4.438  0.0595  0.1719  0.0169
18755W        W34939   1.446  13.990   4.235  0.0576  0.2669 -0.2528
18756W        W34940   3.835   7.665   1.632  0.2357  0.0510  0.3307
18757W        W34941   7.993   6.450  15.945 -0.0270 -0.1692  0.0463
18758W        W34942  15.828   7.400  14.443  0.0950 -0.3186 -0.0822
18759W        W34943  15.200   2.740  14.223 -0.1753 -0.1236 -0.2417
18760W        W34944   9.762  16.138   1.940 -0.2122 -0.1630  0.1454
18761W        W34945   0.588  15.602   5.623  0.1542  0.0548  0.0830
18762W        W34946   3.670   7.718   3.626  0.1609 -0.1877 -0.4271
18763W        W34947  16.752  17.878   0.487 -0.1151 -0.3476 -0.0185
18764W        W34948   6.973   0.902   1.578 -0.1199 -0.1145  0.1379
18765W        W34949   8.420   2.323  14.278  0.1490  0.0092 -0.1011
18766W        W34950   5.636  17.025   0.419 -0.1873  0.0294  0.5234
18767W        W34951   4.205   5.483   5.747  0.1971  0.0987 -0.1160
18768W        W34952   9.095   4.623   1.165  0.0542 -0.3680 -0.2485
18769W        W34953  15.211   5.821   2.393 -0.0386  0.1461  0.2569
18770W        W34954  12.970  17.685   3.116  0.1787  0.3355 -0.0918
18771W        W34955   4.369   8.217  12.246  0.0149 -0.0274  0.0829
18772W        W34956   1.310  13.658   2.889 -0.0614 -0.2458  0.0442
18773W        W34957   6.082  13.698   3.935  0.2011 -0.0357 -0.0296
18774W        W34958  17.009   6.220  12.001 -0.1860  0.1523  0.0212
18775W        W34959   8.194  15.364  16.861 -0.0125  0.0299 -0.3959
18776W        W34960   9.705   9.728  14.733 -0.2724  0.1453  0.2330
18777W        W34961   1.740   8.953  15.216 -0.0401  0.1156 -0.1525
18778W        W34962   2.680  11.148   0.186  0.3599  0.1749 -0.1296
18779W        W34963   4.332  10.345   2.548  0.2930  0.2661  0.0940
18780W        W34964   5.831   3.552  13.951 -0.0809 -0.1358 -0.0715
18781W        W34965  17.791  13.905  14.280 -0.1203 -0.1205  0.1446
18782W        W34966   1.759   9.786  14.567 -0.1155 -0.0895  0.0281
18783W        W34967   2.358   7.150   5.185 -0.5865  0.1381 -0.1189
18784W        W34968  13.458   0.580   4.649  0.0280  0.2346 -0.0853
18785W        W34969   1.234  12.001  15.607 -0.0221 -0.0902  0.1520
18786W        W34970   6.458  15.682   1.271  0.1618  0.0952 -0.0735
18787W        W34971  16.310   5.090  12.580  0.1130 -0.0162  0.1230
18788W        W34972   8.542   2.187  15.318 -0.2139 -0.4308  0.4193
18789W        W34973   6.266   5.144   6.116  0.2495 -0.3836 -0.0940
18790W        W34974  15.594   6.558  13.401  0.2333 -0.0686 -0.0636
18791W        W34975   7.476  10.587   5.992 -0.1270  0.2331 -0.3304
18792W        W34976   3.448   2.152  11.650  0.1161 -0.0003 -0.2727
18793W        W34977   6.111  15.173  10.476 -0.0583 -0.0449 -0.0205
18794W        W34978  13.102   0.214   2.004 -0.0173  0.1380  0.0570
18795W        W34979  17.513  14.562  11.608  0.1622  0.0327  0.1874
18796W        W34980   1.950   3.087   4.099 -0.4639  0.0448 -0.0926
18797W        W34981  17.372  13.433  14.814 -0.0456 -0.0767  0.0231
18798W        W34982   5.822  13.417  16.761 -0.1164 -0.0801 -0.0412
18799W        W34983   7.500  16.487   2.628 -0.1864 -0.1082  0.0565
18800W        W34984  10.343   8.144  15.459  0.2439  0.2955  0.1441
18801W        W34985  11.195  11.589   1.747 -0.0849  0.1705  0.0292
18802W        W34986   8.114   1.403   2.175 -0.0375 -0.1283  0.2034
18803W        W34987   9.788  11.836  14.383 -0.1697  0.0557 -0.0280
18804W        W34988  14.702  11.570  12.816 -0.0834  0.1593 -0.1719
18805W        W34989  17.800   4.191   1.883  0.3598  0.0939  0.0044
18806W        W34990   2.071   2.255  15.243  0.1588  0.2017 -0.3549
18807W        W34991   9.645   4.282  11.684 -0.1103 -0.0903  0.0328
18808W        W34992   3.206  16.830  12.476  0.3757 -0.2168 -0.0887
18809W        W34993  15.879  11.258   6.075 -0.4517  0.0021 -0.0276
18810W        W34994   1.364   0.379   5.504  0.1770 -0.2011  0.0373
18811W        W34995  16.689  14.436   4.006 -0.0155  0.3270  0.0383
18812W        W34996   0.185   9.161   4.608 -0.1883 -0.2281  0.0141
18813W        W34997   6.798   4.856   3.996  0.0846  0.1351 -0.1686
18814W        W34998  12.734   7.218  11.320  0.0768 -0.0744  0.0439
18815W        W34999   9.633  14.673   9.809 -0.0577  0.0813  0.0514
18816W        W35000   9.258   9.465  16.333  0.2245 -0.1223  0.0016
18817W        W35001  10.977   3.364  14.454  0.1097 -0.1740 -0.0579
18818W        W35002  13.755   3.327   3.183 -0.1408 -0.2472 -0.1388
18819W        W35003   5.094  16.125  12.280  0.2097  0.0817 -0.0469
18820W        W35004   7.344   3.924   4.922  0.2671  0.1228 -0.0562
18821W        W35005   4.752   1.679   1.089  0.1170 -0.0318  0.2606
18822W        W35006  11.963   8.819   4.207  0.0164  0.1466  0.1896
18823W        W35007   2.629  16.817   2.404  0.1374 -0.3013  0.1073
18824W        W35008  15.237  17.423  12.794 -0.3235 -0.4142  0.2059
18825W        W35009   6.058   1.277  16.744  0.1904  0.2483  0.0778
18826W        W35010   9.589   9.392  15.101  0.1044  0.0787  0.3050
18827W        W35011   8.135   2.306  15.521  0.4514 -0.1772  0.0695
18828W        W35012  10.863   1.728  14.288 -0.0618 -0.1182 -0.0522
18829W        W35013   4.914   2.265   1.507  0.0138 -0.1252  0.0966
18830W        W35014  16.407  10.385  16.873 -0.1685 -0.1970 -0.0687
18831W        W35015   0.785   8.593   4.963 -0.1652 -0.1952 -0.0301
18832W        W35016  15.445   4.903   1.646 -0.0965 -0.0734 -0.1408
18833W        W35017  17.024  15.114  16.194  0.2629 -0.0251 -0.0825
18834W        W35018   5.478   1.019   0.441 -0.1457 -0.1800  0.0134
18835W        W35019  14.270  16.021   1.950  0.0380  0.0036  0.0655
18836W        W35020   0.922  13.622  13.037 -0.3351 -0.1743 -0.0545
18837W        W35021   9.933   6.926  12.601  0.3339 -0.1722 -0.2472
18838W        W35022  17.174   5.219  12.380  0.1978 -0.2030  0.2980
18839W        W35023   9.992   6.624  14.573 -0.4663  0.3629 -0.4175
18840W        W35024  14.525   3.315   6.481 -0.5048  0.3798 -0.4236
18841W        W35025  13.461  12.415   0.919  0.0279 -0.1889 -0.0647
18842W        W35026  14.825   2.107   4.882 -0.0347 -0.0033  0.0148
18843W        W35027   2.960  10.340  14.177 -0.0175 -0.0450  0.0722
18844W        W35028   8.431  11.959   5.048  0.3057 -0.0260 -0.1476
18845W        W35029  11.386   2.476   0.899 -0.1855 -0.0365  0.2462
18846W        W35030  11.978   8.643  11.406 -0.0724 -0.1541 -0.3717
18847W        W35031   3.789   4.347  12.596  0.2646  0.0328  0.2704
18848W        W35032  16.709   7.886   3.789 -0.2559  0.0238 -0.0504
18849W        W35033   7.728  14.142  13.527 -0.0956  0.0747  0.1956
18850W        W35034  16.642   4.731   3.882  0.3423 -0.0041 -0.4453
18851W        W35035   8.346   1.240   1.097  0.0220  0.3330 -0.0861
18852W        W35036   9.539  15.853   5.314 -0.0571  0.1635 -0.1473
18853W        W35037   9.437  13.662  12.112  0.3615 -0.1002  0.1830
18854W        W35038   7.138   8.184  14.919  0.3695  0.1262 -0.1535
18855W        W35039  10.843   7.044  16.042  0.0684 -0.0506  0.2760
18856W        W35040   6.950  10.774  15.806  0.0531 -0.0983 -0.0683
18857W        W35041  11.168   2.077   5.341 -0.0139 -0.1948  0.0045
18858W        W35042   2.352  13.782   4.141  0.1992  0.1805 -0.0689
18859W        W35043   6.935  12.137  11.471 -0.0858 -0.0084 -0.3040
18860W        W35044   7.082   9.580   4.663 -0.0703  0.0858  0.1003
18861W        W35045   5.955  13.095   2.197 -0.3201 -0.1262 -0.1611
18862W        W35046  17.090   5.103  13.943 -0.1151 -0.0195 -0.0174
18863W        W35047  13.494   5.096  15.292 -0.0487 -0.1806  0.2668
18864W        W35048   4.684   2.311  14.283 -0.1037 -0.2328 -0.0662
18865W        W35049   3.718  10.868  12.889 -0.3695  0.0703 -0.0254
18866W        W35050   1.398   9.001  13.186  0.0836  0.1744  0.2350
18867W        W35051   8.742   8.549  14.350 -0.0261  0.2031  0.2582
18868W        W35052  14.069   5.687   0.065  0.0060 -0.1500 -0.0814
18869W        W35053  12.495  17.412   4.039 -0.2578  0.1400  0.3011
18870W        W35054   7.469   3.894  12.338  0.1725  0.3238 -0.1078
18871W        W35055  10.395   3.036  12.959 -0.1170  0.2543  0.1061
18872W        W35056  14.887   5.906   4.931 -0.2238  0.1853  0.1088
18873W        W35057  16.732  12.865  12.023  0.1421  0.1057 -0.0366
18874W        W35058  11.339   3.219   0.556  0.1097  0.5152  0.2148
18875W        W35059  10.096  15.078  16.833  0.3399  0.2240  0.0027
18876W        W35060  17.384   3.343   6.690 -0.0164  0.1182  0.2033
18877W        W35061  10.523  12.361  15.552 -0.0404 -0.1327  0.1782
18878W        W35062  14.177  11.682   0.534  0.1150  0.0397  0.0647
18879W        W35063  15.801  12.163  16.003  0.2677  0.0941 -0.3029
18880W        W35064   6.706   2.924  14.956 -0.0616  0.0807  0.0095
18881W        W35065  17.253   1.765   5.495 -0.1793  0.0542  0.6532
18882W        W35066   7.372   4.296  13.150  0.2094  0.0910  0.1029
18883W        W35067   1.097   9.244   2.075  0.0233 -0.1648  0.1524
18884W        W35068  13.133  12.203   2.043 -0.1637  0.2821 -0.0304
18885W        W35069  12.372   2.027   3.598  0.1565  0.2203  0.1083
18886W        W35070   8.807   9.649  14.325 -0.1147  0.3207 -0.0786
18887W        W35071   9.804   4.767  14.895  0.3417  0.0860 -0.5077
18888W        W35072  13.868  17.413   0.201  0.0063  0.2125  0.1510
18889W        W35073   5.499  16.844  14.935  0.1347  0.2125 -0.1214
18890W        W35074   7.105   7.013   6.553  0.1277 -0.0354 -0.0855
18891W        W35075   9.351   1.169  16.327  0.0944 -0.0988 -0.1618
18892W        W35076   1.085  13.135  13.797 -0.1287  0.2198 -0.0204
18893W        W35077   6.215  12.378   5.576 -0.2101  0.1225 -0.0748
18894W        W35078  12.715   3.837  15.368  0.4736  0.4068 -0.1242
18895W        W35079   5.032  14.442  11.573 -0.0975  0.0321  0.0742
18896W        W35080   7.490  11.454  16.216  0.1234  0.0645  0.0587
18897W        W35081  13.081   9.022  11.781  0.0103 -0.2111 -0.1611
18898W        W35082   6.906  14.776   4.370 -0.0632 -0.1107 -0.0003
18899W        W35083   0.980   3.041  16.368 -0.1538 -0.3772  0.2260
18900W        W35084   0.321  17.462  14.276  0.2064 -0.0525  0.0017
18901W        W35085  13.115  11.361   0.891  0.1380  0.3755 -0.0766
18902W        W35086   8.259   7.033   1.828 -0.2063  0.0632  0.1173
18903W        W35087  12.449  17.521  11.828  0.2523  0.1160 -0.0432
18904W        W35088   6.796  13.311  13.011  0.0704 -0.0625 -0.0338
18905W        W35089  13.607   3.899   1.581 -0.0247  0.4045  0.1941
18906W        W35090   0.584  10.396  16.193  0.0778 -0.1254 -0.1741
18907W        W35091  17.472   3.862  14.522 -0.1663 -0.2635  0.3433
18908W        W35092   2.418  17.263  14.869  0.1091  0.2264 -0.0567
18909W        W35093   9.847   3.191  15.915  0.4150 -0.0220  0.1036
18910W        W35094   4.573   3.143  14.828 -0.2868 -0.3030  0.0259
18911W        W35095   7.471  16.363   3.628  0.1102  0.4614  0.2859
18912W        W35096  16.223  12.858   3.896  0.0594 -0.0758 -0.1640
18913W        W35097   2.115   9.164   3.276  0.0403  0.0297  0.0521
18914W        W35098   0.633   5.136  13.075 -0.1568  0.2568 -0.0552
18915W        W35099   6.266   4.383  13.197  0.0178  0.1977 -0.0355
18916W        W35100   0.151   0.915   4.270  0.1791  0.1047 -0.1765
18917W        W35101   3.471   0.821  12.280 -0.0211 -0.2801  0.3001
18918W        W35102   3.958  17.170   3.885  0.1730 -0.1288 -0.1391
18919W        W35103   4.596   7.482  13.236 -0.1075 -0.0517  0.2213
18920W        W35104   3.531  10.590   4.059 -0.0098 -0.0703 -0.0750
18921W        W35105   3.442   6.144  13.440  0.3278  0.0364  0.0565
18922W        W35106   9.835   0.073   3.379 -0.0054 -0.0052  0.0201
18923W        W35107  11.909  13.248  15.976  0.1772 -0.1462 -0.2817
18924W        W35108  17.686  15.974   0.836  0.4383 -0.1945 -0.2932
18925W        W35109   9.105   7.513  14.603 -0.0263 -0.0415  0.1000
18926W        W35110   6.322  17.670   4.234 -0.1848 -0.0816  0.4867
18927W        W35111   9.497  16.949   4.805 -0.2341 -0.1611 -0.0493
18928W        W35112  17.860  13.466  16.277  0.2846  0.0812  0.0447
18929W        W35113   5.595   2.042  11.918 -0.2739  0.0324 -0.0489
18930W        W35114  15.651  12.610  15.793 -0.0537  0.0963  0.0367
18931W        W35115   0.329  11.139  15.602  0.1257 -0.1815 -0.1447
18932W        W35116  12.267   1.702  14.334  0.0830  0.1039  0.0929
18933W        W35117  11.679   9.242  13.256 -0.2503 -0.0499 -0.2156
18934W        W35118   7.960   4.770  14.391  0.0493 -0.0006  0.0571
18935W        W35119  10.132   0.763   5.410  0.2010  0.2985  0.2234
18936W        W35120   4.405   6.894   1.423 -0.2628 -0.0595 -0.2024
18937W        W35121  12.421   9.117   6.259 -0.0969 -0.0624 -0.1572
18938W        W35122  12.794   6.092  11.908  0.1334 -0.1180  0.2455
18939W        W35123   2.096  16.857   0.421 -0.4544 -0.0289 -0.0582
18940W        W35124   0.639  13.184   1.363 -0.2571  0.0510  0.0549
18941W        W35125  15.846   8.105   2.465  0.1604  0.1250  0.1299
18942W        W35126   6.548   0.222   0.474  0.0562 -0.0401  0.0105
18943W        W35127   9.409   2.867   2.956 -0.2462  0.1006 -0.1682
18944W        W35128   9.783  13.126  12.243 -0.1414  0.0294  0.0670
18945W        W35129  12.944   9.005   3.222  0.1086 -0.3019 -0.1570
18946W        W35130  11.440   9.771   1.069  0.3530  0.0241  0.3064
18947W        W35131  15.464  15.581   3.469 -0.2138  0.2436  0.1205
18948W        W35132  17.711   8.271   5.768 -0.1539  0.0681  0.2159
18949W        W35133  16.368  17.836  13.738 -0.2567 -0.2909 -0.3126
18950W        W35134  17.823  10.980   1.075 -0.1045 -0.0854  0.0450
18951W        W35135   9.754  10.486  11.820 -0.2391 -0.0371  0.2655
18952W        W35136  11.035  14.243  11.920  0.2657  0.0812 -0.1743
18953W        W35137   6.863   3.285   3.241  0.1848  0.0800  0.1797
18954W        W35138   5.825  13.171  12.688  0.2986  0.0899 -0.3059
18955W        W35139   4.064  15.368   4.787  0.1865  0.0154 -0.2379
18956W        W35140   0.376   1.435   6.015 -0.3253  0.0397  0.1171
18957W        W35141   0.577  10.856   5.211  0.1077 -0.0419 -0.1343
18958W        W35142   1.930   9.638  12.220  0.1549 -0.1274 -0.1999
18959W        W35143   8.973   5.091   4.777 -0.0262 -0.2776 -0.0464
18960W        W35144   4.156  16.932  12.827  0.0407  0.1151  0.0352
18961W        W35145  10.215  14.788   4.786 -0.0907 -0.5670  0.2031
18962W        W35146   3.800  15.984  13.920 -0.2350 -0.1648 -0.2979
18963W        W35147  12.520   0.560  15.146  0.0343  0.3919  0.0680
18964W        W35148  10.720   0.223   5.619  0.0387  0.0833  0.1455
18965W        W35149  12.544   4.970   0.809  0.0936 -0.1235  0.1798
18966W        W35150  11.317  14.188  12.832  0.1684 -0.1056  0.1144
18967W        W35151   7.286   1.184  16.379  0.0392 -0.1736 -0.2992
18968W        W35152  14.766  13.276  15.936  0.0674  0.0646  0.1956
18969W        W35153   0.569  10.716  15.418 -0.1432 -0.1018 -0.2154
18970W        W35154   2.299   4.582   2.510 -0.3777  0.1502  0.2586
18971W        W35155  15.545   6.300   1.899 -0.0336 -0.0280 -0.1140
18972W        W35156   3.067  13.798   2.636 -0.0687  0.2032  0.1991
18973W        W35157  13.282   4.508   5.131  0.0349 -0.3382  0.0124
18974W        W35158   3.511  13.743  15.832  0.1767 -0.1163 -0.2595
18975W        W35159   5.684  13.082   4.343  0.0785  0.1504 -0.1112
18976W        W35160  15.523  13.247   0.407  0.2418 -0.1024 -0.0912
18977W        W35161   9.137   0.522  15.607 -0.2434 -0.0624  0.0175
18978W        W35162   0.062  10.730  12.345 -0.1389  0.2475  0.1688
18979W        W35163   3.244   0.726  14.491 -0.0078 -0.1187 -0.3081
18980W        W35164   8.492  12.886  14.606  0.1275  0.0190 -0.0452
18981W        W35165   9.622   6.416   2.573 -0.0325 -0.1669  0.0294
18982W        W35166   6.969  16.051   5.286 -0.1299 -0.2029 -0.0368
18983W        W35167   0.735   3.864  16.067 -0.2205 -0.4131 -0.0852
18984W        W35168   4.351   5.431  15.554 -0.2114 -0.3193  0.0018
18985W        W35169   3.455  14.456   5.306 -0.2477 -0.4276 -0.1815
18986W        W35170  17.040  17.806  12.504  0.3096 -0.1544 -0.0775
18987W        W35171   9.648  15.540  15.349 -0.2807  0.3329 -0.0490
18988W        W35172   0.024  14.951   4.375 -0.1689  0.0820 -0.0524
18989W        W35173   0.336  17.582  16.698 -0.1683  0.1729 -0.0392
18990W        W35174  11.088   9.217  14.628  0.1801  0.1055  0.0741
18991W        W35175   0.583   5.877   4.485  0.4316  0.1545  0.2270
18992W        W35176  13.857   8.733  15.747 -0.0869 -0.6755 -0.5435
18993W        W35177   2.324   9.903  12.496 -0.0006  0.0015  0.0661
18994W        W35178   5.571  14.485   3.927  0.0470 -0.1254  0.1561
18995W        W35179   3.341   9.779  13.915  0.0134  0.2690  0.0692
18996W        W35180   3.650  11.781  12.611 -0.0115  0.0566  0.1574
18997W        W35181  12.581   1.708  12.761  0.2186  0.1877  0.1660
18998W        W35182   0.948  17.259   0.177 -0.0123  0.2513 -0.1420
18999W        W35183  13.343  11.646  12.553  0.0187 -0.1214  0.0677
19000W        W35184  14.183  13.624  13.128  0.1806  0.3505 -0.0452
19001W        W35185   4.596   4.699   0.775  0.0844  0.3481  0.2553
19002W        W35186   2.443  12.603  12.372  0.1680 -0.3029 -0.0709
19003W        W35187  14.510   7.935   2.645 -0.0001  0.2021 -0.0186
19004W        W35188   9.610   7.272   0.542 -0.0059 -0.4758 -0.1069
19005W        W35189   7.786   9.385  12.341 -0.2348  0.0552  0.0063
19006W        W35190   7.668   8.238  12.765  0.1363  0.2618 -0.1213
19007W        W35191   4.237  14.324   3.415 -0.1744 -0.2965 -0.0606
19008W        W35192   0.052  15.230   1.477  0.0921 -0.2240  0.4295
19009W        W35193  10.407  11.046  14.532 -0.0923 -0.1149 -0.2940
19010W        W35194  10.665   5.492  11.397  0.1705 -0.0209 -0.2004
19011W        W35195   5.553  11.886  11.537  0.0977  0.1083  0.2697
19012W        W35196  16.487   5.393  15.640 -0.0234  0.3335 -0.0568
19013W        W35197  11.498   9.760   3.821 -0.1794 -0.0278 -0.1848
19014W        W35198   7.113  14.840  12.215 -0.1402 -0.0999 -0.1031
19015W        W35199  13.147   2.991   0.733  0.0503 -0.1916 -0.0137
19016W        W35200   1.313  14.194   0.467  0.1633 -0.2287 -0.0400
19017W        W35201   2.450   3.533   1.493  0.0496  0.3391 -0.2211
19018W        W35202   4.944  13.876   2.767  0.3071  0.0260 -0.1626
19019W        W35203  11.242   0.292  13.274  0.0031 -0.3626  0.1284
19020W        W35204   8.589  17.162  15.361  0.2663  0.2125  0.0328
19021W        W35205   8.126  11.681   4.630  0.3175  0.0472 -0.1276
19022W        W35206  17.281   4.564  15.782 -0.1664  0.0363  0.0629
19023W        W35207   6.806   6.575  15.590 -0.0002  0.2803 -0.2512
19024W        W35208  15.985   7.813   2.940 -0.0270 -0.1601  0.0829
19025W        W35209   4.115  12.876   1.677  0.0018  0.0288  0.1852
19026W        W35210  11.982  16.544  12.524  0.1839 -0.2389 -0.2328
19027W        W35211   8.761  14.854   0.890 -0.5178 -0.1682  0.0681
19028W        W35212   4.698   9.427   4.002 -0.2347  0.2115 -0.0019
19029W        W35213   7.146   8.472   4.259 -0.2113 -0.4005  0.0013
19030W        W35214  12.565  16.276  11.575  0.0081  0.0245 -0.0351
19031W        W35215  17.569   2.252  14.223  0.3670 -0.3031  0.1514
19032W        W35216   5.209  13.109  15.306 -0.1089  0.2720 -0.0715
19033W        W35217   0.136   7.154   2.265 -0.0454 -0.1560 -0.0671
19034W        W35218  10.850  14.118   0.538  0.0685 -0.3197 -0.0188
19035W        W35219  11.744   3.926  12.229 -0.5797  0.0340  0.0104
19036W        W35220  16.079   5.718  12.082 -0.0900 -0.0847  0.2259
19037W        W35221   6.261   7.525   3.059  0.2064 -0.0564 -0.3254
19038W        W35222   6.629  13.914  10.200  0.0578  0.1739 -0.0621
19039W        W35223   9.006  10.726  14.636 -0.2668  0.0901 -0.0096
19040W        W35224   0.038  16.842  13.088 -0.0273 -0.1560 -0.0131
19041W        W35225   4.155   7.365  13.500 -0.2505 -0.0690 -0.2866
19042W        W35226   2.369  11.075  14.957 -0.4031  0.0493  0.1603
19043W        W35227   3.750  14.244  14.372 -0.1096  0.0648 -0.3009
19044W        W35228  12.259   5.804  15.479 -0.0673  0.0655  0.1416
19045W        W35229   9.976   4.659   1.061 -0.0230  0.0677 -0.0625
19046W        W35230   3.420  13.564   4.471  0.0951 -0.1578  0.1817
19047W        W35231  10.391   7.781  15.120  0.3226  0.0071  0.4033
19048W        W35232   0.365   8.192   5.575  0.1895  0.0887 -0.1251
19049W        W35233  16.632   6.403  13.818 -0.2337  0.1429 -0.1663
19050W        W35234   3.993   0.996  14.235  0.1717 -0.2536 -0.4540
19051W        W35235   8.947   2.981  14.892  0.2781  0.3593 -0.3559
19052W        W35236   9.141  16.725   5.486 -0.1990  0.0259  0.1243
19053W        W35237  15.654   8.360  12.975  0.1714  0.0153  0.0653
19054W        W35238  15.670   8.450  11.683 -0.0742 -0.0587 -0.0123
19055W        W35239   6.208   1.672   3.187  0.2465 -0.2201 -0.1567
19056W        W35240   4.272   4.458  15.798 -0.2593 -0.1075  0.0666
19057W        W35241  10.226   8.332  16.643  0.3073 -0.1498  0.0661
19058W        W35242   5.434  10.365   1.195  0.0332 -0.4686 -0.1666
19059W        W35243  10.133  16.943  16.362 -0.2525 -0.0323  0.3996
19060W        W35244   9.275  16.902   3.369  0.0418 -0.0490 -0.2326
19061W        W35245  11.393   1.865  11.978 -0.0547  0.3877 -0.2323
19062W        W35246  13.713  10.480   5.127  0.1015  0.2572  0.1644
19063W        W35247  14.925   2.439   5.249 -0.0322 -0.0970 -0.3005
19064W        W35248   4.339   3.979  13.884  0.2265  0.1407 -0.2442
19065W        W35249   3.041  14.472   3.594 -0.3012 -0.0877  0.0522
19066W        W35250   9.863  16.113   4.514 -0.1983 -0.0066  0.0769
19067W        W35251   8.947   5.498  11.861 -0.0782  0.1105  0.0318
19068W        W35252   5.462  15.072  15.872 -0.1281  0.0492 -0.0448
19069W        W35253   3.664   6.276   0.637 -0.0378  0.2095  0.0487
19070W        W35254  12.969  11.089  13.244 -0.2707  0.2187 -0.2611
19071W        W35255   3.942   6.487   3.525 -0.2122 -0.1215  0.1644
19072W        W35256  10.136  11.690   2.339 -0.1510  0.0041 -0.1322
19073W        W35257   7.806   7.401  15.109  0.1110  0.0367  0.2629
19074W        W35258   0.411  16.729   2.963 -0.0719 -0.2755 -0.0687
19075W        W35259   9.658   9.372   2.454  0.0809 -0.1011 -0.2916
19076W        W35260   5.597   1.622  15.907 -0.2104  0.1736  0.2200
19077W        W35261  15.476   7.695   4.892  0.2044  0.0242  0.1277
19078W        W35262  10.261   8.744  14.756 -0.0341  0.1231 -0.0627
19079W        W35263   1.724   8.809  12.797 -0.2632  0.2207 -0.0968
19080W        W35264  11.699   0.115  15.665 -0.1495  0.0034  0.0011
19081W        W35265  10.546   1.070  12.663 -0.0150 -0.1130  0.0664
19082W        W35266  15.433   9.032  16.103 -0.0030  0.0786  0.0828
19083W        W35267  12.269   6.144   1.884  0.1651 -0.0918 -0.0215
19084W        W35268  11.711  16.269  14.410 -0.0351  0.2618 -0.1556
19085W        W35269   2.338  15.359   5.357 -0.1138 -0.4587 -0.1306
19086W        W35270   5.916   5.729   3.442 -0.1860  0.0873  0.0727
19087W        W35271   3.604   6.653  15.030 -0.4069  0.0175  0.1034
19088W        W35272   4.430  10.272  13.968  0.2404 -0.1176  0.1611
19089W        W35273   5.618   1.263  16.488  0.4173  0.0072  0.1045
19090W        W35274  16.053  13.838   3.953  0.1833 -0.0612  0.0263
19091W        W35275  12.769   1.253  15.877 -0.3141 -0.0308  0.1275
19092W        W35276  12.477  10.293   2.907  0.1532  0.3759  0.2830
19093W        W35277  11.333   6.906  14.580  0.1805  0.1645 -0.0259
19094W        W35278   6.345  10.479  12.337 -0.3993  0.2506 -0.2055
19095W        W35279  10.522   9.243   4.825  0.1247 -0.0356  0.3505
19096W        W35280  10.696  17.384  14.833 -0.1399  0.1713 -0.0648
19097W        W35281  11.568   8.293  12.152 -0.0275 -0.0710  0.0985
19098W        W35282  16.959   6.448   3.652 -0.0668 -0.2316 -0.0216
19099W        W35283  12.058  14.754   1.838 -0.0235  0.0439  0.1190
19100W        W35284  13.832   4.864  14.933 -0.2632  0.1065  0.1017
19101W        W35285   8.961   9.202   1.804  0.0880 -0.2337  0.1767
19102W        W35286  13.411   8.800  16.065  0.1689 -0.0556  0.1717
19103W        W35287  14.648  10.288   1.664 -0.0689  0.0880  0.1097
19104W        W35288   6.614   8.370   4.949 -0.3051  0.1132 -0.0714
19105W        W35289   5.632   7.805  14.946 -0.0058 -0.1697 -0.3227
19106W        W35290   7.585   7.167  16.835 -0.0336 -0.3256  0.2766
19107W        W35291  12.773  12.998  16.325  0.2921  0.0808  0.0744
19108W        W35292   7.414  13.797   3.531 -0.0137  0.0598 -0.0166
19109W        W35293  15.586   6.695   4.861  0.0855  0.3757  0.0484
19110W        W35294  13.957   9.006   1.416  0.0024 -0.0539  0.0038
19111W        W35295   1.324   4.429   5.243  0.2318 -0.2986 -0.0664
19112W        W35296   2.612  16.419  12.006 -0.2033 -0.0222 -0.1008
19113W        W35297   5.636  12.074   4.453 -0.1452  0.2715  0.0505
19114W        W35298  17.388  14.352   4.960  0.0450 -0.1904 -0.0590
19115W        W35299  13.422  14.069  16.815  0.0042 -0.0541 -0.1934
19116W        W35300   0.900  14.560  16.431 -0.4454 -0.2935 -0.0999
19117W        W35301  12.261   4.123  14.705  0.2743  0.3012  0.0460
19118W        W35302   4.805  14.975  11.337 -0.1060 -0.1024 -0.1431
19119W        W35303  11.272  10.580   5.191  0.0730 -0.2451  0.1377
19120W        W35304   4.529  15.384  16.873  0.1669 -0.1763 -0.2582
19121W        W35305   1.493   5.592  15.405  0.2716 -0.1514  0.0941
19122W        W35306  15.017  12.526   1.934  0.0203  0.2733  0.0682
19123W        W35307   9.931   2.734   2.521  0.2678 -0.0237  0.2003
19124W        W35308   8.807  17.053   0.786 -0.2461  0.3416  0.0488
19125W        W35309  16.385   4.206   4.663 -0.0307  0.0908  0.0521
19126W        W35310  16.789  16.285   1.987  0.1602  0.0099 -0.1858
19127W        W35311  11.161   4.646   4.843 -0.0382  0.0184 -0.0682
19128W        W35312  15.020  13.936   3.715 -0.1615  0.1053 -0.2666
19129W        W35313  15.929   1.979  15.873 -0.0692 -0.1013  0.0711
19130W        W35314   9.639  15.401   2.566 -0.0707  0.0966 -0.1890
19131W        W35315  17.017   8.642   2.889 -0.1523 -0.0794  0.2053
19132W        W35316   3.621   1.931   4.086  0.0973  0.1022  0.1979
19133W        W35317   2.475  13.822  16.271  0.0728 -0.1810  0.3897
19134W        W35318   0.903   2.446   5.153 -0.0183 -0.0571 -0.1243
19135W        W35319   3.470   0.499   3.800 -0.1445 -0.3375  0.1924
19136W        W35320  16.341  12.159  16.936 -0.4511  0.1066 -0.0071
19137W        W35321  11.927  17.157   2.472  0.0076  0.4174  0.1193
19138W        W35322  16.598   5.601  16.085  0.0552  0.0847 -0.0797
19139W        W35323  11.854  14.726  12.587  0.1651 -0.0320 -0.1140
19140W        W35324   8.405  17.522   1.586 -0.0014 -0.0338  0.0326
19141W        W35325   0.709  10.650  14.532  0.2120  0.0260  0.3546
19142W        W35326   9.773   1.559   4.984  0.3605  0.0724  0.0015
19143W        W35327  12.941   8.760   4.728 -0.1535  0.2066 -0.0183
19144W        W35328  14.250   5.699  12.472 -0.1479  0.0961 -0.0300
19145W        W35329  11.681   7.806  13.077  0.0370 -0.3471 -0.0070
19146W        W35330   5.455  10.984  12.365  0.1705  0.0122 -0.0295
19147W        W35331  14.121   2.823  14.040 -0.0579 -0.1833  0.2158
19148W        W35332   2.741   4.558  14.558  0.0587  0.0589  0.4583
19149W        W35333  12.985   7.474  14.024 -0.0350 -0.2013 -0.0939
19150W        W35334  12.909  10.250  15.832  0.0484 -0.4373  0.0964
19151W        W35335   2.209   0.685  12.334 -0.1879  0.0475 -0.0909
19152W        W35336  16.498   8.439  14.542 -0.1263  0.0116  0.2722
19153W        W35337  14.791   4.463  15.892  0.2502  0.0027  0.1447
19154W        W35338  16.165   1.835   1.897 -0.1883  0.0391  0.1015
19155W        W35339  11.694   5.576   3.561 -0.2074  0.0286 -0.0793
19156W        W35340  13.225   1.407   4.426  0.1783 -0.2190  0.1231
19157W        W35341  17.126   4.165  16.643 -0.2878 -0.3954 -0.3217
19158W        W35342   1.984  14.037  16.099  0.3424  0.3354 -0.0576
19159W        W35343   7.486  17.701   4.967  0.0561  0.1092  0.1968
19160W        W35344  17.693   3.530   5.547  0.1016 -0.1655  0.1736
19161W        W35345   0.780   5.584   0.979  0.0237  0.0023  0.4929
19162W        W35346   0.605  16.823  12.162  0.1363 -0.0262  0.0939
19163W        W35347  11.295   7.390   4.107 -0.1220  0.0805  0.0935
19164W        W35348   5.111  12.648   1.741 -0.2836 -0.0918 -0.1832
19165W        W35349  17.181  10.688  14.365  0.0560 -0.2783  0.1613
19166W        W35350   9.240  16.495  13.714 -0.0298  0.0404  0.0724
19167W        W35351  16.361  10.727   0.853  0.1755  0.1192  0.0647
19168W        W35352   2.664   7.118  12.017 -0.0203 -0.1066 -0.1181
19169W        W35353   5.509  15.732   2.926  0.1496  0.2381  0.0366
19170W        W35354  10.455  10.093   5.378 -0.0361 -0.3115 -0.1569
19171W        W35355  14.482   6.101  13.841  0.1678 -0.1079  0.1481
19172W        W35356   8.974   1.064  16.746 -0.1085  0.1170 -0.0111
19173W        W35357   3.755   8.035   0.809 -0.1161 -0.2482  0.0310
19174W        W35358   6.824   0.832   5.430 -0.0421  0.0740 -0.1148
19175W        W35359  11.295  12.436  14.155  0.2487  0.3992 -0.1061
19176W        W35360   7.651  13.518  14.764 -0.1860 -0.2321  0.0645
19177W        W35361  14.354   8.168  11.593 -0.0239  0.1333 -0.2435
19178W        W35362   3.845   5.794   4.606  0.4375 -0.1395 -0.0769
19179W        W35363  14.249   1.350  12.645  0.1234 -0.0721  0.1460
19180W        W35364  11.847  14.900   5.212  0.2689 -0.1296  0.1581
19181W        W35365   5.777   4.405   3.232 -0.0289  0.2099  0.1734
19182W        W35366   5.833   3.035  12.588  0.2387 -0.0554  0.2971
19183W        W35367  11.288  13.798  13.106 -0.1937  0.3633  0.0689
19184W        W35368   0.169   2.521   2.586 -0.0473  0.0988 -0.0181
19185W        W35369   2.358  15.307  15.505 -0.1514  0.0757  0.1945
19186W        W35370  10.861   6.075   2.279 -0.0952  0.1014  0.1360
19187W        W35371  16.225  10.405   0.421  0.0591 -0.1265 -0.0297
19188W        W35372   1.711   9.043   0.673  0.1481 -0.3238 -0.0654
19189W        W35373  14.209  10.385  15.778 -0.0015 -0.3149 -0.0671
19190W        W35374  12.923   7.014  14.252  0.0124  0.0444  0.4529
19191W        W35375   1.795   6.555   1.638 -0.0113 -0.1276 -0.3017
19192W        W35376  13.179  11.832  13.963 -0.2753 -0.2136 -0.0733
19193W        W35377  16.403  16.512  13.830 -0.0046 -0.1220 -0.1333
19194W        W35378  16.484   0.396  13.207  0.2363  0.1251 -0.1359
19195W        W35379  15.000   1.478  13.490  0.0218  0.1677  0.0735
19196W        W35380   5.822   5.980   6.640 -0.1648 -0.0397  0.2533
19197W        W35381   6.798   0.598   5.881 -0.2217 -0.0540  0.4079
19198W        W35382  13.150   4.873   2.961 -0.1482 -0.0767  0.1582
19199W        W35383   2.457  13.544  11.697  0.0176 -0.0238 -0.3581
19200W        W35384   4.505   7.734   1.185  0.0747  0.3155 -0.2329
19201W        W35385   5.531  15.544   3.402 -0.0874  0.0280  0.2077
19202W        W35386  16.592   1.226   2.382 -0.1538  0.0120 -0.1763
19203W        W35387   4.473   1.657  15.423  0.1607 -0.1066 -0.0679
19204W        W35388   3.303  12.321   0.450  0.0848 -0.1995 -0.0188
19205W        W35389   4.540   0.109  14.134 -0.0323 -0.2718 -0.0645
19206W        W35390   0.546  17.385  15.719 -0.0804  0.1842  0.0963
19207W        W35391   1.801  13.214   1.344  0.0237 -0.2008 -0.0134
19208W        W35392   6.527   9.818   2.324 -0.3329  0.0852 -0.0819
19209W        W35393   3.163   8.873   0.964  0.0442  0.1008  0.1683
19210W        W35394   2.031   4.543   2.948 -0.3050  0.2317  0.2271
19211W        W35395   5.297   9.848   4.426  0.1292 -0.0506 -0.0620
19212W        W35396  11.053  15.083   2.811 -0.1105  0.1108 -0.0987
19213W        W35397  15.038   2.984  12.884 -0.4063 -0.1309  0.2161
19214W        W35398  12.422   7.871   0.554  0.2491  0.2479  0.0334
19215W        W35399   2.364   5.118  13.821  0.2488  0.0929 -0.1220
19216W        W35400   1.181   0.909  15.842 -0.2116 -0.3537  0.1706
19217W        W35401  12.305  13.777  15.658  0.2487 -0.0114  0.0923
19218W        W35402   6.825   6.932   5.021  0.1264 -0.0743  0.0084
19219W        W35403   4.405  16.694  12.404  0.3779 -0.1895 -0.1748
19220W        W35404   4.906  14.054   2.232 -0.1615 -0.1107  0.3862
19221W        W35405   1.464   2.467   5.009  0.0927  0.1075  0.2716
19222W        W35406  15.464   3.812   5.192 -0.0877 -0.2701  0.0488
19223W        W35407  16.815  10.714   1.273  0.1753 -0.3278 -0.2453
19224W        W35408  14.388   9.578  13.751 -0.0192  0.2434 -0.0299
19225W        W35409  17.534   2.455  13.627 -0.3961  0.2612 -0.1783
19226W        W35410   7.878  17.253  11.812  0.0515  0.2394  0.0546
19227W        W35411  13.603  15.649  12.114 -0.2626 -0.1359  0.0658
19228W        W35412  12.708   3.824  14.326 -0.2618  0.2310  0.0008
19229W        W35413  14.740   6.231   5.362 -0.0172  0.1181  0.1213
19230W        W35414  11.462  13.606   1.889 -0.3782 -0.0677 -0.1194
19231W        W35415   8.765   8.795  15.824  0.0597  0.1413  0.1635
19232W        W35416   4.413  13.965   1.025  0.0134 -0.1381 -0.0456
19233W        W35417   7.313  16.326  14.193  0.2380 -0.0087  0.0477
19234W        W35418   9.679  16.455   2.302 -0.1171 -0.2390 -0.1400
19235W        W35419  11.599   8.602  11.735 -0.0446 -0.2095  0.0547
19236W        W35420  13.111   9.538   6.539 -0.3645  0.2527 -0.0920
19237W        W35421  12.461   7.851   2.283 -0.0773  0.4876  0.2789
19238W        W35422   2.183  15.809   1.926 -0.1155  0.4205  0.2269
19239W        W35423   3.824   4.418   1.907  0.1789  0.0273 -0.2771
19240W        W35424   9.897  10.661  15.698 -0.0103 -0.0379  0.1140
19241W        W35425   8.638  14.784   3.142 -0.0022 -0.0346 -0.1393
19242W        W35426  12.195   6.121   3.176  0.2809  0.0334 -0.1048
19243W        W35427  10.144   8.748   2.958 -0.2005 -0.2731 -0.3421
19244W        W35428  15.637   1.877   0.159 -0.1221  0.2385 -0.1170
19245W        W35429  14.995   6.396   4.908  0.0330 -0.1678  0.2141
19246W        W35430  13.734  14.507  16.906 -0.2837  0.0481  0.1285
19247W        W35431  16.525  14.030   3.757  0.1827 -0.1014 -0.1591
19248W        W35432   3.571  12.756  15.026 -0.0125  0.1385 -0.2859
19249W        W35433  12.901   6.375  15.115  0.0248  0.0617  0.0035
19250W        W35434  17.854  16.488   2.506 -0.1722  0.1984 -0.0189
19251W        W35435   1.005  15.426  15.485  0.1465  0.1454 -0.0705
19252W        W35436  14.573   2.283   3.906 -0.0909 -0.0817  0.3166
19253W        W35437   3.069   5.024  12.888 -0.0940 -0.0588  0.1255
19254W        W35438   6.310   6.430   6.287  0.0548 -0.3873  0.0022
19255W        W35439   0.881   3.206   5.647  0.0204  0.0056  0.1397
19256W        W35440  17.046   2.041   2.745  0.1552 -0.1844 -0.2089
19257W        W35441   7.820   6.143  16.447  0.0450  0.2142 -0.0802
19258W        W35442   9.361   2.437  16.915  0.0031 -0.0696  0.3666
19259W        W35443   8.901   7.586   3.215  0.1031 -0.2079 -0.3098
19260W        W35444   5.520   5.370   2.724  0.0912 -0.2144 -0.1159
19261W        W35445   3.120   9.318   0.537  0.0187 -0.1077 -0.1621
19262W        W35446  14.081   1.033  16.375  0.1052  0.0332  0.0790
19263W        W35447  13.850   2.727   2.804  0.0823  0.1306 -0.0539
19264W        W35448   1.422  11.965   2.077 -0.1027  0.0699  0.1030
19265W        W35449  17.054   0.059  15.998 -0.1713  0.3157  0.2262
19266W        W35450   2.363   4.224  13.699  0.0677  0.1462 -0.2494
19267W        W35451  10.705  15.038   1.964  0.2131 -0.0164 -0.1458
19268W        W35452  13.694   5.163  15.720  0.0084  0.2632 -0.0939
19269W        W35453  10.655   4.412   3.394  0.1794  0.0680  0.1406
19270W        W35454   9.542   1.957   4.645 -0.0968 -0.2032  0.2936
19271W        W35455  11.246  17.716   4.207 -0.4716 -0.0913 -0.3473
19272W        W35456   3.943  11.355  16.838 -0.0394  0.2338  0.2428
19273W        W35457   5.998   0.128  14.600  0.1103  0.1253 -0.0138
19274W        W35458  11.343  16.903  16.482 -0.0378 -0.1661  0.1648
19275W        W35459   9.313  11.722   2.782 -0.2059  0.0525 -0.1591
19276W        W35460  10.033   2.951  16.332  0.1840  0.1994 -0.0521
19277W        W35461   5.613   7.990  15.423  0.3216  0.0759 -0.2610
19278W        W35462   9.949  13.964   1.568 -0.0243 -0.1026  0.1322
19279W        W35463   5.187   6.071   2.696 -0.0292  0.1923 -0.0916
19280W        W35464   2.603   5.793   5.409 -0.1091  0.3756  0.0167
19281W        W35465   6.109  12.258   4.240  0.0685 -0.0041  0.1236
19282W        W35466  16.446   5.643   0.362  0.2006 -0.3016 -0.2083
19283W        W35467  17.160  12.293   0.336 -0.2193  0.2983 -0.1340
19284W        W35468   1.065   1.972  15.325  0.0799  0.0905 -0.0893
19285W        W35469  17.407   5.053   4.206  0.2870  0.4165 -0.2047
19286W        W35470   8.631  11.720   0.608 -0.1093  0.2165  0.0110
19287W        W35471   4.976  12.041  14.156 -0.4794 -0.0786 -0.0598
19288W        W35472   0.255  10.638  14.230  0.1910  0.2126  0.0348
19289W        W35473   6.808  13.026  16.209 -0.0972  0.0057 -0.0381
19290W        W35474   1.819  17.491   6.058 -0.1103  0.2345  0.1238
19291W        W35475  10.151   4.947  14.228  0.0508 -0.1572  0.1146
19292W        W35476  10.632  11.269  13.426 -0.3255  0.3203 -0.1479
19293W        W35477   0.450  13.872   3.615  0.0723 -0.0881 -0.0659
19294W        W35478   7.412  15.045   2.614 -0.1956 -0.1095  0.0625
19295W        W35479   0.104   9.683   2.240  0.0109 -0.1881  0.1321
19296W        W35480  17.572  13.843  15.117  0.3690  0.0002  0.3033
19297W        W35481  15.320   0.547  12.357  0.0389  0.3460 -0.0432
19298W        W35482   1.882  14.849  14.539 -0.1332 -0.1956 -0.5542
19299W        W35483  10.621  10.737  12.571 -0.4126 -0.1872  0.1753
19300W        W35484   3.453   5.339   2.924  0.3682  0.3212 -0.4047
19301W        W35485  15.899   5.211  16.853 -0.2477  0.1336  0.0040
19302W        W35486  11.374   2.506  15.255 -0.4065 -0.0203 -0.2608
19303W        W35487   9.368  14.050   5.301 -0.0071  0.4269  0.2318
19304W        W35488   1.904   5.843  16.934  0.4128  0.0518  0.1416
19305W        W35489  13.823   2.867  14.427 -0.3451  0.1162 -0.3359
19306W        W35490  14.856   0.686  12.160 -0.2688  0.0560 -0.1370
19307W        W35491  14.038   6.360   2.501  0.4475  0.1065 -0.3456
19308W        W35492   7.512   8.046   5.035  0.0056  0.5070 -0.3791
19309W        W35493  13.141  17.604  13.008 -0.0606  0.0109  0.0711
19310W        W35494  17.158  13.259   3.330  0.1223  0.0495  0.0104
19311W        W35495   7.942  10.650  13.211 -0.2682 -0.2328  0.5381
19312W        W35496  16.862  17.705   4.707  0.1051 -0.0230  0.1409
19313W        W35497  14.922  17.679  11.835 -0.0274  0.1895  0.0500
19314W        W35498  16.529  10.254   0.775  0.0796  0.1838  0.2084
19315W        W35499   7.891   8.360  15.698  0.2716 -0.2335  0.1577
19316W        W35500   4.353  13.805   3.403 -0.0774  0.0255  0.1885
19317W        W35501  14.685  11.544   0.705 -0.0382 -0.3492  0.0110
19318W        W35502  16.561  16.409   2.435 -0.4139 -0.2189  0.0966
19319W        W35503   5.515   7.375  16.618 -0.1189  0.0935 -0.0619
19320W        W35504   3.998   9.654   1.902 -0.1763  0.1816  0.2030
19321W        W35505   0.538  14.738   1.404 -0.1969  0.1670  0.0508
19322W        W35506   4.790   2.226  16.270 -0.0591 -0.2596 -0.0398
19323W        W35507  11.319   4.291   1.693 -0.0636 -0.0547  0.0593
19324W        W35508   5.529   7.024   2.696 -0.1050 -0.2310 -0.1617
19325W        W35509  12.723   3.368   0.010  0.1605  0.0113 -0.1284
19326W        W35510   8.206   8.445  14.179 -0.1900 -0.2721 -0.2370
19327W        W35511   1.444   7.378  11.785 -0.0102 -0.0058  0.1106
19328W        W35512   0.413  10.320   1.478  0.0517 -0.0410 -0.1617
19329W        W35513  17.504   8.620  12.167  0.0705  0.0131  0.0863
19330W        W35514   2.287  16.825   2.001 -0.1190 -0.3249  0.0277
19331W        W35515   6.786  10.254  13.235 -0.1280 -0.1874 -0.4715
19332W        W35516   0.620   0.918   1.616  0.1846 -0.3081 -0.1488
19333W        W35517   0.959   3.581  13.488  0.1841  0.0538 -0.2319
19334W        W35518   7.729   6.933  11.937  0.0211 -0.0204 -0.1248
19335W        W35519  17.482   4.813   2.992  0.1768 -0.0142  0.2156
19336W        W35520  16.610  13.143   3.617  0.2581  0.0275  0.1137
19337W        W35521   4.391   0.767  15.158  0.2218  0.1222  0.0049
19338W        W35522   3.981   2.923  14.183  0.2199  0.2238  0.1059
19339W        W35523   2.121   1.839   1.730  0.2206 -0.0727 -0.2928
19340W        W35524   6.092  14.138   2.025 -0.0129  0.0281 -0.3214
19341W        W35525   6.891   4.458  13.340  0.1947  0.1763  0.0463
19342W        W35526   2.484   2.487   1.404 -0.0367 -0.0390  0.0218
19343W        W35527  17.767   5.668  14.319 -0.3000 -0.1656 -0.1516
19344W        W35528   2.809  10.125   0.142  0.0100 -0.0204  0.1783
19345W        W35529  10.630  10.903   2.227  0.0455  0.0269 -0.1118
19346W        W35530   2.179   7.263  15.556  0.0006  0.1530  0.0204
19347W        W35531   5.912  13.451   4.929  0.2100  0.2184  0.4790
19348W        W35532   0.161  16.005  11.892  0.2823  0.5828 -0.1453
19349W        W35533   4.468  11.592   0.781 -0.0136 -0.1502 -0.1282
19350W        W35534   8.298  12.522   1.306 -0.2018  0.1959  0.0929
19351W        W35535  11.997  11.073   0.596 -0.1137  0.0048  0.0509
19352W        W35536   7.531   7.102  13.414 -0.0632 -0.2085 -0.1978
19353W        W35537  17.733  11.726  16.741  0.1103 -0.1871  0.1467
19354W        W35538  11.468   9.716  13.535  0.2731  0.0451 -0.1078
19355W        W35539  10.632   5.744  11.831 -0.2063  0.1535  0.1431
19356W        W35540  14.373  17.837   3.377  0.2366 -0.3125 -0.0013
19357W        W35541   1.550  16.422   5.758 -0.0493 -0.2712  0.0659
19358W        W35542  11.920   1.555   2.251  0.0204  0.2028 -0.1549
19359W        W35543  16.278  16.760   4.588  0.0053  0.0967 -0.1580
19360W        W35544  10.277   8.322  12.569 -0.0364  0.0598 -0.0917
19361W        W35545   1.392   2.782   2.697 -0.0023  0.0486  0.0907
19362W        W35546  17.491  16.207   2.797  0.0072 -0.2464 -0.3690
19363W        W35547   5.113  14.610   4.918  0.0379 -0.0725 -0.0717
19364W        W35548  11.254   3.045   5.049  0.0784 -0.1018 -0.1025
19365W        W35549   1.046   7.463  13.164  0.1257 -0.0596  0.0377
19366W        W35550  11.240  13.638  16.312 -0.1863  0.1477  0.2520
19367W        W35551  13.293  12.621  13.996 -0.0354 -0.0521  0.1436
19368W        W35552   8.276  15.762   4.514  0.1217 -0.1673  0.1960
19369W        W35553   8.892   1.957  16.022 -0.1126  0.2369 -0.2049
19370W        W35554   1.456  17.351   4.452  0.2583 -0.1407 -0.0467
19371W        W35555   4.182  11.262   0.975 -0.1349 -0.0970  0.1807
19372W        W35556   6.494  13.886  11.620 -0.0723  0.0678 -0.0616
19373W        W35557   4.980  10.976  13.954 -0.0185 -0.1256  0.1959
19374W        W35558  14.112  11.396  13.337 -0.2246 -0.2670  0.0701
19375W        W35559  15.259  12.106   2.332  0.1391  0.1697 -0.4003
19376W        W35560   9.859  10.215  13.320  0.2348 -0.2346  0.1875
19377W        W35561   9.585   5.257  16.494 -0.2096  0.1568  0.0279
19378W        W35562  17.011  15.702  14.077  0.0312 -0.0268 -0.1030
19379W        W35563  14.543   4.775  11.653 -0.0515  0.3118  0.1047
19380W        W35564   5.289  10.557  11.795 -0.1077 -0.0464 -0.2274
19381W        W35565   4.569   0.543   2.859  0.3403  0.3285  0.4875
19382W        W35566   5.949   1.112  11.291  0.0585 -0.0521 -0.0503
19383W        W35567   8.519  14.314  15.732  0.4438  0.1477  0.0086
19384W        W35568   0.804  12.369  14.557 -0.1928 -0.1036 -0.2907
19385W        W35569   7.436  12.958   2.217 -0.4083  0.1468 -0.0303
19386W        W35570   7.475   5.209   1.998 -0.0639 -0.0872 -0.0179
19387W        W35571  16.790   4.677  13.902 -0.0096  0.0118  0.1288
19388W        W35572  12.155   6.943   5.842  0.2292  0.0793  0.1907
19389W        W35573  12.510  11.420  16.312  0.2856 -0.0367 -0.0121
19390W        W35574   3.592   0.443  13.414  0.2285  0.3012 -0.2420
19391W        W35575   5.464   2.623   1.607  0.1842  0.1492  0.2008
19392W        W35576  12.843  16.376   0.597 -0.0642 -0.1350 -0.4537
19393W        W35577   2.328  12.774   2.213  0.3585  0.2240 -0.0588
19394W        W35578  15.396   1.074   1.080  0.0804  0.1359  0.3139
19395W        W35579  12.345   8.227  15.372 -0.2759 -0.1226  0.3226
19396W        W35580  14.465   9.971   4.709 -0.1427  0.0487  0.1838
19397W        W35581  16.743  11.216  13.734 -0.0423 -0.1916 -0.2721
19398W        W35582   4.296   0.211   4.175  0.1491 -0.2148 -0.1506
19399W        W35583  15.025  10.126  14.239  0.0641  0.1925 -0.0042
19400W        W35584  12.980  17.252  14.439  0.3560 -0.1798  0.0912
19401W        W35585  15.707   2.481   1.233 -0.0541 -0.1098  0.0487
19402W        W35586   6.890  15.761   3.250  0.0164  0.3325  0.0341
19403W        W35587  15.009   4.654   4.328 -0.2495  0.2043 -0.0551
19404W        W35588  13.598  17.031   5.261  0.2857  0.1123  0.1950
19405W        W35589  12.847  10.450  13.102  0.1453  0.1396  0.2044
19406W        W35590  12.442  13.700   2.982  0.0885  0.2590  0.0472
19407W        W35591   2.441  17.708  15.208 -0.0131  0.1009 -0.0090
19408W        W35592  13.584  13.717   4.547 -0.0481  0.3344 -0.1171
19409W        W35593  10.603   0.478   2.660 -0.1195  0.1210 -0.0269
19410W        W35594  16.336   6.438   4.919 -0.0059 -0.1000  0.3608
19411W        W35595   0.662   3.465   4.003 -0.0141  0.1108  0.0122
19412W        W35596  16.945   5.403   3.376  0.1112 -0.2625 -0.1529
19413W        W35597   7.712   7.750  13.147  0.0102  0.0976  0.0033
19414W        W35598  15.400   8.380   4.568  0.0552 -0.1163 -0.1133
19415W        W35599  16.714   2.552   3.827 -0.1864 -0.0361  0.2277
19416W        W35600   0.417  16.696   2.410 -0.1977  0.0037  0.1234
19417W        W35601   3.995   0.303  13.096 -0.0699  0.1656 -0.1338
19418W        W35602  12.886   5.455  13.283 -0.0484 -0.0126  0.0931
19419W        W35603  14.151   5.547  15.880 -0.0488 -0.0203 -0.0579
19420W        W35604  17.063  11.790  13.102  0.0654 -0.0881  0.0000
19421W        W35605   6.796  16.108   3.613 -0.1904 -0.1674 -0.0829
19422W        W35606  11.500   9.603  13.014 -0.2979 -0.1393 -0.1830
19423W        W35607   9.218  13.456  13.838  0.1370 -0.1414 -0.3447
19424W        W35608  17.760  16.126  15.491 -0.2442  0.3510 -0.0610
19425W        W35609   8.155   0.521  15.722 -0.1613 -0.0950 -0.1989
19426W        W35610   1.560  12.222   4.398 -0.1038  0.2709  0.1894
19427W        W35611   9.724   7.257  11.742 -0.5252  0.0391  0.1597
19428W        W35612   5.807   3.300  14.457  0.3879  0.0753  0.0632
19429W        W35613   4.024  17.189  13.539  0.1887 -0.1310  0.0530
19430W        W35614  14.994  16.379   2.455 -0.0939  0.2057  0.1649
19431W        W35615   4.677  15.456  12.510 -0.3044 -0.1379  0.0314
19432W        W35616   4.528  17.301  15.761 -0.0490 -0.0966 -0.3458
19433W        W35617  17.255   8.370   0.962 -0.0870 -0.2375 -0.1952
19434W        W35618   8.362   9.857   0.795 -0.0816  0.2333  0.0710
19435W        W35619   0.972   9.549   6.177 -0.1453  0.1056 -0.2308
19436W        W35620  12.431   4.344  15.614  0.1068  0.3193 -0.1308
19437W        W35621  17.266   2.304   0.146  0.0534  0.2317  0.1757
19438W        W35622  11.908   4.464   3.217 -0.1986 -0.2107  0.0038
19439W        W35623   6.068   0.456   3.019  0.0221  0.1847  0.0518
19440W        W35624  12.658  17.425   4.653  0.3175 -0.0151 -0.2323
19441W        W35625  13.476   8.659  16.726  0.1233  0.0093 -0.0286
19442W        W35626   3.856   8.143  14.417 -0.0107 -0.2502  0.3067
19443W        W35627   3.337  13.801  11.246 -0.0916 -0.0626  0.0356
19444W        W35628  14.944   2.005   1.105 -0.2150 -0.0190 -0.3359
19445W        W35629  10.734  16.418  11.567 -0.3443  0.1550  0.0371
19446W        W35630  12.381   7.093   5.420  0.2847 -0.0440 -0.1471
19447W        W35631  14.554   8.942   1.193  0.1388  0.0260 -0.2257
19448W        W35632  12.350   0.980   0.233 -0.2596  0.2702 -0.0916
19449W        W35633  12.375  14.727   4.653 -0.1125 -0.0005  0.3247
19450W        W35634   1.148   7.889   0.726  0.0989  0.0966  0.1162
19451W        W35635   1.306  15.009   4.542  0.3334 -0.2176 -0.0295
19452W        W35636   6.717   3.473  13.921 -0.0848 -0.3816  0.0928
19453W        W35637   4.411   3.051  12.559 -0.0569  0.1788 -0.0523
19454W        W35638   0.915   7.042  15.030  0.0270  0.3089  0.0471
19455W        W35639   5.121  14.581  15.039 -0.1620 -0.0368 -0.0611
19456W        W35640   4.482   4.469  13.877 -0.0129  0.0933  0.0823
19457W        W35641  15.124  11.371   0.938 -0.0202  0.1818  0.0439
19458W        W35642   3.548  16.778  12.073  0.2808 -0.1143  0.0641
19459W        W35643   0.225  12.464  12.099  0.0680  0.3334  0.0284
19460W        W35644   1.059  17.506   3.741 -0.0739  0.1083  0.1547
19461W        W35645   0.545  11.025   3.482  0.3270 -0.1371 -0.0528
19462W        W35646   7.382  11.601  15.696 -0.1619 -0.0037 -0.0390
19463W        W35647  14.038   5.839   3.411  0.2029 -0.0616 -0.0464
19464W        W35648   0.398   4.932  12.271  0.0898  0.0878  0.0579
19465W        W35649   9.374   5.021  16.901  0.2148 -0.1400 -0.0040
19466W        W35650  17.604   9.983  13.468 -0.0694 -0.1014 -0.1027
19467W        W35651   7.136   7.525   2.765 -0.1995  0.2919 -0.1345
19468W        W35652   8.994   8.937   1.232 -0.2054 -0.1272 -0.2281
19469W        W35653   0.521   0.431   5.154  0.1935  0.0997 -0.1649
19470W        W35654   7.281  11.817   6.016 -0.0941  0.2684  0.2608
19471W        W35655   4.788  11.003  13.049 -0.0207 -0.1482 -0.0095
19472W        W35656   5.137   3.647  12.943 -0.0251  0.3202 -0.0139
19473W        W35657  17.430   5.076   0.287  0.0542  0.0773  0.0294
19474W        W35658   6.434  15.494   2.074  0.1914 -0.0714  0.0156
19475W        W35659  11.587   1.567  12.459 -0.0608 -0.1449  0.0533
19476W        W35660  14.280   1.242   2.010 -0.0044 -0.1788  0.1698
19477W        W35661  13.303   8.041  13.088 -0.1501 -0.0348 -0.1217
19478W        W35662   3.702  11.674   4.926 -0.0535 -0.2215  0.1524
19479W        W35663   9.728  13.290   3.761  0.0169 -0.0364  0.0797
19480W        W35664  16.285   8.501  11.433 -0.3439 -0.0164 -0.0934
19481W        W35665  16.945  14.219   2.585 -0.2218 -0.1478  0.0425
19482W        W35666  11.872   2.840  16.028  0.0102 -0.2532  0.0509
19483W        W35667   0.196   0.548  15.598 -0.0340  0.2234  0.0139
19484W        W35668   2.934   0.045  15.182 -0.0762 -0.0485 -0.2554
19485W        W35669  17.379   3.092  14.714  0.0294 -0.0773  0.2792
19486W        W35670   7.957   3.567  12.179 -0.0718  0.1079  0.0665
19487W        W35671   3.457   5.035   4.029  0.1239 -0.0745  0.1922
19488W        W35672   2.078   2.806   3.679 -0.1456  0.5448  0.0136
19489W        W35673  13.852   4.235   0.466 -0.1464  0.2680 -0.2022
19490W        W35674  11.875   0.629   0.057 -0.2316 -0.0393  0.0645
19491W        W35675   7.501   3.610  14.986  0.3076  0.0122 -0.1781
19492W        W35676   2.273  13.991  11.664  0.1641 -0.0864 -0.1206
19493W        W35677  14.569  12.991  12.028  0.1089  0.0117  0.2183
19494W        W35678  11.422  10.506   1.901 -0.1212  0.1287 -0.1980
19495W        W35679  16.713   8.414  14.982  0.0756  0.1051 -0.0380
19496W        W35680   0.766   5.467   4.147  0.3185 -0.0029 -0.1171
19497W        W35681  10.110   1.371   5.309  0.3890  0.2839 -0.0729
19498W        W35682  12.770   6.002  16.070 -0.1974 -0.2454  0.0849
19499W        W35683  11.252  12.635   3.340 -0.0189  0.0935  0.3693
19500W        W35684  15.659   1.104   2.849  0.0994 -0.2020  0.0674
19501W        W35685   4.321  17.591  11.296  0.1105  0.0627 -0.1449
19502W        W35686   3.657  10.733   1.054  0.1157  0.1790 -0.0613
19503W        W35687   0.180   2.927   1.768 -0.1563 -0.0089 -0.2648
19504W        W35688   0.306  15.865   5.222  0.0209 -0.1935  0.1993
19505W        W35689   5.272  11.559   1.551  0.0800  0.0369 -0.0309
19506W        W35690   7.918  13.105   1.994  0.2366  0.0042  0.0623
19507W        W35691  12.585   1.770   2.740  0.0628 -0.1299  0.0417
19508W        W35692  14.669   8.294   4.705  0.1398  0.0972 -0.2037
19509W        W35693   3.927   6.595  16.646 -0.0191 -0.1799  0.0836
19510W        W35694  13.019  11.040  14.685 -0.1837  0.0993  0.0216
19511W        W35695   1.463  17.335   5.681  0.1038  0.0917  0.3163
19512W        W35696  12.631   6.986  12.591 -0.0658 -0.1702 -0.1515
19513W        W35697  14.684   5.716   5.399 -0.1755 -0.1753 -0.0485
19514W        W35698  13.955   7.051   2.852 -0.1434  0.0906 -0.0340
19515W        W35699  11.289   0.660   0.973  0.0913  0.4702 -0.0180
19516W        W35700  10.303  13.524   3.670 -0.2979 -0.1161 -0.2940
19517W        W35701   6.237   2.537   2.087 -0.3841  0.0760  0.3747
19518W        W35702  10.934  17.736   2.108  0.2158 -0.2420  0.0344
19519W        W35703  15.518  17.816  14.649  0.0041  0.0433 -0.1783
19520W        W35704   0.825  12.352   5.235  0.0401  0.3470  0.2951
19521W        W35705   8.066   1.117   5.280  0.0981  0.0318  0.0874
19522W        W35706   6.830   4.770  15.197 -0.0002  0.2475  0.1544
19523W        W35707   7.059   8.483   1.907  0.2175  0.1579  0.3112
19524W        W35708   4.050  14.683  11.597 -0.1455 -0.3307  0.0611
19525W        W35709  11.084  15.496   1.805  0.1074  0.0666  0.2179
19526W        W35710  16.452  17.490   1.359 -0.1987  0.0400  0.2468
19527W        W35711   2.972  15.967  14.423 -0.3196 -0.2711  0.4275
19528W        W35712  13.206   4.760   3.493  0.1251  0.0162 -0.1779
19529W        W35713  16.057   7.102   1.284 -0.4215 -0.2851  0.0523
19530W        W35714  15.454   0.476   0.943 -0.1360  0.0733  0.0526
19531W        W35715  10.571  11.360   4.328  0.1290  0.2678  0.0549
19532W        W35716   8.964  12.721  14.674  0.0424  0.1075  0.1475
19533W        W35717   6.371  16.341  11.817 -0.1796  0.0962  0.2074
19534W        W35718   3.209  11.846  12.323 -0.2850  0.0341 -0.1397
19535W        W35719   9.889   9.299   5.297 -0.2788  0.3497 -0.1320
19536W        W35720  16.393  17.577   4.985 -0.1591  0.0042  0.0517
19537W        W35721   8.831  17.465  13.023  0.4397  0.1281  0.0696
19538W        W35722  11.314  16.617   4.772  0.1226 -0.1681  0.7369
19539W        W35723   9.260  17.638  14.176 -0.0908 -0.2065 -0.1455
19540W        W35724  12.584   3.427  14.566 -0.0090  0.0529 -0.0273
19541W        W35725   9.155   4.201   1.529 -0.2798  0.2709  0.1784
19542W        W35726   3.797   4.313  15.754  0.0050 -0.3466  0.1038
19543W        W35727   1.223  12.119   5.563 -0.0781 -0.1783 -0.0577
19544W        W35728   9.750   9.631   2.838 -0.2316 -0.1385  0.0058
19545W        W35729   7.502   7.947   2.925  0.1897  0.1207 -0.0530
19546W        W35730   8.845   2.160   1.126 -0.1812  0.1337  0.1414
19547W        W35731  16.370  10.735  13.669 -0.1061 -0.1167 -0.0663
19548W        W35732  14.962  17.034  15.878  0.3375  0.0510 -0.0015
19549W        W35733   9.650  13.511   2.695 -0.2212 -0.5057  0.1296
19550W        W35734  16.913   2.793  15.904 -0.0335 -0.2099  0.0162
19551W        W35735  14.129  10.732   0.140 -0.0188 -0.3404  0.0353
19552W        W35736   7.466   4.556  15.191  0.0997 -0.2053  0.2219
19553W        W35737   6.694   3.296   1.898  0.1166 -0.2000  0.0766
19554W        W35738   5.805   6.230   1.661 -0.1264  0.1455  0.3997
19555W        W35739   9.929   7.273   4.536 -0.2027 -0.0029 -0.0917
19556W        W35740  11.754   3.096   5.096 -0.2083 -0.0584 -0.0119
19557W        W35741   3.302   7.243   0.799  0.1638 -0.0553  0.1941
19558W        W35742   2.079   0.474   6.225  0.3423 -0.0814 -0.1569
19559W        W35743  15.186   8.523  13.041  0.1794 -0.5230  0.0314
19560W        W35744   9.307   4.646   3.330  0.1798  0.1448 -0.0757
19561W        W35745  12.446  14.993  14.760 -0.1790  0.0584 -0.1299
19562W        W35746   7.422   2.943   1.381  0.0026 -0.0786  0.1934
19563W        W35747  12.713   1.760  14.666 -0.0067 -0.2448 -0.0643
19564W        W35748   7.518  16.726  10.553 -0.4161 -0.3645 -0.0053
19565W        W35749   4.807  12.882  13.952 -0.1510  0.2862  0.3035
19566W        W35750   5.507  12.989   5.317  0.0137 -0.0728  0.0032
19567W        W35751  11.100  16.810   0.603  0.0008 -0.0545  0.1647
19568W        W35752   3.555   7.755  12.254 -0.2223  0.2534  0.0691
19569W        W35753  15.636   8.065  16.913 -0.0744  0.2188  0.1007
19570W        W35754   2.664   7.726  16.222 -0.2773  0.0483  0.1425
19571W        W35755   1.516   0.586   3.256 -0.0674  0.1313 -0.0461
19572W        W35756   1.896   5.132   5.966  0.1264  0.1387  0.0739
19573W        W35757   7.608   4.629   0.705 -0.1843  0.1449 -0.0906
19574W        W35758   6.395  13.964  13.518  0.0666  0.5387 -0.0542
19575W        W35759   7.600  11.006   0.175  0.1540  0.0319  0.0679
19576W        W35760   1.453   9.819   5.180  0.0693  0.0646  0.1230
19577W        W35761   8.518  16.909   2.935  0.0802 -0.0617  0.1216
19578W        W35762  17.140  14.863   3.232  0.1494  0.4062 -0.0238
19579W        W35763   1.425  17.350   1.359  0.0658 -0.0097 -0.5203
19580W        W35764   3.995  13.231  11.584 -0.0053  0.2274 -0.1750
19581W        W35765   6.484   9.706   0.228  0.0652  0.1361 -0.0626
19582W        W35766  12.165   6.332  13.102 -0.2642 -0.0333  0.1112
19583W        W35767   9.565   4.875   1.802 -0.3459  0.2241 -0.2009
19584W        W35768   7.643   8.337   2.440  0.0893  0.2818 -0.2117
19585W        W35769   0.893   3.446  15.847 -0.0146  0.1420  0.1024
19586W        W35770  14.680   0.090  14.192  0.1216  0.1769 -0.3028
19587W        W35771   0.629   2.522   0.504  0.1414 -0.1132 -0.0964
19588W        W35772   8.797  12.439   1.334 -0.0428 -0.1003  0.0203
19589W        W35773   7.629  17.634   1.726  0.0180 -0.1022  0.3352
19590W        W35774  16.528   1.192   4.324  0.1432 -0.3699 -0.1611
19591W        W35775  11.402  16.808   3.780 -0.0643 -0.1711  0.2635
19592W        W35776   2.966   2.248   3.761  0.3711  0.1577  0.1215
19593W        W35777   5.203  15.989   3.406  0.0688  0.0969 -0.3100
19594W        W35778  12.460   6.016  13.442 -0.3877  0.0169 -0.1668
19595W        W35779   5.828  12.713  15.978 -0.0977 -0.1750 -0.1074
19596W        W35780   6.977  16.863   0.848  0.1256 -0.3723 -0.2831
19597W        W35781  13.113   6.333  15.899  0.0617  0.0387 -0.2943
19598W        W35782  13.062  15.416   3.955 -0.1192 -0.0926 -0.1500
19599W        W35783  16.404   8.147  16.327  0.3044 -0.0318  0.0557
19600W        W35784  13.122   1.949  14.426 -0.1424 -0.0569 -0.0214
19601W        W35785   0.983  13.745  14.650  0.0197  0.0202 -0.1098
19602W        W35786   2.641  15.528   2.684  0.0715  0.0880 -0.2083
19603W        W35787   2.514  11.129   4.000 -0.1062 -0.1625 -0.0903
19604W        W35788   9.049  15.860  11.114 -0.2576 -0.2329 -0.0116
19605W        W35789   6.867   3.985  16.254  0.0462 -0.0508  0.0989
19606W        W35790  10.520   3.086   3.055  0.0471 -0.0027 -0.0194
19607W        W35791  17.243   8.297  16.918  0.0156 -0.1338  0.0518
19608W        W35792   3.529  17.335  15.438  0.2210 -0.2701 -0.3313
19609W        W35793  12.339   2.485  12.358  0.1118  0.0397 -0.0772
19610W        W35794   5.527   8.662   1.585  0.0650 -0.1175 -0.2043
19611W        W35795  13.287   4.263   1.419 -0.1160  0.1641 -0.1069
19612W        W35796  16.211   8.465   5.705  0.2772  0.1828 -0.1580
19613W        W35797  14.465  12.374   1.064 -0.2327 -0.1161 -0.0045
19614W        W35798   4.435   7.655   4.766 -0.1747  0.1343 -0.0468
19615W        W35799  13.872   7.706   1.967  0.1133 -0.1991  0.2402
19616W        W35800  14.764  11.687   5.194  0.1305 -0.0332 -0.0376
19617W        W35801   0.089   0.575   0.243 -0.1056 -0.1389 -0.0313
19618W        W35802   6.592  12.907   3.780  0.0209 -0.2725  0.1989
19619W        W35803   8.361   3.831  16.059  0.2751  0.1851  0.2992
19620W        W35804   2.929  12.642  12.590 -0.2468 -0.0873 -0.0700
19621W        W35805  13.832   1.831   4.998  0.1057  0.0153  0.0267
19622W        W35806   5.385   5.130  14.662 -0.0448  0.1573  0.0912
19623W        W35807   5.919  14.162  13.697  0.0017 -0.1897 -0.2479
19624W        W35808   7.155  11.323  16.923 -0.2137 -0.3320 -0.2052
19625W        W35809   9.766   1.157  13.967  0.0243  0.1087  0.0656
19626W        W35810  17.231   8.781  13.385  0.0794 -0.0302 -0.0887
19627W        W35811   5.335   2.534   0.172 -0.1202  0.0225 -0.1704
19628W        W35812  13.561   0.599   3.301 -0.1012 -0.2591 -0.0361
19629W        W35813  12.698   9.527  13.168 -0.0145 -0.3163 -0.0375
19630W        W35814  15.344  15.850  13.868  0.3181 -0.0030  0.2083
19631W        W35815  11.820   7.274   1.178  0.1081 -0.2461 -0.0338
19632W        W35816   6.870  12.070   4.299  0.1945  0.1085  0.2747
19633W        W35817   3.605   2.173   3.340  0.3531  0.1749  0.2517
19634W        W35818  14.072   3.674   2.223 -0.0300 -0.0821 -0.1658
19635W        W35819   7.213  10.744  12.019 -0.0500  0.2789 -0.2136
19636W        W35820   7.354   2.265  12.960  0.0207  0.0809 -0.0859
19637W        W35821   4.818   7.014   1.147 -0.0451  0.0029 -0.2751
19638W        W35822  11.133  13.402   0.205 -0.0380  0.0553  0.1789
19639W        W35823   4.362   7.145   0.945  0.0136  0.1997 -0.2523
19640W        W35824  17.834   0.419  15.222 -0.0939 -0.0406  0.2239
19641W        W35825  12.593  12.112  13.935 -0.1625  0.3647 -0.1593
19642W        W35826  10.038   8.971  15.783 -0.0477 -0.0221 -0.1246
19643W        W35827   4.779  13.641   0.179  0.2942  0.2368  0.3153
19644W        W35828  13.169  10.090   0.762  0.2315  0.1306  0.1548
19645W        W35829  17.378  14.274  13.425  0.1705  0.1986 -0.0353
19646W        W35830   2.877  10.853  13.988  0.0123  0.3120 -0.1158
19647W        W35831   1.785   1.676   5.589  0.2846 -0.1722 -0.3548
19648W        W35832   6.520  10.485  14.248 -0.2635  0.0976  0.1226
19649W        W35833  13.870   6.206   0.712 -0.0155  0.2060 -0.0764
19650W        W35834   0.986   7.851  13.756 -0.1661  0.1471 -0.0701
19651W        W35835   3.002   2.456   0.649  0.0490  0.1854  0.0971
19652W        W35836   8.646  16.931   1.306  0.0400 -0.4425 -0.1139
19653W        W35837  14.105   7.932  16.756 -0.0397  0.0054 -0.1472
19654W        W35838  12.614  12.028   2.071  0.0754 -0.1513  0.0050
19655W        W35839  12.480   8.996  16.145  0.1403  0.0072  0.0568
19656W        W35840   0.042  17.272  12.876 -0.1129 -0.0221 -0.0002
19657W        W35841   6.015   0.695   1.113 -0.1318  0.0682 -0.0092
19658W        W35842  13.235   7.970   1.978  0.0814 -0.0339  0.1308
19659W        W35843   8.303  13.439   1.684 -0.3972 -0.1346  0.3304
19660W        W35844   3.966   5.217   5.364 -0.2667 -0.0330 -0.0826
19661W        W35845   2.255  11.545   4.177  0.0176 -0.0469 -0.1679
19662W        W35846   3.569  12.501  13.869  0.1013  0.4630  0.3749
19663W        W35847  12.516   6.907  15.646  0.0555 -0.0699 -0.0551
19664W        W35848   5.769  10.965   2.028 -0.0890  0.3911 -0.2212
19665W        W35849  17.689  12.893  14.435 -0.2030 -0.1059 -0.4748
19666W        W35850  10.537  16.509   1.091 -0.3121  0.0175 -0.1781
19667W        W35851  15.430  10.374  12.059 -0.1837 -0.2247 -0.0307
19668W        W35852  10.953  10.858  13.392 -0.0193  0.1861 -0.3590
19669W        W35853  16.305   2.063   2.348  0.0904 -0.1334 -0.0405
19670W        W35854  13.878  17.231  16.278  0.0363 -0.1052  0.0112
19671W        W35855   3.591  13.204  14.474  0.0705 -0.0200  0.1139
19672W        W35856   4.933  10.289  13.815  0.0492  0.1067  0.1335
19673W        W35857   8.585  17.859   5.520  0.1242 -0.3382  0.2375
19674W        W35858   2.324   3.841  15.149 -0.2711 -0.1687  0.0209
19675W        W35859   8.725   3.934   6.001 -0.1890 -0.2388  0.3265
19676W        W35860  14.447  12.122   1.603 -0.2214 -0.2196 -0.1064
19677W        W35861  13.337  14.242  15.327 -0.0763 -0.0205 -0.0641
19678W        W35862  12.423   1.288   3.948  0.0913 -0.1913 -0.1135
19679W        W35863   0.560  14.780  12.049  0.0756  0.0146  0.0040
19680W        W35864   2.900   1.574  13.056 -0.0207  0.0337 -0.1589
19681W        W35865   8.050   7.028   4.223  0.3350 -0.0174  0.3697
19682W        W35866   6.510   6.394   0.993  0.1053  0.1050  0.5621
19683W        W35867   9.121  15.710   0.592  0.2631 -0.1399 -0.1954
19684W        W35868  13.310   1.180   5.245  0.1410 -0.0737  0.1944
19685W        W35869  10.841   4.158  16.646 -0.1080 -0.0747 -0.0801
19686W        W35870  12.562  14.916   1.958 -0.1251  0.5133 -0.2931
19687W        W35871   9.104   2.766  15.925  0.0527  0.0394 -0.2538
19688W        W35872   0.986   9.918   2.765  0.2203 -0.0127  0.0097
19689W        W35873  11.593  16.432   1.953  0.0367 -0.0512 -0.0735
19690W        W35874  17.561   9.884   5.562 -0.0774  0.0091 -0.0119
19691W        W35875  17.268   2.260   4.097 -0.0874 -0.1639  0.1732
19692W        W35876   2.960  17.064   4.788 -0.0969  0.0373 -0.4943
19693W        W35877   8.662  15.323   3.271  0.0426 -0.1178  0.0771
19694W        W35878   8.190   9.930  13.136 -0.1426  0.3142  0.1935
19695W        W35879   5.604  14.943   0.422 -0.0953 -0.0781 -0.2280
19696W        W35880   4.421  15.696  14.576  0.0194  0.1903 -0.1608
19697W        W35881  17.115  15.991  13.680 -0.3042  0.1526 -0.0821
19698W        W35882  17.663   5.668   1.044 -0.0439  0.0708 -0.0396
19699W        W35883   4.070   2.497   5.270  0.1425  0.2876 -0.1120
19700W        W35884  14.757   4.068  13.600  0.3578 -0.0152  0.1260
19701W        W35885  15.202   5.689   0.875  0.0838  0.0259 -0.2212
19702W        W35886   2.915  10.592   4.421  0.1248  0.0960  0.1481
19703W        W35887   1.261   0.500   0.587 -0.1483  0.3265 -0.1940
19704W        W35888   6.556   6.233   4.414  0.2904  0.1635  0.1417
19705W        W35889   5.393   0.074  11.933 -0.0960 -0.2590 -0.0858
19706W        W35890  15.344   4.014   0.912 -0.0962  0.0635  0.1723
19707W        W35891   9.341  14.488  13.345 -0.0394  0.0204 -0.2402
19708W        W35892  12.618   0.315  13.046  0.1137 -0.2778 -0.0192
19709W        W35893   9.531   4.467   5.863 -0.0405  0.0728 -0.1618
19710W        W35894   6.076   5.069   4.480 -0.1817 -0.0464  0.1017
19711W        W35895  15.864   0.211  14.396 -0.1202 -0.0125 -0.4102
19712W        W35896   6.161  12.068   3.232 -0.1313 -0.0059  0.1648
19713W        W35897  11.582  15.050  16.049  0.0615  0.0294 -0.1959
19714W        W35898   5.592   8.953   2.576 -0.2222  0.0686  0.0336
19715W        W35899   6.507   5.591  15.465 -0.1321  0.2852 -0.0686
19716W        W35900  17.847  10.409   0.072  0.2791  0.1001  0.0801
19717W        W35901  17.178  16.103  12.283  0.1199  0.2731 -0.0442
19718W        W35902  10.828  17.565  15.854 -0.0158  0.1300  0.2702
19719W        W35903   7.124   2.719   2.743  0.2870  0.2120  0.0334
19720W        W35904  15.265   0.787  16.774 -0.3572  0.0106  0.0489
19721W        W35905  14.797   4.929   0.721 -0.3963 -0.1118 -0.1873
19722W        W35906   0.963  16.497   1.491  0.1378 -0.0342 -0.3972
19723W        W35907   4.214   9.136  13.179  0.0047  0.0135  0.0592
19724W        W35908   6.561  15.698   2.504  0.1171  0.1321  0.1684
19725W        W35909  11.555  17.201   4.851 -0.0749 -0.1669  0.0904
19726W        W35910   5.097  11.748  11.673 -0.0276 -0.1798 -0.0377
19727W        W35911   1.234   5.195  14.502  0.0693 -0.3770  0.0067
19728W        W35912  17.602   2.225   2.413  0.1761 -0.0698 -0.0988
19729W        W35913  10.444  12.559  14.806  0.2325 -0.2812 -0.0824
19730W        W35914  17.339  17.553   3.456 -0.3611  0.1534  0.0974
19731W        W35915   6.715  14.048   1.292 -0.1004 -0.2107 -0.1793
19732W        W35916  13.214   6.963   0.687  0.1950  0.1368  0.0305
19733W        W35917   4.565   4.874   4.038 -0.0797  0.0017 -0.0634
19734W        W35918  17.021   3.329   4.736  0.0084  0.4476  0.1204
19735W        W35919  13.333  15.554   0.587 -0.1614 -0.1009  0.3406
19736W        W35920  17.846  14.581   0.764  0.3867  0.1620 -0.1883
19737W        W35921   5.252  14.582  15.604  0.4170  0.0021 -0.1334
19738W        W35922  17.884   1.114   0.066 -0.0169 -0.2347  0.2457
19739W        W35923   4.596   1.086   0.367  0.0736  0.0075 -0.0386
19740W        W35924  14.683   9.722  12.515 -0.0392  0.2295  0.0283
19741W        W35925  15.209  15.304  11.708 -0.0081  0.0214 -0.1151
19742W        W35926  16.565  17.240  11.057  0.0336  0.1201  0.0192
19743W        W35927  11.539   7.068  13.277  0.1254  0.1304  0.0839
19744W        W35928   7.288  15.564   2.539 -0.1307 -0.1345  0.2430
19745W        W35929  17.086   1.042  13.261  0.1091  0.0539  0.0226
19746W        W35930  13.905  11.236   0.351 -0.1397 -0.3012 -0.0370
19747W        W35931   9.587   5.126  12.874 -0.2871 -0.1020 -0.2477
19748W        W35932  15.959   4.670   2.311  0.1293  0.5038 -0.1465
19749W        W35933  11.070   5.316   5.773  0.3588  0.2163  0.0251
19750W        W35934   4.697  16.926  12.791  0.0316  0.1397 -0.1409
19751W        W35935  10.150  17.577  14.799 -0.2379 -0.2682  0.0882
19752W        W35936   3.043  14.098   1.514 -0.0204  0.1070 -0.0403
19753W        W35937  15.718   1.208   2.324 -0.0992 -0.0627 -0.1304
19754W        W35938   2.649   4.547   4.348 -0.0416 -0.0224 -0.3539
19755W        W35939  13.949   9.447   6.185 -0.0776 -0.1816  0.0261
19756W        W35940   4.007  10.713   2.391  0.1454  0.3647 -0.0253
19757W        W35941   9.593   9.026   3.706 -0.1558 -0.0149  0.2616
19758W        W35942   2.823   4.402  14.097 -0.1445 -0.2622 -0.0602
19759W        W35943   2.298   5.492  12.482 -0.0875  0.0941 -0.1003
19760W        W35944   7.388   8.624  14.031 -0.0902 -0.0017  0.0833
19761W        W35945   3.960   5.179   2.386 -0.2106 -0.2176 -0.2408
19762W        W35946   6.963   3.035   0.577 -0.1284 -0.2270  0.0165
19763W        W35947   1.922  10.135   5.256 -0.2579 -0.2247  0.0552
19764W        W35948   2.681  15.637  12.130 -0.0175 -0.0863 -0.0876
19765W        W35949   2.586  16.762  15.982 -0.4777 -0.4320 -0.0617
19766W        W35950   6.526  17.563  12.067  0.2631  0.1596  0.0650
19767W        W35951  10.737  15.003   6.253  0.3180 -0.1674 -0.4248
19768W        W35952  13.029  11.558   4.863 -0.0413  0.2656  0.2805
19769W        W35953   0.096   1.887  16.324  0.0704  0.0558 -0.1807
19770W        W35954   9.608   7.798  11.895  0.0208  0.0088 -0.0519
19771W        W35955  11.964  11.697  13.198 -0.1317 -0.0611 -0.0877
19772W        W35956  16.715   8.752  16.791  0.2689 -0.2046  0.0241
19773W        W35957  17.844   6.129   3.415  0.0541  0.2688 -0.1501
19774W        W35958  12.856   2.423  12.713 -0.2606  0.1533 -0.1658
19775W        W35959   2.073   3.342   2.325 -0.2134  0.0042 -0.0969
19776W        W35960  13.356   7.506   1.708 -0.0105  0.1392  0.1708
19777W        W35961   1.354  12.592  13.789  0.1700 -0.1821  0.2826
19778W        W35962  12.409   2.312  16.617  0.0689  0.0359  0.5124
19779W        W35963  10.380   7.811  14.020  0.1170 -0.1907  0.0918
19780W        W35964   7.179  11.020   4.629 -0.1515  0.0743  0.0663
19781W        W35965   6.807   4.126   3.546 -0.1925 -0.0203  0.0401
19782W        W35966  16.992   5.543  14.791  0.0877 -0.0536 -0.0251
19783W        W35967  12.546   6.211  16.432  0.0181  0.2628  0.0581
19784W        W35968  12.022   0.245   0.414  0.0714  0.0846 -0.0155
19785W        W35969  15.693   1.904  15.022 -0.2964 -0.0556  0.0169
19786W        W35970  13.379   2.205   5.026  0.0156  0.1552 -0.1583
19787W        W35971   2.400   2.806  13.029  0.1394 -0.0386 -0.1432
19788W        W35972   2.999  14.517   1.185 -0.2362  0.1308 -0.0859
19789W        W35973   1.037  11.114  13.151  0.0062 -0.0456 -0.0606
19790W        W35974   1.412  11.998  15.133  0.4883 -0.3814 -0.3107
19791W        W35975   1.211   1.914   5.546  0.1114  0.2947  0.1334
19792W        W35976  16.280   8.966  14.965  0.3524  0.1603  0.1028
19793W        W35977  17.115   1.852   1.708  0.3188  0.1638  0.4005
19794W        W35978  16.613  16.043   4.802 -0.2058  0.1614 -0.0668
19795W        W35979   3.171   8.946   4.370  0.0063  0.2860  0.0915
19796W        W35980  13.365   0.577  13.421 -0.1865  0.0844 -0.0767
19797W        W35981   4.288   1.001   5.204  0.1999 -0.1345 -0.1463
19798W        W35982   3.452  16.317   0.390 -0.0899 -0.2445  0.0391
19799W        W35983   8.552   1.723   1.219  0.0228 -0.0250  0.0404
19800W        W35984   1.484  11.841   3.398 -0.2988 -0.0102 -0.0852
19801W        W35985  10.728   3.564   1.160 -0.0357  0.1724 -0.3278
19802W        W35986   3.389   9.833  13.420 -0.0976 -0.2229 -0.0865
19803W        W35987   0.030  17.763  12.846 -0.0402 -0.2041  0.0539
19804W        W35988   8.599  16.597  11.735  0.0326  0.1770 -0.1073
19805W        W35989   9.013  13.747  14.901 -0.0407  0.1750  0.1573
19806W        W35990   8.963  13.629  16.828 -0.2889 -0.0250 -0.0248
19807W        W35991  11.901  12.430   3.799 -0.2674  0.2455 -0.0215
19808W        W35992  15.241   8.787  14.359  0.2383  0.1843 -0.0112
19809W        W35993   3.658   7.612  15.431  0.2100  0.0019  0.1358
19810W        W35994   0.691   8.947   2.456  0.0584 -0.3158  0.0220
19811W        W35995   2.320   9.130   5.893 -0.0357  0.1528  0.2825
19812W        W35996  14.879   3.082   0.302 -0.2016 -0.0499 -0.0922
19813W        W35997  13.868  10.173   1.940 -0.0325  0.3778 -0.1117
19814W        W35998  13.488   9.090  15.189  0.3266 -0.0079 -0.0615
19815W        W35999   0.402  10.013   4.871 -0.0355 -0.0769 -0.1389
19816W        W36000   1.978   8.180   1.976  0.2210  0.3030 -0.0565
19817W        W36001   7.972   8.568  16.348 -0.2985 -0.2110 -0.1440
19818W        W36002  11.647   9.247   3.400 -0.0057  0.1742  0.0902
19819W        W36003  12.199   4.055   0.432  0.1421  0.0960 -0.1600
19820W        W36004   3.552   1.115   4.388 -0.1383  0.0445 -0.1007
19821W        W36005   8.736   6.500   4.580 -0.0631 -0.1701 -0.3980
19822W        W36006   4.433  16.244  15.735  0.1696 -0.1178 -0.1951
19823W        W36007  11.581  10.163   2.462 -0.1817  0.0684  0.2480
19824W        W36008   9.449  11.294  16.114  0.2019  0.0433 -0.0058
19825W        W36009  16.346  12.907  13.975  0.1398  0.0417  0.0186
19826W        W36010  10.957   9.525   3.644  0.2533  0.0042 -0.1851
19827W        W36011  13.742  10.295   1.445 -0.3013  0.1922  0.1122
19828W        W36012  15.697   6.080   0.247  0.0724 -0.3431  0.1902
19829W        W36013   9.543  12.966  16.462  0.0707 -0.0076  0.2456
19830W        W36014   0.353  13.862  12.943 -0.0364  0.0106 -0.0652
19831W        W36015  13.824   6.182   1.638  0.0863  0.2779 -0.1030
19832W        W36016   6.474  12.231   0.387 -0.1536 -0.0847  0.0432
19833W        W36017   4.108  17.806   5.627 -0.0200 -0.2004  0.0546
19834W        W36018   6.918  14.175   3.532 -0.0704 -0.0378 -0.0416
19835W        W36019   2.397   0.483   3.135  0.1758 -0.0062 -0.0860
19836W        W36020  10.266  16.567  11.642 -0.1877  0.0583 -0.1495
19837W        W36021   2.971  14.506  16.871 -0.0142 -0.0344  0.1430
19838W        W36022  16.696   4.363   0.499 -0.4259  0.1421 -0.1884
19839W        W36023  15.924  14.115   3.552  0.3574  0.3383 -0.0825
19840W        W36024   1.389  11.263   3.334 -0.2673  0.1171  0.1945
19841W        W36025  11.915   5.857   0.591 -0.0543 -0.1466  0.0735
19842W        W36026   0.216   4.313   3.929 -0.0780 -0.0931 -0.4865
19843W        W36027   9.464   0.940   5.977  0.0358 -0.2998 -0.1158
19844W        W36028   0.932   9.728   3.274  0.1404 -0.2227  0.1937
19845W        W36029   0.842  17.807  12.250 -0.1266 -0.2280 -0.2945
19846W        W36030  13.459   5.626   2.266 -0.1855  0.1850  0.4189
19847W        W36031   3.449   5.859  12.996  0.0695  0.0484 -0.1165
19848W        W36032   3.218  17.322   2.716 -0.0387  0.1011 -0.1337
19849W        W36033   9.889  11.800  13.633 -0.1019 -0.0756  0.0510
19850W        W36034   1.217   8.246  12.771 -0.0228  0.1538 -0.0987
19851W        W36035   3.694  14.807   2.276  0.2368 -0.1336 -0.2085
19852W        W36036  10.497   6.700   2.795 -0.1300 -0.1492  0.1664
19853W        W36037  10.581  14.651   1.046 -0.2894  0.0015 -0.0100
19854W        W36038   0.908   7.496  15.234 -0.2795  0.0202 -0.0699
19855W        W36039   3.448  14.216   1.754 -0.1170  0.1791  0.0157
19856W        W36040   7.569  16.067   1.751 -0.3528  0.1797 -0.1891
19857W        W36041  11.411   0.987  13.128  0.2172  0.1884  0.1687
19858W        W36042  11.670  14.586   3.516  0.0290 -0.1725  0.0580
19859W        W36043  14.683   6.168  15.987 -0.2542  0.0712 -0.3780
19860W        W36044  13.747   5.930  11.747  0.1734 -0.1678  0.1411
19861W        W36045   3.364  13.320  16.541 -0.0796 -0.0925  0.0079
19862W        W36046  17.037  14.360  16.126 -0.3403  0.0437 -0.1880
19863W        W36047   8.431   6.265   5.431  0.1799  0.2102 -0.0723
19864W        W36048   1.194  16.551  16.166 -0.2210  0.3255  0.1219
19865W        W36049   2.038  16.510   5.032  0.1552  0.0527  0.1186
19866W        W36050   2.335  11.967  15.442 -0.0214 -0.0078  0.2716
19867W        W36051   6.549   7.247   2.190  0.0184  0.2345 -0.0367
19868W        W36052   3.882   8.028  14.864  0.2385 -0.2883 -0.0128
19869W        W36053   3.324   6.707   0.492  0.1688  0.2374 -0.0826
19870W        W36054  13.017   2.922   1.221 -0.3128  0.0533 -0.3743
19871W        W36055   6.297  17.164  16.620 -0.0547 -0.0774 -0.1588
19872W        W36056   8.507   6.919  16.340 -0.0145  0.2489 -0.1584
19873W        W36057   0.317  14.425  15.050 -0.1260 -0.0069  0.1504
19874W        W36058   9.946  15.841  16.927  0.2226 -0.0756 -0.3810
19875W        W36059   1.173  16.412   3.344 -0.3314  0.0203  0.0353
19876W        W36060  12.222   9.813  16.511 -0.2592  0.1822 -0.0326
19877W        W36061   1.821  15.331  14.792  0.1912 -0.0826  0.2136
19878W        W36062   8.264  15.375  14.054  0.2093  0.0021 -0.1842
19879W        W36063  13.734  16.851   2.560  0.2344 -0.0512 -0.0893
19880W        W36064  10.534   6.185  15.673  0.0397  0.1802 -0.0033
19881W        W36065   0.536   8.017   3.660  0.2088 -0.3027  0.0659
19882W        W36066   3.839   5.446   4.236  0.1066  0.1379  0.1385
19883W        W36067  14.675  14.701  15.990 -0.2217  0.1451 -0.1333
19884W        W36068  15.142  17.502   1.922  0.1209  0.1229  0.0725
19885W        W36069  10.186   3.604  15.990 -0.2499 -0.3068  0.1480
19886W        W36070  10.177   6.058  16.417 -0.2130 -0.2627 -0.1990
19887W        W36071   6.284   4.600   4.290  0.1261 -0.1326 -0.0091
19888W        W36072  12.846   9.648  15.355  0.0374 -0.2643  0.1190
19889W        W36073   3.202  14.415  12.925  0.4214  0.1828  0.1728
19890W        W36074  10.667  12.607  13.977  0.1415  0.0143  0.1911
19891W        W36075  16.903   4.375  12.498 -0.0332  0.2700 -0.1186
19892W        W36076  12.333  16.717   5.682 -0.2289 -0.1651 -0.1696
19893W        W36077  15.379  11.775  12.328 -0.1247 -0.0197  0.2539
19894W        W36078  10.648   3.480  11.721 -0.1237  0.0824 -0.0376
19895W        W36079   6.524  12.087  15.648 -0.0400  0.0619  0.1370
19896W        W36080   1.789   8.253   4.393  0.1990 -0.1326 -0.1725
19897W        W36081  15.332   3.081   4.363 -0.4133 -0.0851  0.1062
19898W        W36082  11.800  10.456  12.873  0.1308  0.1655  0.1441
19899W        W36083  13.925  10.087  13.137 -0.0499 -0.1124 -0.2416
19900W        W36084   7.609  12.779   3.138  0.1165  0.0314 -0.3184
19901W        W36085  11.874   7.849  14.543  0.1180  0.0864 -0.2537
19902W        W36086   5.921   2.405  15.158 -0.0458 -0.1926 -0.2315
19903W        W36087   7.493  12.389  15.886  0.0557  0.2593 -0.0993
19904W        W36088   7.229   8.027   5.997  0.1882 -0.3165  0.0421
19905W        W36089  17.360   1.797   2.496 -0.2075  0.2372  0.0064
19906W        W36090  11.517  13.645  16.813  0.0722  0.3110  0.2198
19907W        W36091  15.777  13.367  13.335 -0.1691  0.1777  0.0295
19908W        W36092  14.386  15.768  13.426  0.1829  0.2310 -0.2847
19909W        W36093  16.900  14.042   3.446 -0.4551  0.0140 -0.1146
19910W        W36094  16.140   2.564   3.790  0.0044 -0.0160  0.1305
19911W        W36095  10.166   1.877  16.002 -0.2192  0.0096 -0.1657
19912W        W36096  10.040   7.052   4.985  0.1441  0.2638 -0.2340
19913W        W36097   5.995   1.043  14.525 -0.2562  0.4429  0.3567
19914W        W36098   0.949  13.653   3.423  0.2083  0.0582 -0.1147
19915W        W36099   5.113   0.372   0.766  0.1470 -0.1643 -0.1234
19916W        W36100  12.774  15.023  11.316  0.0924  0.2443  0.1370
19917W        W36101   7.192  17.161   6.230 -0.0903  0.1168 -0.0936
19918W        W36102   5.955   4.812  13.169  0.2856 -0.0350  0.2122
19919W        W36103   4.826  10.576  14.205 -0.0956 -0.0998 -0.0741
19920W        W36104  10.268  11.581  14.345 -0.1033  0.2141  0.2011
19921W        W36105   4.386   3.958  15.892  0.0943 -0.1041 -0.1190
19922W        W36106   2.695   1.738   4.427 -0.3450 -0.1119 -0.0721
19923W        W36107   9.783  10.970   3.325 -0.1251  0.0962  0.0712
19924W        W36108  16.013  10.254   2.027 -0.0127 -0.3364  0.1065
19925W        W36109   0.963   8.699   1.158 -0.1138  0.1153  0.0585
19926W        W36110   8.936   7.787  14.193  0.1015 -0.1139 -0.1373
19927W        W36111  12.059  13.143  15.053  0.0505  0.2064  0.2092
19928W        W36112  16.236  15.948   3.177  0.0564  0.1415  0.1572
19929W        W36113   6.224   7.550   0.238 -0.4142  0.0509 -0.0703
19930W        W36114   0.462   5.087  13.621  0.0130  0.0894  0.3445
19931W        W36115  15.235   0.750  14.905 -0.4147 -0.0708  0.2614
19932W        W36116   6.099   8.680   3.357  0.2832 -0.0143 -0.0509
19933W        W36117  14.140   5.071   1.080  0.3219 -0.0800 -0.0859
19934W        W36118   1.581   0.479  13.269 -0.0009  0.1303 -0.1310
19935W        W36119  13.606  13.800  15.010  0.2087 -0.0855  0.0558
19936W        W36120  11.839  17.805  15.086  0.1559 -0.1207 -0.0029
19937W        W36121   9.529   8.124   1.342 -0.0777 -0.1348 -0.1555
19938W        W36122  14.392  11.871   5.515  0.1076  0.0839 -0.0432
19939W        W36123   0.165  16.709   1.800 -0.1890 -0.0796 -0.1711
19940W        W36124   4.120   8.408   5.679  0.0873  0.0857 -0.1585
19941W        W36125   7.868  11.202   2.081 -0.2699 -0.7079 -0.2290
19942W        W36126   8.357   2.755  13.372  0.0764 -0.2619 -0.3441
19943W        W36127   1.522  16.211   3.803 -0.3649  0.2702  0.2667
19944W        W36128   6.848   6.569   4.639  0.1202 -0.0654  0.0067
19945W        W36129   1.242  14.169   5.317 -0.0631 -0.1742  0.2937
19946W        W36130   9.971  15.486   3.950  0.0160  0.0045 -0.2181
19947W        W36131   3.342  16.273   2.352 -0.1411  0.3102 -0.2772
19948W        W36132  14.926   1.181  16.534  0.1912  0.1555  0.2203
19949W        W36133   5.918   6.741   5.344 -0.0587  0.2819  0.0191
19950W        W36134   9.902   5.794  14.830  0.2306  0.0169  0.0429
19951W        W36135   7.572  14.721  11.382 -0.2254  0.1390 -0.2854
19952W        W36136  15.660   9.548   0.627  0.0861  0.1437 -0.0706
19953W        W36137   2.936   6.297  16.258  0.1711  0.3891 -0.3693
19954W        W36138   5.152  17.592  16.606  0.0148 -0.0075 -0.0874
19955W        W36139  16.879  13.237  12.456  0.0128  0.0470  0.0299
19956W        W36140  11.611   3.221  12.170 -0.1634  0.1666 -0.0379
19957W        W36141   4.584  15.579  16.270  0.2234 -0.0527 -0.1114
19958W        W36142   4.633  11.799  13.687  0.0858  0.2964  0.0509
19959W        W36143   2.113   5.788  16.051 -0.1152  0.1797 -0.1298
19960W        W36144  12.197  15.217   4.806  0.0655  0.3059  0.3255
19961W        W36145  12.602   0.272  14.634  0.0564 -0.0776 -0.0761
19962W        W36146   0.098   7.319  13.293 -0.0714 -0.1209 -0.0143
19963W        W36147   7.484   6.091  11.879 -0.5629  0.1240  0.1856
19964W        W36148   7.314  15.248   5.069  0.0555  0.2319 -0.1887
19965W        W36149   0.952  12.937  15.351 -0.4604 -0.1611  0.0667
19966W        W36150   8.827  11.654   5.228  0.0013  0.2396 -0.0830
19967W        W36151  10.824   7.758  14.800 -0.1848  0.0178  0.0151
19968W        W36152  16.182  17.437  13.534  0.0230 -0.1334 -0.2804
19969W        W36153  10.326   4.427   5.684  0.0717 -0.0782 -0.1005
19970W        W36154  10.922  13.705  16.679 -0.2064 -0.0572  0.1086
19971W        W36155  14.071   7.141  16.534 -0.1042  0.1468  0.1528
19972W        W36156   7.243  12.423   1.271 -0.0766 -0.1555  0.1186
19973W        W36157  15.364   2.620  16.544 -0.1933  0.1099 -0.2916
19974W        W36158  15.985  17.412   0.211  0.0932  0.1034  0.0426
19975W        W36159   4.715  17.848  11.344  0.1096  0.0625 -0.3879
19976W        W36160   4.992  14.905  14.668  0.2153  0.0330  0.2887
19977W        W36161   4.370   7.458  12.646  0.3168 -0.2013 -0.2227
19978W        W36162  10.552   2.679  16.258 -0.0059  0.2234  0.0877
19979W        W36163   2.007  11.209  13.591 -0.2660 -0.0580 -0.1947
19980W        W36164   9.493   3.775  14.357  0.0145 -0.2518  0.0866
19981W        W36165  15.431  16.167   0.920 -0.0116 -0.0204  0.0300
19982W        W36166   2.605   8.303  13.174  0.0989  0.2838 -0.1222
19983W        W36167  17.034  10.534   5.198  0.0636 -0.0780 -0.0020
19984W        W36168  11.293  10.508   0.575 -0.2142  0.0312 -0.1798
19985W        W36169   1.277   7.751   5.651  0.0248  0.3590  0.1892
19986W        W36170  12.574   9.167   0.188 -0.3194  0.2663  0.0461
19987W        W36171   5.498  14.853   5.067  0.3360  0.0333  0.2728
19988W        W36172   4.726  17.202   3.137  0.0586 -0.0196  0.0070
19989W        W36173  10.463  10.218  12.627 -0.0580  0.0413  0.1168
19990W        W36174   7.422   0.700  13.783  0.0568  0.1965 -0.0749
19991W        W36175   3.756   3.987  15.393 -0.2671 -0.3785 -0.2110
19992W        W36176   2.900  13.226   5.167  0.2080 -0.0494  0.1888
19993W        W36177   3.174   0.763   0.367  0.5669 -0.2105  0.2613
19994W        W36178  12.229   2.864   4.224 -0.2038  0.1368 -0.2927
19995W        W36179  14.378  12.702   3.266  0.0141 -0.1590 -0.1405
19996W        W36180   2.577   4.050  12.255 -0.1518  0.2744 -0.0013
19997W        W36181   1.755  13.447  14.324  0.1734 -0.1844  0.2610
19998W        W36182  16.697   3.192   3.101  0.1037  0.3271 -0.2823
19999W        W36183  10.149   4.193   3.463 -0.3880  0.0422  0.0410
20000W        W36184   4.403  15.058  11.665 -0.1193  0.2651  0.0572
20001W        W36185   8.486   1.129  16.876 -0.0207  0.0841 -0.0255
20002W        W36186   7.054   0.687   1.112 -0.0003 -0.1759  0.0661
20003W        W36187   2.037   8.640  13.782  0.2271  0.0464 -0.0792
20004W        W36188   7.571  11.534  13.464  0.1265 -0.1580 -0.0248
20005W        W36189  16.745  14.910   5.516  0.0557 -0.0684  0.0305
20006W        W36190  11.059   8.357  12.311  0.1630 -0.0350 -0.4370
20007W        W36191  16.856   3.524   3.453  0.0601  0.0469  0.1675
20008W        W36192   8.852   1.041  16.261  0.2046  0.1590 -0.0572
20009W        W36193  12.688   1.600   1.886 -0.0734  0.4434  0.1580
20010W        W36194  15.322   6.591   2.377  0.0403 -0.0059 -0.0070
20011W        W36195   5.814  11.053  13.298  0.1323  0.2732  0.0030
20012W        W36196   4.908  13.012   0.283 -0.0126 -0.3012 -0.0691
20013W        W36197   2.822   8.621  14.676  0.2924 -0.1681 -0.0726
20014W        W36198   3.616  10.434  12.642 -0.2654 -0.1389  0.0363
20015W        W36199   3.772   0.735   2.552  0.2338 -0.0529 -0.1881
20016W        W36200   6.451   1.077   3.736  0.0333  0.1921 -0.0331
20017W        W36201   0.108   4.478   0.487  0.0090 -0.0668  0.2018
20018W        W36202  10.744   8.340  16.301  0.0574  0.0744  0.0560
20019W        W36203  16.917  10.141   4.827  0.0404 -0.1071  0.4089
20020W        W36204  13.558   5.209  12.132 -0.0779  0.0640 -0.0289
20021W        W36205  16.765  17.050  15.394 -0.1219 -0.1412  0.1112
20022W        W36206   2.954  14.637  12.069  0.0602 -0.1106 -0.0028
20023W        W36207  12.353   9.071   3.989 -0.5969  0.0884 -0.1272
20024W        W36208   0.603   8.529   2.250  0.1023  0.1291 -0.0950
20025W        W36209   2.689  13.871  11.330  0.2243 -0.1471  0.0706
20026W        W36210   5.991   9.204   4.958 -0.0823 -0.3019  0.0327
20027W        W36211   9.044   4.782   1.624  0.1364  0.3501  0.0039
20028W        W36212  17.689  15.280   1.969 -0.0362 -0.3115 -0.0342
20029W        W36213   9.787   8.784   6.476  0.0218  0.2919  0.3685
20030W        W36214   2.822  16.510   3.139  0.1705  0.1749  0.0265
20031W        W36215   1.455  15.200   0.880  0.3137 -0.0106 -0.0116
20032W        W36216   7.067   0.871  15.669 -0.0069  0.2429  0.1059
20033W        W36217   9.355  12.736   0.007 -0.0302  0.1018 -0.1384
20034W        W36218   0.651   2.836   0.091 -0.0237 -0.0954 -0.2140
20035W        W36219  12.111  10.544  15.263  0.0898 -0.3733  0.0331
20036W        W36220   7.321   5.621   5.803  0.0997  0.3443  0.0116
20037W        W36221   8.659   1.657  14.693  0.1765 -0.0790  0.1828
20038W        W36222   7.740  12.094   2.085 -0.3815 -0.3322 -0.2969
20039W        W36223   5.432   6.873  12.259 -0.3339 -0.0869  0.0216
20040W        W36224   1.031  11.124   5.009 -0.1255  0.2524  0.1191
20041W        W36225   0.424   6.917   1.012  0.0205  0.0382  0.0328
20042W        W36226   9.263   8.738  13.509 -0.1117 -0.0911 -0.1229
20043W        W36227   5.947  16.228  16.623  0.1225  0.1575 -0.2688
20044W        W36228  12.809   5.369  16.138  0.1527  0.1530 -0.1739
20045W        W36229  13.488  16.549   0.322 -0.0343 -0.0473 -0.1746
20046W        W36230  14.467  16.463  13.174  0.0555  0.2015  0.1886
20047W        W36231   9.062  13.986  11.398 -0.1612  0.0808 -0.1575
20048W        W36232  17.635  16.747  12.308  0.0001 -0.0991 -0.0399
20049W        W36233  14.905  16.543  15.219  0.0848  0.0791  0.2242
20050W        W36234  12.354   0.677  16.210 -0.1112 -0.1787  0.1255
20051W        W36235   4.127   2.010   3.919 -0.2801  0.0543 -0.0105
20052W        W36236  10.562  16.511  13.503 -0.0424  0.3869 -0.1485
20053W        W36237  12.360   2.211   2.577  0.1448 -0.0793 -0.0241
20054W        W36238   7.457   2.859  13.798  0.0124 -0.3785  0.1154
20055W        W36239   6.393   2.795  12.687  0.0970 -0.1177 -0.0732
20056W        W36240   7.776  13.765   2.679  0.0330 -0.1715  0.1456
20057W        W36241  12.574   6.054  12.957  0.1010  0.0021  0.0708
20058W        W36242   5.216   2.292   4.216  0.0134 -0.3703  0.1606
20059W        W36243   9.736   0.990  16.170 -0.2395  0.1065 -0.0407
20060W        W36244   0.679  14.960  15.273 -0.3557  0.0203 -0.1437
20061W        W36245   1.189  14.105  15.451 -0.3520  0.2568 -0.0806
20062W        W36246  17.860   7.984   3.227  0.3304  0.2940 -0.0905
20063W        W36247   1.083   0.067  13.317 -0.1834 -0.0950 -0.0554
20064W        W36248  14.907  14.858   2.917  0.0700  0.5641  0.0445
20065W        W36249  12.873  14.651   4.826 -0.0833  0.0633  0.2950
20066W        W36250   6.872   6.335   2.490  0.2939 -0.0399  0.1867
20067W        W36251   9.572   9.949   3.353  0.1316  0.0603 -0.1338
20068W        W36252   9.794  10.703  15.075  0.1140  0.2246 -0.0181
20069W        W36253  14.318   9.950   0.058 -0.1287 -0.4330  0.0154
20070W        W36254  17.124  15.003   1.040  0.3022  0.0952 -0.1301
20071W        W36255   8.412  16.125   1.782 -0.1543 -0.2894 -0.3693
20072W        W36256  12.825   3.212  16.127 -0.1221  0.4519 -0.0348
20073W        W36257  12.550   4.667   0.361  0.2257 -0.1592  0.0481
20074W        W36258  17.354   1.804   1.165  0.2376  0.0315  0.1915
20075W        W36259  16.698  15.622  15.454  0.1976 -0.0047 -0.1181
20076W        W36260   3.482   8.414   2.561  0.0779  0.1162  0.1034
20077W        W36261   2.759  13.744   1.968 -0.1695 -0.0824 -0.0512
20078W        W36262  12.210   4.202   1.977  0.1939 -0.1122 -0.1425
20079W        W36263   3.347   6.215   0.255  0.2592 -0.0148 -0.1020
20080W        W36264  15.541   6.146  13.736  0.1769  0.0467 -0.1630
20081W        W36265  10.999  11.073   6.080  0.1386  0.2078 -0.1048
20082W        W36266   9.737  11.881  16.543 -0.0400 -0.0757 -0.0902
20083W        W36267   4.494   3.115  16.316  0.0831 -0.2861  0.2479
20084W        W36268   2.236  15.073  15.094  0.2145  0.0810 -0.0795
20085W        W36269  14.879   1.268  12.992 -0.3372  0.0130 -0.0592
20086W        W36270  17.092  14.746   2.597 -0.1018 -0.0476 -0.0054
20087W        W36271   5.400  11.757   5.343  0.2542  0.0319  0.0403
20088W        W36272  10.357   7.246   4.225 -0.1706 -0.0390 -0.1444
20089W        W36273   8.083  12.818  16.388 -0.2380 -0.0105  0.0783
20090W        W36274   3.421  12.020   2.540  0.2844  0.1568 -0.1076
20091W        W36275  12.877  17.024  13.998 -0.0709  0.0683 -0.1177
20092W        W36276   9.665  17.132   5.325  0.2990  0.1466 -0.2501
20093W        W36277   2.493   0.486   1.755  0.0849  0.4307  0.0723
20094W        W36278   1.582   2.590   3.852  0.3455 -0.1161  0.1036
20095W        W36279   4.509  12.094  14.096  0.0801  0.2548 -0.0632
20096W        W36280  13.603  15.543  13.007  0.1941 -0.3891 -0.0149
20097W        W36281  11.282   4.952  15.146  0.1055 -0.2055 -0.0162
20098W        W36282   3.856  17.826   0.027 -0.2981 -0.0103 -0.1310
20099W        W36283   3.267  17.768   0.919  0.1116 -0.0092  0.0723
20100W        W36284  15.403  12.448   0.653 -0.0732  0.0093 -0.4354
20101W        W36285  12.510   3.787  16.297 -0.1105  0.3294  0.1881
20102W        W36286   6.795  16.623  14.631 -0.2895 -0.1845 -0.1797
20103W        W36287  12.753  17.211  13.249 -0.2215 -0.0839  0.2134
20104W        W36288  13.865   7.527  14.688  0.0954  0.0136 -0.0417
20105W        W36289   6.876   0.652   2.824 -0.1040 -0.1748 -0.1484
20106W        W36290  13.508   7.201  13.030  0.1061 -0.2311 -0.1518
20107W        W36291   3.493   5.483   1.596  0.2123 -0.2653 -0.0380
20108W        W36292   7.475   7.857   2.392  0.2372  0.0219  0.3784
20109W        W36293   5.320   8.015   0.264 -0.1214  0.0284  0.2298
20110W        W36294  15.098   9.365  16.649 -0.0337  0.2376  0.1344
20111W        W36295   3.737   8.427   0.460  0.1005 -0.0751 -0.4083
20112W        W36296   6.672  11.160  16.671  0.2576 -0.0731  0.1718
20113W        W36297  12.947   8.881  12.306  0.3911 -0.2945 -0.1031
20114W        W36298   0.219   7.706  16.733 -0.1405 -0.0504  0.4351
20115W        W36299   2.230   8.152   3.454  0.3046 -0.0573  0.0894
20116W        W36300   5.123   5.270  16.897 -0.0409  0.1919 -0.4586
20117W        W36301  16.512  16.804  13.375  0.1690 -0.0627 -0.3079
20118W        W36302  14.070   4.415  15.496  0.2913 -0.2461  0.1443
20119W        W36303  17.525   2.492  13.135  0.0931 -0.0803  0.2352
20120W        W36304   3.402   0.020   3.771  0.3481 -0.1251  0.3670
20121W        W36305   5.765   8.137   5.916  0.0718 -0.0365  0.0780
20122W        W36306   5.877   8.137   4.218 -0.0758 -0.3089  0.1567
20123W        W36307   0.579  17.265  13.483  0.2926  0.0594 -0.0019
20124W        W36308  14.617  10.976   0.135 -0.0684  0.0248  0.2020
20125W        W36309   3.805   7.200  14.174  0.3827 -0.3752 -0.2961
20126W        W36310   9.965  10.056   4.203  0.2552  0.1296  0.0492
20127W        W36311   3.986  12.480  14.960 -0.0463  0.0501 -0.1544
20128W        W36312   7.241   7.502   0.683 -0.0938 -0.0401  0.1625
20129W        W36313  10.786  12.046  15.892 -0.2002  0.1952 -0.1159
20130W        W36314   4.595  12.078  14.666 -0.0137  0.0306  0.0364
20131W        W36315   1.676   4.624   4.907  0.3333  0.0606 -0.0059
20132W        W36316   8.105   2.855  16.233  0.0237  0.0921  0.0779
20133W        W36317  11.309  14.324  11.292 -0.3036 -0.0057 -0.1531
20134W        W36318   7.021   8.535  16.112  0.1044  0.0612 -0.2372
20135W        W36319  15.865  10.918   3.280 -0.1318 -0.1552 -0.0626
20136W        W36320  14.043   4.972  11.428  0.0038  0.2687  0.0196
20137W        W36321   6.277   7.570   4.005 -0.0086 -0.0969  0.1502
20138W        W36322  17.329   7.297  15.010  0.0546  0.0328 -0.1510
20139W        W36323  16.658   3.663  14.218  0.0793  0.2478 -0.2711
20140W        W36324  12.447   2.455   3.004  0.0123 -0.1975 -0.0816
20141W        W36325  14.519   8.111  12.583 -0.1772  0.0852  0.0632
20142W        W36326   1.912   1.535   2.513 -0.0323  0.0090  0.0999
20143W        W36327   7.323   8.190   3.888  0.0397  0.0655 -0.0839
20144W        W36328   5.516   7.502   0.339  0.2120  0.1361 -0.0650
20145W        W36329  17.282  17.128  12.317 -0.0596 -0.4873 -0.0120
20146W        W36330   5.140   5.536   5.509 -0.0322  0.1383  0.1587
20147W        W36331  14.055  12.283  13.781  0.0382  0.0465 -0.1947
20148W        W36332   5.591   5.819   0.668 -0.2408  0.2740  0.1156
20149W        W36333  13.626  11.362  12.211  0.1196  0.0816 -0.2990
20150W        W36334   4.709  13.524   5.347  0.4229 -0.1128  0.0716
20151W        W36335   4.603  11.139   4.512  0.0860 -0.1608  0.0687
20152W        W36336   1.534  14.924  11.352  0.0333  0.2581 -0.0885
20153W        W36337  17.695   2.720   2.295  0.3112 -0.2659 -0.1908
20154W        W36338   7.180   3.654   1.256  0.0525 -0.4474 -0.1565
20155W        W36339   3.455  14.362   0.107  0.2849  0.1550  0.0094
20156W        W36340  14.600   8.462   3.968 -0.2474 -0.2622 -0.0150
20157W        W36341   5.727   3.840   1.732  0.4574 -0.0488 -0.0533
20158W        W36342  11.752   8.957   1.071 -0.0039 -0.0672  0.1806
20159W        W36343   5.609  14.324  16.356 -0.0190  0.0509  0.1991
20160W        W36344   5.628  15.296   4.518 -0.0900 -0.1141  0.0235
20161W        W36345   3.388  10.416   2.249 -0.0433 -0.0477 -0.0413
20162W        W36346   8.933  12.028   2.845 -0.1004  0.0168  0.3011
20163W        W36347   1.156   3.966  14.181 -0.3711 -0.1285  0.3152
20164W        W36348   4.959   0.886   4.050  0.3754  0.3562 -0.0969
20165W        W36349  12.110   8.066   3.640 -0.1106  0.2615 -0.1829
20166W        W36350  11.518   6.190  11.854  0.0625 -0.0409  0.0356
20167W        W36351  10.862   4.647   4.367  0.0839 -0.3352 -0.0907
20168W        W36352  11.036   6.944  12.605  0.1993 -0.0314  0.4731
20169W        W36353   6.683  13.913  15.619 -0.0922  0.0576 -0.0940
20170W        W36354  10.941   1.314  14.600  0.1686 -0.0326 -0.0419
20171W        W36355   5.863   2.667   0.316  0.1292 -0.2985 -0.1098
20172W        W36356   4.732   8.671  13.322  0.3553  0.1757  0.0701
20173W        W36357   0.512  12.070   2.266  0.1492 -0.1698  0.0125
20174W        W36358  17.501  10.046   3.337  0.0564  0.2677  0.0474
20175W        W36359   8.986  17.331  15.646  0.0926 -0.2561 -0.1147
20176W        W36360   5.833  17.174  11.747  0.0571 -0.4037 -0.0667
20177W        W36361   5.625  17.693   5.412 -0.1510 -0.0360 -0.1327
20178W        W36362  13.504  10.541   2.727 -0.0314 -0.0152 -0.1861
20179W        W36363  11.449  10.189   0.199 -0.0861 -0.1687  0.1684
20180W        W36364   0.112   2.457   0.207  0.2433  0.4158  0.0679
20181W        W36365  10.198   3.915  14.668 -0.1536 -0.1538 -0.0088
20182W        W36366  10.380   1.985  15.582 -0.1308 -0.0998 -0.2246
20183W        W36367   2.624  15.345  12.514 -0.0208  0.0576  0.0687
20184W        W36368  15.410  14.490   4.566 -0.0571  0.1496 -0.0026
20185W        W36369   1.690  14.373  14.558 -0.0681  0.0016  0.0346
20186W        W36370  16.186   3.168  12.039  0.1381  0.0375 -0.2538
20187W        W36371  16.251  10.574  14.107 -0.0621 -0.0233  0.1897
20188W        W36372   8.779   7.408  15.663  0.2295  0.0498 -0.2757
20189W        W36373   8.002  11.312   3.056  0.0271  0.1705  0.2818
20190W        W36374   7.456  14.693   2.260 -0.3205 -0.0114  0.2939
20191W        W36375  15.443  16.333  14.051 -0.2336 -0.0116 -0.1010
20192W        W36376   0.351   6.081   4.034  0.2042 -0.3170  0.1947
20193W        W36377  10.787   1.278   1.607 -0.2725  0.1906  0.3453
20194W        W36378  16.461   9.540   4.107 -0.0041  0.2508  0.4407
20195W        W36379   7.622   5.190   4.516  0.1266 -0.0170 -0.1008
20196W        W36380   2.955  14.940  16.480 -0.0961 -0.2342  0.0183
20197W        W36381   0.711   1.751  15.721  0.0008 -0.1328 -0.0780
20198W        W36382   7.382   6.543   3.260  0.1357  0.2019 -0.0709
20199W        W36383   7.657   2.904  14.272  0.1943  0.1227  0.1146
20200W        W36384   9.507   6.853   4.763  0.2775  0.0617  0.2123
20201W        W36385   5.024  17.674  11.816  0.3196 -0.0024  0.1114
20202W        W36386  16.470   5.440   5.606  0.0586 -0.2469  0.1268
20203W        W36387  16.968  17.648   2.243 -0.3451 -0.0772  0.1197
20204W        W36388  12.684  10.653  13.566 -0.1066 -0.2607  0.0693
20205W        W36389  10.431   1.834  13.459 -0.0661 -0.0117  0.0765
20206W        W36390   7.528  16.807  11.579  0.3446 -0.3148 -0.3000
20207W        W36391  17.462   9.964  13.941 -0.4564 -0.3233  0.0661
20208W        W36392   9.570  13.810  13.888  0.0296  0.0532 -0.2203
20209W        W36393   2.429  17.240   0.391  0.1508 -0.0533 -0.0696
20210W        W36394  16.224   6.609   1.398 -0.0863 -0.3101  0.0789
20211W        W36395   1.994   6.431  16.825 -0.0422 -0.1769  0.2501
20212W        W36396  15.922  16.537   0.313 -0.1176  0.0429 -0.2222
20213W        W36397   0.941   7.830   3.397  0.1234 -0.1211  0.2409
20214W        W36398   4.842  11.084   2.237 -0.0774  0.3623 -0.1553
20215W        W36399  10.163   1.401  13.704 -0.1141  0.1183 -0.0570
20216W        W36400  11.426   4.948  13.135 -0.1586  0.0460  0.2240
20217W        W36401  10.498  13.388  13.529 -0.0457 -0.2390 -0.3840
20218W        W36402  16.599  14.204  14.086 -0.1543  0.0083  0.1064
20219W        W36403   9.959   3.972   2.717 -0.2042  0.2315  0.1732
20220W        W36404   5.928   5.528   0.382  0.1277 -0.0328  0.1550
20221W        W36405   0.305  14.886  14.821 -0.1805  0.1112  0.1908
20222W        W36406   5.264  16.830   1.240  0.1851 -0.1474 -0.1374
20223W        W36407   5.156   7.470   5.405 -0.0156  0.1086  0.0970
20224W        W36408  14.149   3.370  15.842 -0.0496 -0.3214 -0.0766
20225W        W36409  15.022  12.395   3.925  0.0348 -0.2104  0.0788
20226W        W36410   8.327   4.147   2.027 -0.2818  0.0610  0.0894
20227W        W36411   7.352   0.207   1.067  0.2954 -0.0619 -0.0470
20228W        W36412   7.294  11.878   4.127  0.1241  0.1689 -0.0256
20229W        W36413   4.186   4.384   5.881  0.1184  0.0555 -0.1839
20230W        W36414   2.592   1.995   0.973  0.1254  0.0885  0.2730
20231W        W36415   4.510  11.046  11.787  0.2524  0.2102 -0.1641
20232W        W36416  12.537   8.934   5.008 -0.0055  0.2751 -0.0523
20233W        W36417  12.579   7.368  12.927 -0.1346 -0.0962 -0.3127
20234W        W36418   4.695  13.440   2.812  0.5009 -0.1344  0.1984
20235W        W36419   6.662   0.640   3.907 -0.1193 -0.0874  0.3041
20236W        W36420  14.118   4.743   3.640  0.0884  0.1060  0.1918
20237W        W36421  10.029   2.239   0.505  0.3685  0.1503 -0.0837
20238W        W36422   0.042  15.460   2.352  0.2525  0.0597 -0.2405
20239W        W36423   9.759   5.631   6.305  0.1791  0.2587  0.3397
20240W        W36424   5.823  15.382  12.021  0.1903 -0.0068 -0.0100
20241W        W36425  13.177  17.315   4.592 -0.0218  0.3052 -0.1204
20242W        W36426   0.852   7.297  13.729 -0.0567  0.0702  0.1238
20243W        W36427  17.459   6.866  14.181  0.3940 -0.0084  0.0111
20244W        W36428   5.332  11.106  16.787 -0.0115 -0.3230  0.3733
20245W        W36429  11.191   9.334   0.433 -0.2470  0.0336  0.0093
20246W        W36430   9.596   0.715   0.928  0.1501 -0.0103 -0.0824
20247W        W36431  14.599   4.093   4.572 -0.0496  0.1604 -0.0967
20248W        W36432   9.458   8.650  11.260  0.1474  0.2206  0.0260
20249W        W36433   3.667  12.853  15.825 -0.3532 -0.1377 -0.2064
20250W        W36434   2.156   2.603   0.066 -0.1868  0.0487 -0.0573
20251W        W36435  12.233  10.894  15.596 -0.1824  0.0859  0.0767
20252W        W36436   5.276  13.709  15.078 -0.2275  0.1747 -0.1973
20253W        W36437   7.456  17.842  15.721  0.1560 -0.1931  0.0814
20254W        W36438  11.132  16.508  16.181 -0.3351  0.1717 -0.0276
20255W        W36439   1.437   4.871  15.946 -0.3778  0.2828  0.0828
20256W        W36440   1.177   8.676  11.523  0.1483  0.1700  0.0352
20257W        W36441   1.878  10.928   1.157  0.1473 -0.1201 -0.0057
20258W        W36442  15.444  11.482  15.391 -0.2479  0.1327 -0.0843
20259W        W36443   2.708  16.747   5.143  0.3022 -0.1130  0.0017
20260W        W36444   2.667  11.190  11.745 -0.2264 -0.2687  0.1548
20261W        W36445  10.064  13.635   2.947  0.3550  0.0087  0.0211
20262W        W36446   5.294  10.877  13.504 -0.2291 -0.0900 -0.1262
20263W        W36447  14.707   1.351   1.829  0.2562 -0.0719  0.0934
20264W        W36448   7.306  16.544   0.540  0.1787  0.2702 -0.2966
20265W        W36449   8.434  17.702   2.610 -0.4151 -0.1822 -0.0398
20266W        W36450  11.943   9.625   3.505 -0.1773  0.0414  0.2119
20267W        W36451   9.628   6.253  13.160  0.0939 -0.1261  0.0097
20268W        W36452   2.657   2.412  16.337 -0.0336  0.0639  0.1132
20269W        W36453   4.970  11.578  13.985 -0.0056 -0.1354 -0.0667
20270W        W36454   6.461   0.086  14.275 -0.1792  0.1067 -0.1039
20271W        W36455  16.315  10.646   3.361  0.1685 -0.0394 -0.0709
20272W        W36456   6.341   6.724   5.540 -0.0514  0.3869 -0.1787
20273W        W36457  16.390   9.912   5.791 -0.0656  0.2579  0.1058
20274W        W36458  17.544   5.619  13.256  0.0997  0.0208 -0.0030
20275W        W36459   8.045   2.302  16.314  0.3433  0.2274  0.0669
20276W        W36460  10.571   0.339   1.058  0.1603  0.0207 -0.2363
20277W        W36461  10.166   7.735  16.160  0.0060  0.0720 -0.0301
20278W        W36462   0.089  17.532  15.873  0.0542 -0.0902 -0.2028
20279W        W36463   8.215   8.250  14.680  0.1648 -0.1759  0.0230
20280W        W36464   1.336  12.939   4.943 -0.1515 -0.0104  0.2057
20281W        W36465  15.225  16.892   4.275 -0.2003 -0.1119 -0.2855
20282W        W36466  13.012   9.768  14.684 -0.0618  0.1451  0.1499
20283W        W36467  10.218  16.080  12.803 -0.0826  0.0606 -0.1380
20284W        W36468   2.225   1.251   6.277 -0.1417 -0.1914  0.1634
20285W        W36469   1.393   9.032  12.513 -0.1096 -0.0178 -0.1569
20286W        W36470   8.771  11.244   4.373 -0.2569  0.1568  0.0287
20287W        W36471   5.583  12.744   2.364  0.0949 -0.0570 -0.0330
20288W        W36472   3.632  11.973   0.342  0.0162  0.2299 -0.0248
20289W        W36473   2.679   3.030   5.051 -0.1834 -0.1710  0.2402
20290W        W36474   7.537  10.686   2.575 -0.1780  0.0920 -0.3299
20291W        W36475   6.598  11.924   0.777 -0.0229 -0.3035  0.0480
20292W        W36476   1.705  14.466   4.317  0.1103  0.0481 -0.6383
20293W        W36477   2.639   3.849  12.806 -0.0929 -0.3152  0.3457
20294W        W36478   1.346  14.677   3.982 -0.2213  0.1458 -0.1009
20295W        W36479   8.405  11.034   5.269  0.4840 -0.0467 -0.4301
20296W        W36480  16.316  10.262   2.993  0.0440 -0.0704 -0.2563
20297W        W36481   8.033  15.550  11.008 -0.0470 -0.0550  0.0380
20298W        W36482   0.923   1.709   2.639 -0.0164  0.0432  0.1236
20299W        W36483   7.578  13.720   0.909  0.2586  0.2790  0.2910
20300W        W36484  12.829  16.808  12.404  0.0367 -0.1805  0.2499
20301W        W36485  17.862   1.126  13.284  0.2408 -0.0233 -0.0179
20302W        W36486   2.745  14.777   3.230 -0.1486  0.0849  0.5049
20303W        W36487   3.033  14.871   0.218 -0.1823 -0.0603 -0.1541
20304W        W36488  12.748   0.710   5.044  0.2172 -0.2320  0.1429
20305W        W36489  17.224   7.932  16.557  0.1701  0.0296 -0.0135
20306W        W36490   1.482   6.155  16.841 -0.4271  0.0745  0.1779
20307W        W36491   7.304  15.764   4.990 -0.0291  0.0107 -0.0621
20308W        W36492   7.589   1.802  13.082  0.1604  0.1341 -0.0473
20309W        W36493  12.898   1.226  14.484 -0.3925  0.0359 -0.0565
20310W        W36494  10.603   7.356  13.765  0.0328 -0.2916 -0.1649
20311W        W36495  14.182   8.241   3.822 -0.0846 -0.0829  0.0845
20312W        W36496  14.763   3.010   2.492  0.2180  0.1048  0.1568
20313W        W36497  15.017   1.993   3.700 -0.1927  0.0588 -0.0592
20314W        W36498  16.933  14.663  14.161 -0.2317  0.1105 -0.0626
20315W        W36499  14.740   3.974  11.690  0.1624 -0.3049  0.1032
20316W        W36500   0.470   9.321   3.954  0.0807  0.0678 -0.1433
20317W        W36501  11.252  11.918  12.422 -0.0527 -0.0278  0.1245
20318W        W36502   3.259   1.480  12.252 -0.2856 -0.2200 -0.1552
20319W        W36503  14.009   9.280  12.008  0.0456 -0.0297  0.1692
20320W        W36504  10.864  11.601  14.301  0.0048 -0.1220 -0.0168
20321W        W36505  10.364   0.782  13.584 -0.1655  0.1673  0.0071
20322W        W36506   5.947  10.165   4.028  0.1865 -0.0810  0.3477
20323W        W36507   0.284   2.957   2.268 -0.0354 -0.0088 -0.1782
20324W        W36508   0.140  12.816   4.932  0.1421  0.2788  0.0448
20325W        W36509  17.744  13.068  13.988 -0.3780  0.1800  0.1098
20326W        W36510   2.153   3.187  12.715  0.2199 -0.0088 -0.2229
20327W        W36511   4.745   1.435   5.147  0.1074  0.0873 -0.1528
20328W        W36512   7.114  12.420  16.762  0.1114  0.1784 -0.0086
20329W        W36513   5.614   3.804   0.711 -0.1616  0.3268  0.0824
20330W        W36514   5.688  17.416   2.343 -0.1027 -0.1583  0.2339
20331W        W36515  12.050   2.562  12.733  0.2710 -0.1886  0.1926
20332W        W36516   8.456   0.896   5.062  0.2653  0.2327  0.0617
20333W        W36517   0.305  17.293   5.029 -0.1908 -0.0812 -0.2769
20334W        W36518   8.461   5.427  15.372  0.1371 -0.0358 -0.0248
20335W        W36519   1.682   9.374  13.069  0.0518  0.0837  0.0613
20336W        W36520  14.127  14.918  13.044  0.0266  0.0240  0.0124
20337W        W36521   4.693   4.201   0.228 -0.2941 -0.2417 -0.0607
20338W        W36522   7.891   4.186   1.643  0.0779  0.2000  0.2941
20339W        W36523   6.028   0.521   0.497 -0.0372 -0.1074 -0.0640
20340W        W36524  13.584   9.532   1.995  0.0641  0.0501  0.0155
20341W        W36525   4.010  10.863  16.591  0.0590 -0.0488  0.5727
20342W        W36526  10.878  16.835   1.952  0.2167 -0.0179 -0.0694
20343W        W36527  11.441   9.644  11.724 -0.0031 -0.3239  0.0372
20344W        W36528   6.776   7.572   4.404  0.0269  0.0533 -0.1027
20345W        W36529   5.698   0.111   2.951 -0.0120 -0.1094 -0.0721
20346W        W36530  10.791  17.656  16.937  0.1287  0.0497 -0.0157
20347W        W36531  10.260  11.686  16.626 -0.0888  0.1281  0.0869
20348W        W36532   6.423  16.643  12.251  0.1773 -0.1425  0.0105
20349W        W36533   3.798   6.390   5.451 -0.0167 -0.0523  0.0771
20350W        W36534  14.566  17.871   1.343  0.0571 -0.0207 -0.0202
20351W        W36535  17.099  11.956  14.568  0.0540 -0.1018  0.0696
20352W        W36536  12.214   1.482  11.418  0.2023  0.1953 -0.1057
20353W        W36537  15.202   1.060   4.502  0.0386  0.1180  0.2132
20354W        W36538  13.443   6.047   2.591 -0.2420  0.1514  0.1364
20355W        W36539   6.027  17.768   3.825  0.1044  0.1725  0.4286
20356W        W36540  15.075  13.735  14.776 -0.2938 -0.0328  0.1316
20357W        W36541   0.278   8.507   5.065 -0.1650 -0.3290  0.0686
20358W        W36542  17.189   1.495   4.665  0.1789 -0.0701  0.1691
20359W        W36543  11.053   3.191   0.100  0.2930 -0.0009 -0.0721
20360W        W36544   0.392  10.280   3.899 -0.2837  0.1988 -0.1750
20361W        W36545  14.179   1.896  15.347  0.1447 -0.1967 -0.2015
20362W        W36546   7.305  14.801   4.630 -0.1596 -0.2263 -0.2512
20363W        W36547  17.834  10.833  15.260  0.2131 -0.0651  0.1135
20364W        W36548  14.286   0.956   0.486 -0.0071 -0.0103 -0.3202
20365W        W36549  14.038   9.347   1.788 -0.1640 -0.2275 -0.1084
20366W        W36550   5.371   7.049   1.305 -0.3101 -0.1274 -0.1493
20367W        W36551   1.590   0.450  15.613 -0.1942 -0.0589 -0.0398
20368W        W36552  12.060   7.652   2.662  0.0834 -0.1965  0.0237
20369W        W36553   6.741  15.204  13.389  0.1850  0.1606 -0.2484
20370W        W36554  16.726  13.294   1.055  0.2518 -0.1010  0.0595
20371W        W36555   1.555  13.720   2.447  0.3106 -0.0044 -0.1267
20372W        W36556   0.952  16.896  16.520 -0.1236  0.0751  0.1962
20373W        W36557   1.480  10.296   5.085  0.0794  0.2171  0.0058
20374W        W36558  10.708   9.925   2.649  0.1036  0.0570  0.2585
20375W        W36559   3.799  13.529   4.055 -0.1363  0.0245  0.1493
20376W        W36560  15.679   0.834  12.692  0.1710 -0.0039 -0.3831
20377W        W36561  17.596  13.408  14.320 -0.2415 -0.0089 -0.2474
20378W        W36562  16.975   0.109   5.685  0.0992  0.1025  0.1215
20379W        W36563  17.066   0.718  16.763  0.1635 -0.1660  0.0533
20380W        W36564  11.774  10.647   4.915  0.2537  0.0378 -0.1099
20381W        W36565   3.085   5.595   3.838  0.0177  0.1014 -0.2305
20382W        W36566   8.214   7.325  15.474 -0.1266  0.0459  0.0618
20383W        W36567   0.182   6.865  15.763  0.2411  0.0978 -0.1567
20384W        W36568   6.105   9.559  16.213  0.2114 -0.0449  0.0888
20385W        W36569  12.738  15.573  16.719  0.1735 -0.5586  0.2371
20386W        W36570   6.947  15.025  14.892  0.0307 -0.2258 -0.1093
20387W        W36571   2.608   8.034   3.029 -0.0040  0.0078  0.1203
20388W        W36572   3.259  14.645   2.164  0.1678 -0.0043 -0.1217
20389W        W36573  10.858   9.126   0.053 -0.0879  0.0048 -0.1059
20390W        W36574   7.929   6.762  16.545 -0.1705  0.2779 -0.0730
20391W        W36575  12.105   2.232  11.849 -0.0894 -0.3876  0.2571
20392W        W36576   4.664  12.593  13.014  0.0458 -0.0505 -0.3384
20393W        W36577  12.092   6.983  14.056 -0.0221  0.0050  0.3774
20394W        W36578   6.900  16.510  13.023 -0.1804  0.0434  0.1800
20395W        W36579  17.623  16.476  15.833 -0.3377 -0.0717 -0.3450
20396W        W36580   8.489   8.525   5.414 -0.0304 -0.2485  0.3911
20397W        W36581   3.131   7.526   5.066  0.0111 -0.2224  0.0383
20398W        W36582  12.199   7.870  12.122  0.3268  0.1266 -0.0407
20399W        W36583  14.140  11.913   3.664  0.0410 -0.0343  0.1790
20400W        W36584  11.012   9.986   3.729  0.4327 -0.0389  0.2456
20401W        W36585  12.447  14.465   1.664 -0.0065 -0.1914 -0.1229
20402W        W36586  15.355  11.870   1.882 -0.0719  0.1311  0.2136
20403W        W36587  15.343   0.178   2.853  0.1204 -0.0410 -0.0141
20404W        W36588  15.617   7.424  15.316  0.1189 -0.1462 -0.1729
20405W        W36589  10.290   7.464  13.323  0.2889  0.0417 -0.2524
20406W        W36590   0.351   0.952   5.223 -0.0703 -0.1948 -0.2062
20407W        W36591   1.374   7.775   0.258  0.0009 -0.3201  0.1483
20408W        W36592  14.315   1.332  15.951  0.0927 -0.2831 -0.0582
20409W        W36593  16.500  12.194  16.122  0.2624  0.2183  0.0948
20410W        W36594   1.418  17.492  12.250  0.1708 -0.0606  0.1004
20411W        W36595   5.440  12.510  16.666 -0.3001  0.3860  0.0348
20412W        W36596  12.313   1.989  15.750 -0.1323 -0.1513 -0.0202
20413W        W36597   6.568  13.921   3.873 -0.0848  0.1494 -0.1147
20414W        W36598  14.580  15.555   3.740  0.0969  0.1845  0.0139
20415W        W36599   0.916  14.324   4.824  0.1854 -0.1765 -0.1269
20416W        W36600  11.966   4.378  12.118 -0.2754  0.0789 -0.1431
20417W        W36601   6.279   9.670  15.025  0.2088  0.2205 -0.0152
20418W        W36602  17.106  16.659   1.868 -0.0245  0.1616 -0.0231
20419W        W36603   5.458   6.916  11.264 -0.1472  0.2212  0.0045
20420W        W36604   4.212   4.604  14.777 -0.0689 -0.0836  0.1740
20421W        W36605   7.812  14.448   3.969 -0.2332  0.1814  0.3435
20422W        W36606   4.590   1.808   1.536  0.0312  0.0045  0.0471
20423W        W36607   0.499   0.009  12.621  0.0819  0.1672 -0.1442
20424W        W36608   4.845  13.969   3.758  0.1076  0.2707 -0.0067
20425W        W36609   1.065   2.171   4.183 -0.0725  0.1454 -0.1205
20426W        W36610  17.154   5.837   2.130  0.3919 -0.0602 -0.1298
20427W        W36611  12.907   1.416  16.404 -0.0035 -0.0807  0.1540
20428W        W36612   3.864  14.917  16.678 -0.0456  0.0218  0.2097
20429W        W36613  14.714  13.091   1.638 -0.1664 -0.2804  0.1394
20430W        W36614  14.140   3.993   4.808 -0.1055  0.0238  0.0905
20431W        W36615   3.411  10.649   4.571  0.0379  0.1331  0.1294
20432W        W36616  10.722  16.531   4.934  0.2309 -0.0285  0.1748
20433W        W36617  13.809   9.855  16.928 -0.1479  0.1745 -0.2035
20434W        W36618   5.439   3.176  14.818  0.1344 -0.0125  0.0005
20435W        W36619  15.268  14.087  12.162 -0.2796 -0.3101  0.3405
20436W        W36620  16.781   8.387   6.060  0.0476 -0.1202  0.1353
20437W        W36621   1.733   1.840   0.423 -0.1404 -0.1256  0.1193
20438W        W36622   0.421   9.714   0.795 -0.0099  0.0033  0.4253
20439W        W36623  11.361  12.351   3.927 -0.1039 -0.1690 -0.1212
20440W        W36624   6.231  17.878   3.122  0.1297 -0.1118 -0.3081
20441W        W36625  14.681   0.438  16.135  0.0646 -0.2463 -0.3989
20442W        W36626   0.422  14.829   5.255 -0.1439 -0.1578  0.3320
20443W        W36627   9.761  14.118  13.534 -0.0484 -0.0256 -0.1641
20444W        W36628   2.709  11.846  16.923 -0.3263  0.2892  0.1035
20445W        W36629  11.662   3.319   0.930  0.2213 -0.0878 -0.1626
20446W        W36630  16.090  14.554   1.030 -0.0048  0.1063 -0.1660
20447W        W36631  10.719  12.781   5.247  0.3037 -0.1044  0.1833
20448W        W36632   6.120   3.038   2.150  0.0037 -0.0936 -0.0972
20449W        W36633   0.791  13.654  14.094  0.0671  0.2556 -0.1106
20450W        W36634  14.040   0.287  11.752  0.5267  0.2304  0.1176
20451W        W36635   5.893   0.917  11.800  0.0426 -0.2748 -0.2128
20452W        W36636   9.498   7.083  11.319  0.0474  0.0675 -0.1448
20453W        W36637   2.928   2.984   0.687 -0.0307  0.1397  0.0916
20454W        W36638   4.880   2.414   4.821 -0.1702  0.0631 -0.2788
20455W        W36639   2.276  12.461   1.853  0.1134 -0.2934 -0.0741
20456W        W36640  13.037  16.813   0.205  0.0014 -0.2523 -0.0083
20457W        W36641   0.001  15.042  13.537  0.3276 -0.0915  0.0679
20458W        W36642  14.644  15.243  13.844  0.4407  0.2167 -0.1304
20459W        W36643   1.131   2.901   5.210 -0.0473  0.2937  0.2182
20460W        W36644   3.108  14.806   3.968  0.2368 -0.2305  0.1268
20461W        W36645   2.484   9.460   4.344  0.2560  0.1764 -0.1323
20462W        W36646   0.957   2.508   1.879 -0.1677 -0.2294  0.3016
20463W        W36647  15.508  10.350  16.691  0.2529 -0.0505  0.1275
20464W        W36648   5.205   1.725   5.959 -0.2476 -0.1154 -0.1195
20465W        W36649   8.638  12.615   5.604 -0.3404  0.1335 -0.1017
20466W        W36650  17.186   0.753   5.742 -0.1876 -0.5764  0.0823
20467W        W36651   9.217  10.414   3.791  0.1051 -0.0997  0.1480
20468W        W36652   0.397  15.102   5.634  0.2729  0.0248  0.1803
20469W        W36653   5.606  14.500  15.222  0.1495 -0.2203 -0.3289
20470W        W36654  10.887  13.559  13.235 -0.1332 -0.0068 -0.1432
20471W        W36655   2.274   7.474  16.060  0.3907  0.0300  0.0409
20472W        W36656   3.425   2.474   4.649  0.1277 -0.0053  0.2656
20473W        W36657  17.020  14.679   4.774  0.0438 -0.0831  0.0919
20474W        W36658   1.324   9.320   5.210  0.2345  0.0140  0.1129
20475W        W36659  11.392  10.291   6.262  0.0925 -0.2266  0.2188
20476W        W36660  16.658   8.424   4.551  0.2889  0.0447  0.3217
20477W        W36661   2.540  16.745  14.435 -0.1389  0.1010 -0.1806
20478W        W36662   4.135  10.040  11.884  0.3037  0.1396  0.0976
20479W        W36663  11.161  11.942  14.038 -0.0117 -0.1632 -0.2303
20480W        W36664  13.415  14.150   4.273  0.1214 -0.0481  0.0250
20481W        W36665   7.051   1.384  12.462  0.1644  0.1768  0.1248
20482W        W36666   0.105  15.692   1.917  0.1229 -0.0426  0.1079
20483W        W36667  13.123  14.347  11.918 -0.0481  0.1200  0.4129
20484W        W36668  15.941  10.204   2.620  0.0191  0.0567 -0.3137
20485W        W36669   4.605   2.475   0.716 -0.1718  0.2588 -0.1034
20486W        W36670   7.966  12.722  12.842 -0.0023 -0.0217  0.0325
20487W        W36671   1.137  15.657   2.763  0.0453  0.1230  0.1751
20488W        W36672  13.663   3.193   4.324 -0.0479  0.2655  0.1949
20489W        W36673  13.240   6.703   4.336 -0.1639  0.2584 -0.0196
20490W        W36674  15.034   0.782  13.660 -0.0843  0.1181  0.0816
20491W        W36675  15.532  10.455  15.698  0.0528 -0.2546 -0.2459
20492W        W36676  17.197   7.814   0.100 -0.1667 -0.1503 -0.1988
20493W        W36677   5.940   3.407   2.508 -0.2926  0.1850 -0.0990
20494W        W36678   2.478   5.037   1.883  0.0886 -0.2527 -0.1015
20495W        W36679   2.534   8.866   5.422  0.2001 -0.0534 -0.2133
20496W        W36680  16.224   6.655  15.488  0.2016 -0.0172 -0.1601
20497W        W36681   1.353  13.023   2.816 -0.0806 -0.0486 -0.1321
20498W        W36682   0.123  11.888   2.091  0.0220  0.3584  0.0862
20499W        W36683  16.673   5.066   1.098 -0.3307  0.0396  0.1285
20500W        W36684   7.343  13.358  13.098 -0.0733  0.1326  0.2768
20501W        W36685   1.271   3.479   3.485  0.1502 -0.1449 -0.0501
20502W        W36686   0.454  15.387  13.466  0.1109  0.0492  0.0153
20503W        W36687   1.475   6.449   3.696  0.1901 -0.3595  0.0721
20504W        W36688   1.172  16.286  14.631  0.1144 -0.0073 -0.0047
20505W        W36689  10.767  10.101   4.310  0.2630 -0.1837 -0.6531
20506W        W36690   6.331   7.429   0.738  0.0217  0.1979 -0.1648
20507W        W36691  13.818  14.899   3.904  0.0529  0.0497  0.0077
20508W        W36692   7.257   8.535   4.939 -0.0779  0.0359 -0.0167
20509W        W36693   7.421   6.003  15.201 -0.0299 -0.0173  0.0574
20510W        W36694   4.606  11.677  14.403  0.0495  0.1776  0.0261
20511W        W36695  14.759   7.731  14.829  0.0202 -0.3851  0.1000
20512W        W36696   5.120  10.108   2.025 -0.0762 -0.1636  0.2970
20513W        W36697   7.359  15.921   3.329 -0.1178  0.3839 -0.2847
20514W        W36698   6.460   4.194   0.698 -0.0757  0.0470  0.0684
20515W        W36699   9.000   6.426  16.027 -0.0215  0.0429 -0.0981
20516W        W36700  17.134   9.234  11.656 -0.2817  0.1233 -0.2321
20517W        W36701   1.924   7.452  14.224 -0.0250 -0.2228 -0.2545
20518W        W36702   8.880  11.751   3.682  0.1538 -0.0602  0.0380
20519W        W36703  14.609  16.667  13.633 -0.0238  0.1477  0.1346
20520W        W36704   1.931   2.975  14.747 -0.0537 -0.1247 -0.1107
20521W        W36705   5.889   4.730  15.534 -0.0093 -0.2139  0.0044
20522W        W36706  17.747   7.605   4.690 -0.0660 -0.2418 -0.0334
20523W        W36707   7.367  16.444  13.170 -0.1159  0.1125  0.3372
20524W        W36708  16.170   2.460   4.955 -0.0988 -0.0451  0.3127
20525W        W36709   2.881   3.349   0.398  0.3249 -0.1007  0.0804
20526W        W36710   3.413   1.556  16.098 -0.0288  0.1169  0.4146
20527W        W36711   9.784  16.380  13.544 -0.1087  0.1618 -0.3429
20528W        W36712  14.304   5.180  11.812 -0.0497  0.0749  0.2897
20529W        W36713  11.003  10.973  16.742 -0.0857  0.1152  0.2762
20530W        W36714   8.197  16.036  14.785 -0.1803 -0.0881 -0.3595
20531W        W36715   6.700  16.484   1.990  0.2247 -0.0883 -0.1443
20532W        W36716  17.110  13.463  14.379  0.1053  0.0146 -0.0347
20533W        W36717  17.882   1.411  16.138 -0.0674  0.2072  0.0312
20534W        W36718   0.984  14.218   1.914  0.2954 -0.0231 -0.0463
20535W        W36719   2.748  16.042   2.853  0.3269  0.0385  0.1090
20536W        W36720  11.997   2.145   4.015  0.0332 -0.1260 -0.1483
20537W        W36721   9.034  10.280  11.390  0.0408  0.2489  0.0612
20538W        W36722   9.596   1.078   1.713  0.0715  0.2665 -0.0733
20539W        W36723  15.198   8.545   1.250 -0.0839  0.4417  0.0852
20540W        W36724   4.821   6.759  12.450 -0.0936  0.3243  0.0206
20541W        W36725   0.464  11.947  16.125  0.0642 -0.0221 -0.1874
20542W        W36726   8.616   0.243  16.891 -0.0598  0.1909 -0.0110
20543W        W36727  11.345   6.148   2.882  0.0872  0.3004 -0.0574
20544W        W36728  15.999   2.607   4.508 -0.2170  0.1667  0.3978
20545W        W36729   1.661   2.114   1.522  0.1039  0.0692 -0.0912
20546W        W36730  11.654  12.036   1.358 -0.0045  0.1496 -0.0123
20547W        W36731   0.808  17.078  11.760  0.0276 -0.1215  0.0330
20548W        W36732   1.405  15.496  15.116 -0.1339  0.0580 -0.1547
20549W        W36733   2.170  15.354   5.968 -0.1862 -0.0021 -0.0158
20550W        W36734   1.285  16.253  13.225  0.2527  0.1431  0.0954
20551W        W36735  17.407  13.180   5.455 -0.3626  0.1462 -0.0334
20552W        W36736   7.249   3.812   0.751  0.2381  0.0275  0.2248
20553W        W36737   7.779   5.554  16.435 -0.1696  0.6812 -0.2001
20554W        W36738  16.031   5.492   3.782 -0.1524 -0.0917 -0.0212
20555W        W36739  10.342   0.546   3.962 -0.2123  0.0276  0.0875
20556W        W36740  16.780   3.105  15.478 -0.1494 -0.1534  0.0193
20557W        W36741   7.373   4.348   0.341 -0.0414 -0.5840 -0.0086
20558W        W36742  16.407  13.950   3.287  0.0150  0.1960 -0.0751
20559W        W36743  10.444  17.112   0.030  0.0408  0.0542  0.0211
20560W        W36744   9.025  16.354  15.149  0.3781 -0.1022 -0.2081
20561W        W36745   4.971   1.522  15.696  0.0072  0.0345  0.2742
20562W        W36746   8.924  11.572  16.048 -0.0853 -0.1686 -0.1794
20563W        W36747   2.833   2.301   1.952  0.1229  0.0432 -0.1877
20564W        W36748  17.760   1.548  14.816 -0.2629 -0.0646  0.0862
20565W        W36749  12.944   3.583   3.014 -0.0030  0.1195 -0.0125
20566W        W36750   5.659   0.145   5.004 -0.0116 -0.1253 -0.0715
20567W        W36751  15.808   9.537  14.255  0.0355  0.2502 -0.1606
20568W        W36752   4.237  17.873   0.918  0.2133  0.1629  0.0237
20569W        W36753   5.247   3.070   2.887  0.1126 -0.0918 -0.4426
20570W        W36754  12.425  12.461  13.646 -0.1006  0.2023 -0.2467
20571W        W36755   4.172   7.677  16.562  0.0384 -0.3116  0.0432
20572W        W36756  15.419  13.360  16.175  0.0059  0.4414 -0.1073
20573W        W36757   6.292  13.760   5.487  0.0146 -0.1862  0.4594
20574W        W36758  16.888   3.551   1.326 -0.0058  0.0833 -0.0354
20575W        W36759  17.162   5.632  14.043  0.2206  0.0553 -0.5328
20576W        W36760   8.846   4.389   2.028  0.3514  0.0666 -0.2509
20577W        W36761   0.935   6.780  13.640  0.1183 -0.1029  0.2452
20578W        W36762   6.913   6.269  12.146  0.2592 -0.4363  0.0110
20579W        W36763   3.161   3.879   2.241  0.5413 -0.1846 -0.0088
20580W        W36764  12.069  17.156  11.616 -0.1992 -0.0265  0.0897
20581W        W36765  12.984  10.500   4.515  0.0717 -0.3102  0.2811
20582W        W36766  12.613  15.648   4.111  0.3750 -0.3274  0.1740
20583W        W36767   8.122  16.085  11.091  0.0815 -0.1481 -0.1792
20584W        W36768   1.760  14.694   0.843 -0.4169 -0.1377 -0.4255
20585W        W36769   3.147   4.089   5.743 -0.1675  0.1471 -0.0283
20586W        W36770   4.577  15.336   1.245  0.1002  0.1630 -0.2994
20587W        W36771  13.752  16.896  12.549  0.0611 -0.0803 -0.2492
20588W        W36772   7.415  14.783   4.003 -0.1808 -0.3134  0.1027
20589W        W36773  16.556   0.436  11.982  0.0412 -0.1061 -0.0361
20590W        W36774   8.485   4.851  13.082 -0.0372 -0.1540 -0.0013
20591W        W36775  12.187  14.378   3.628  0.1133 -0.1497 -0.1729
20592W        W36776  15.000   8.913   0.916 -0.1204 -0.1704  0.2347
20593W        W36777   1.076  16.393   2.338 -0.3251  0.1025 -0.0071
20594W        W36778  14.415  17.013  13.188  0.0155  0.2036  0.0053
20595W        W36779   2.919   1.762  13.893  0.0458 -0.0900  0.0825
20596W        W36780  17.784   9.428   6.122 -0.2733  0.3496 -0.1358
20597W        W36781  17.778  11.724  15.246  0.0017 -0.1325  0.0052
20598W        W36782  15.008  11.682   2.227  0.0535 -0.0052 -0.0743
20599W        W36783   1.234  11.960   3.813 -0.1878  0.0070 -0.1055
20600W        W36784  10.465   5.237  16.046  0.0474 -0.2430  0.1103
20601W        W36785   2.749   5.354   0.813 -0.3014 -0.2936  0.4100
20602W        W36786  10.308   8.086   4.266  0.1393  0.0749 -0.1129
20603W        W36787  15.959   4.048   5.068 -0.0600  0.1549 -0.1171
20604W        W36788  12.877  13.079   2.691  0.0326  0.1335  0.2270
20605W        W36789  16.373   9.935  12.901  0.2187  0.1522 -0.1286
20606W        W36790  12.488   5.942   1.443 -0.0211  0.1889 -0.2072
20607W        W36791   0.734   6.500   0.127  0.1160  0.1019  0.1177
20608W        W36792  11.512   4.684  13.777 -0.0457 -0.2453  0.0739
20609W        W36793  13.321   9.539  13.742 -0.1320  0.1930  0.2506
20610W        W36794  17.505   2.644  15.636 -0.0400  0.0027  0.2578
20611W        W36795  11.250   3.818   3.813 -0.0221 -0.0585 -0.2312
20612W        W36796   5.626   3.167   0.399 -0.0951 -0.0435 -0.1848
20613W        W36797   8.330   8.215   4.941 -0.2050  0.3012 -0.0892
20614W        W36798   8.818   5.154  13.425 -0.2278  0.1182  0.1205
20615W        W36799   9.853   7.418   0.965 -0.1182  0.2785  0.1516
20616W        W36800  12.504   6.492  12.700  0.2873 -0.3440  0.2638
20617W        W36801   3.353   3.730  13.755 -0.1957  0.1198 -0.1498
20618W        W36802  16.072   1.124   2.639 -0.2660 -0.0308  0.0382
20619W        W36803  10.666   9.768   0.574 -0.1036  0.0214  0.0556
20620W        W36804   3.364   8.688   3.933 -0.4137  0.0061  0.0676
20621W        W36805   8.788  16.227  12.251  0.0437  0.2892 -0.3733
20622W        W36806  15.201  16.785   3.532  0.0444  0.0697  0.1986
20623W        W36807  17.553  10.284   2.634  0.2606  0.1413 -0.1326
20624W        W36808   5.294   0.940   2.362  0.1961  0.1342  0.1822
20625W        W36809   8.154  12.655  12.266  0.0506 -0.0450 -0.2716
20626W        W36810  10.590   1.413  12.243  0.0721 -0.1766 -0.0762
20627W        W36811   8.150   2.491   2.934  0.0700  0.1522  0.3552
20628W        W36812   6.171  11.961  16.231 -0.2614  0.2948 -0.2544
20629W        W36813  11.351  17.459  16.336  0.1012  0.4228  0.0232
20630W        W36814   6.727  11.813   1.808  0.1667  0.0468 -0.0362
20631W        W36815   0.806  15.440   2.372  0.1698  0.0180 -0.0818
20632W        W36816   6.246   7.942   5.793 -0.3304  0.0263  0.2184
20633W        W36817   1.383   2.706   3.370 -0.1608  0.1725  0.0303
20634W        W36818  13.852   6.578  15.882  0.1601 -0.1434  0.0103
20635W        W36819  16.351   6.683  14.980  0.1368 -0.2265  0.0970
20636W        W36820   0.791  14.155  11.057 -0.1516 -0.0902  0.3080
20637W        W36821  12.347  10.690   0.679 -0.3961 -0.3948  0.1815
20638W        W36822   9.112  10.170   0.655  0.0122 -0.1428  0.0527
20639W        W36823   8.835   8.286  15.917 -0.1080  0.2817 -0.3651
20640W        W36824   4.524  14.094   6.037 -0.2764 -0.1660 -0.0273
20641W        W36825   5.093  14.716  11.018  0.2712 -0.0774  0.1200
20642W        W36826   0.893   2.777   3.337  0.0332  0.3667  0.2190
20643W        W36827   2.534  11.062  14.390 -0.0857 -0.0012  0.0062
20644W        W36828   9.846  11.602   1.786  0.1993  0.0213  0.1044
20645W        W36829  15.067   8.013   1.265  0.2120  0.0481 -0.0784
20646W        W36830  11.350  12.214  12.008  0.1024  0.1298 -0.1060
20647W        W36831  16.555  16.381  16.825 -0.0413 -0.2206 -0.0741
20648W        W36832  16.166   7.305   3.052 -0.0693 -0.0946 -0.1290
20649W        W36833  10.945   5.523  15.861  0.0834 -0.0095  0.4079
20650W        W36834   6.562   5.466  11.979  0.1615  0.1491  0.1059
20651W        W36835  14.001  14.840   3.454  0.2152  0.1025  0.1701
20652W        W36836   5.649   9.135  13.571 -0.1242  0.1391  0.2671
20653W        W36837   0.288   8.269  13.159 -0.1667  0.1610  0.0278
20654W        W36838   1.354  11.155   5.472 -0.0545  0.3860  0.0401
20655W        W36839  14.390   9.767   5.996  0.3310  0.2103 -0.1805
20656W        W36840   2.638  11.525   5.873 -0.0984  0.0919 -0.0895
20657W        W36841  13.450   1.532  13.212  0.3868 -0.1769  0.0264
20658W        W36842  13.695  14.996   2.336  0.1992 -0.0396  0.2794
20659W        W36843   6.192  12.645  15.022  0.1956  0.1963 -0.0939
20660W        W36844   0.027  12.389   5.648 -0.2635 -0.2928  0.2635
20661W        W36845  13.482   2.645  11.597  0.0105 -0.0069 -0.0130
20662W        W36846   5.805   1.103  15.039  0.0985 -0.1091 -0.1631
20663W        W36847  10.937  11.142   4.053  0.3219 -0.2087 -0.2600
20664W        W36848  12.814  15.422  14.643 -0.2026  0.0778  0.2869
20665W        W36849  12.230  15.951  12.544 -0.3788  0.1308 -0.0027
20666W        W36850   1.655   0.778  13.876  0.2600 -0.1228 -0.0205
20667W        W36851   9.844   3.695   5.298  0.0372 -0.0076 -0.0729
20668W        W36852  12.552   5.336   5.183  0.1963 -0.2193 -0.2465
20669W        W36853   7.222   5.991   4.969 -0.0324 -0.1009 -0.2794
20670W        W36854   7.827   3.842   4.970 -0.0881  0.0079 -0.2426
20671W        W36855  16.074  17.826  15.488  0.0090 -0.0984  0.1161
20672W        W36856   7.338   0.120  12.080  0.1539 -0.1261  0.4487
20673W        W36857   6.573   3.529   1.497 -0.1039  0.0351  0.1259
20674W        W36858  13.844  16.220   4.090  0.1045 -0.0510  0.1523
20675W        W36859  15.188  16.456   4.036 -0.4072  0.0742 -0.2874
20676W        W36860  14.835   3.198   3.475  0.1335  0.2153  0.2084
20677W        W36861   3.315   9.257  10.801  0.0927  0.2060  0.1216
20678W        W36862  13.085   7.009   5.851  0.3141  0.3036  0.2638
20679W        W36863   0.674   6.488  15.042  0.1056 -0.1008  0.1529
20680W        W36864   0.170   5.094   1.466  0.1044 -0.0728 -0.1795
20681W        W36865   3.285  15.593  16.683 -0.1995 -0.1179 -0.0685
20682W        W36866  10.355  16.814   5.723  0.1833 -0.1665 -0.0373
20683W        W36867   4.521   5.228  12.129  0.1724 -0.0734 -0.0335
20684W        W36868   5.034  12.187  15.830  0.1326 -0.2022 -0.0426
20685W        W36869  17.706   2.272   1.061 -0.1794  0.1864  0.0316
20686W        W36870   8.641  14.001  16.803  0.0432 -0.0451  0.0104
20687W        W36871   1.237   2.353   2.326  0.0309  0.0799 -0.5267
20688W        W36872  12.527  14.388   5.073 -0.2571  0.4638  0.0737
20689W        W36873   4.570   7.116   1.774  0.1994  0.0383 -0.2130
20690W        W36874   8.228   0.271  16.620  0.0357 -0.0785 -0.0960
20691W        W36875   6.457  12.228  11.395 -0.0885 -0.0841 -0.0298
20692W        W36876   4.293  14.196   0.514  0.1320  0.2056 -0.1110
20693W        W36877   0.915   6.280  13.577 -0.1114 -0.4027  0.3850
20694W        W36878   1.545   0.616  16.104  0.1301 -0.0284  0.0546
20695W        W36879   1.364  11.659   1.078 -0.1078 -0.0354 -0.0458
20696W        W36880  17.280  13.015   1.961 -0.2607 -0.0504 -0.0309
20697W        W36881   9.273   7.910  16.792  0.2695  0.1763  0.2244
20698W        W36882  13.488   5.750  12.862  0.0730 -0.1341 -0.1100
20699W        W36883  13.739  12.563  15.762  0.3891 -0.2219  0.0282
20700W        W36884   1.529  13.539  12.903 -0.3131 -0.1794 -0.2105
20701W        W36885   2.462   7.708   4.353 -0.0117  0.1379  0.2548
20702W        W36886  16.718   6.718   5.071 -0.3649  0.0520  0.0264
20703W        W36887   6.124   0.713   1.645  0.4545  0.2890  0.2191
20704W        W36888   5.343  12.000   3.711  0.1568  0.3283  0.1186
20705W        W36889  14.651   7.787  11.544 -0.2996 -0.2560 -0.0617
20706W        W36890  12.682  17.456  13.679  0.0040  0.1817 -0.3212
20707W        W36891   4.324  10.503  12.063  0.0125  0.2709  0.0589
20708W        W36892   6.486   7.976   2.870  0.0485  0.0290 -0.0493
20709W        W36893  15.970  14.739  14.712 -0.1197 -0.2232  0.2535
20710W        W36894  15.432   3.573  15.361  0.1162  0.0087 -0.0127
20711W        W36895  14.183   9.814   4.221  0.1906 -0.0107 -0.0528
20712W        W36896   5.379  15.386   5.011 -0.0426 -0.1292  0.1199
20713W        W36897  10.190   9.433  12.846  0.0016 -0.1431  0.0308
20714W        W36898  10.348   3.289  13.407  0.0330  0.1763 -0.0747
20715W        W36899   7.206   1.876   0.062 -0.0024 -0.0789  0.0382
20716W        W36900   1.409   5.499   5.953  0.1961 -0.0707  0.2571
20717W        W36901   0.106   3.818   0.547 -0.0554 -0.0144 -0.0689
20718W        W36902   4.606  17.306  12.465 -0.3086  0.2691  0.0297
20719W        W36903   3.993   2.557   0.690 -0.2157  0.0186  0.0078
20720W        W36904   2.067  14.438  16.380 -0.3353 -0.0963  0.0099
20721W        W36905  12.416   9.126  12.933 -0.0162  0.0242 -0.5201
20722W        W36906   8.231   2.946   0.754  0.0273  0.1852 -0.3009
20723W        W36907   6.223  15.869  13.026  0.1115 -0.0439  0.3687
20724W        W36908  11.425   6.517  12.614  0.2082 -0.1327 -0.1784
20725W        W36909   4.022   9.753  12.303 -0.1132 -0.1147 -0.2052
20726W        W36910   1.503  11.624   5.513 -0.2710  0.0541  0.1472
20727W        W36911   6.719   2.948  13.990  0.1055 -0.0874  0.2615
20728W        W36912  15.398   1.571   5.411  0.1222  0.2944 -0.1548
20729W        W36913   2.588   6.656  16.216  0.3608 -0.0457  0.0048
20730W        W36914   9.989  17.875  12.028  0.0494  0.3480 -0.2602
20731W        W36915   7.367  14.874   1.267 -0.1058  0.0645  0.1194
20732W        W36916   1.433  13.703   5.298 -0.1459  0.0040  0.1777
20733W        W36917   1.087  17.051   4.718 -0.1906  0.0748 -0.0281
20734W        W36918   9.399   5.178   5.115 -0.1003 -0.0534  0.0507
20735W        W36919  15.762   9.438   4.513 -0.2983  0.1129  0.3168
20736W        W36920   0.433  16.208  16.614  0.1706 -0.1564 -0.1321
20737W        W36921  10.396   9.329  15.921 -0.0542 -0.3169 -0.1235
20738W        W36922   2.818   0.620  14.629 -0.2675  0.0662 -0.0095
20739W        W36923   9.664   4.166   2.263 -0.1954  0.2418 -0.0070
20740W        W36924   6.168   4.276   2.397  0.2876 -0.1286 -0.0310
20741W        W36925   0.365  13.960  13.762  0.0971  0.0306 -0.1301
20742W        W36926   8.221  16.768  14.283 -0.1042  0.2262  0.0944
20743W        W36927   5.200   7.687   6.369 -0.1344 -0.0466 -0.1051
20744W        W36928  15.619   1.737  15.511 -0.2999  0.0077  0.1507
20745W        W36929  11.932  15.808   2.177 -0.1968  0.3285  0.2053
20746W        W36930   4.095   4.167   2.312  0.1936  0.3736  0.2615
20747W        W36931   3.873  15.383   2.436  0.0968  0.2168  0.3080
20748W        W36932   0.318   2.168  14.769  0.2460  0.1148  0.1918
20749W        W36933   3.971   1.196   1.994 -0.1341  0.1790  0.2204
20750W        W36934  15.181  14.985   4.330 -0.1207 -0.3458  0.0541
20751W        W36935   3.890   9.306   4.906  0.1521  0.2529 -0.2142
20752W        W36936   8.138   9.143  14.856 -0.3261 -0.1987 -0.1008
20753W        W36937   7.759   4.529   2.142  0.1531  0.1046 -0.2253
20754W        W36938  11.503   2.791   4.660  0.1900 -0.0963  0.2618
20755W        W36939   1.152  11.415  16.013  0.2772 -0.0389 -0.1981
20756W        W36940   0.091   7.631   2.138  0.2731 -0.1472  0.1992
20757W        W36941  17.794  17.569   5.346 -0.1743 -0.1638 -0.0928
20758W        W36942  16.450   2.015   0.005  0.0637  0.2995  0.1177
20759W        W36943  12.920  14.254   4.071  0.0117  0.0061  0.0465
20760W        W36944  12.336   3.225  14.956  0.3076 -0.1707  0.0137
20761W        W36945   1.254   6.945   4.504  0.3263  0.0342  0.0628
20762W        W36946   5.318   6.696   6.486 -0.1249  0.0397  0.1712
20763W        W36947   6.422   5.302   4.697  0.0736 -0.0215  0.0571
20764W        W36948   8.273   9.505  15.139  0.0760  0.1297 -0.2291
20765W        W36949  16.823   7.320   4.398 -0.0832 -0.2386  0.0855
20766W        W36950   1.118  11.484   3.681 -0.1873  0.1275 -0.0441
20767W        W36951  17.477  10.229   4.799 -0.2312 -0.3370 -0.1387
20768W        W36952   7.610   2.490   1.125 -0.1717  0.2560 -0.0052
20769W        W36953   5.670   0.024   2.426  0.0619  0.0469 -0.4084
20770W        W36954  15.260  15.625   4.566  0.2110  0.0008 -0.0702
20771W        W36955   6.677   1.470   4.551  0.2153 -0.3429 -0.0360
20772W        W36956  10.146  14.324  11.984 -0.1612 -0.1412  0.1057
20773W        W36957   0.684   5.170  11.642  0.0913  0.1124 -0.2401
20774W        W36958  10.043  17.145   3.428 -0.1600 -0.1309  0.0418
20775W        W36959  10.099   5.002   2.017 -0.0853 -0.2771 -0.0087
20776W        W36960   7.556   4.867   1.244  0.0924 -0.0280 -0.2986
20777W        W36961  11.704  15.661   0.164  0.0729 -0.0878  0.2752
20778W        W36962   4.466  17.088  11.251  0.2136  0.1763 -0.2158
20779W        W36963   1.115  12.010   4.276 -0.0421  0.0026  0.0663
20780W        W36964  15.518  17.158  16.488  0.1277  0.1624 -0.0113
20781W        W36965   5.536  13.966   5.347 -0.1170  0.0773 -0.0813
20782W        W36966   8.665  11.165  13.787 -0.1758 -0.0611 -0.3826
20783W        W36967  16.449  15.400   1.572  0.0128  0.0081 -0.1394
20784W        W36968   8.843  10.733   3.597 -0.0444  0.1252  0.0167
20785W        W36969   1.352   9.292  15.003  0.2503  0.0544 -0.0072
20786W        W36970   0.319  15.343  14.002 -0.1142 -0.0100  0.0478
20787W        W36971   3.048   2.482   2.758 -0.1244  0.2285  0.1150
20788W        W36972   6.843   2.271   3.344 -0.1649  0.1043 -0.1134
20789W        W36973   2.406   4.090   1.184  0.1753  0.3506 -0.0120
20790W        W36974   7.333  14.561  13.563  0.1168  0.1286  0.1914
20791W        W36975   5.574   0.847   5.718  0.1662 -0.0338  0.0573
20792W        W36976   8.678   3.726   1.141 -0.1238 -0.0658  0.3036
20793W        W36977  15.029  15.027  13.480 -0.4172  0.1858  0.2389
20794W        W36978   4.928  12.253  16.615  0.1220 -0.1510  0.1174
20795W        W36979  10.175  15.739   4.355 -0.2818  0.0691 -0.4938
20796W        W36980   9.107   2.085  14.015 -0.0969 -0.0519 -0.2212
20797W        W36981  11.867   5.203  13.129  0.2538 -0.2505  0.1636
20798W        W36982  17.545   5.695   0.183 -0.1929 -0.0926  0.1323
20799W        W36983   6.185   6.038   3.774 -0.0761  0.1321  0.0825
20800W        W36984  15.299   6.999   0.104  0.2804 -0.0512  0.0221
20801W        W36985   4.474   7.902  15.596 -0.0284  0.3101 -0.0409
20802W        W36986   8.645   9.156  15.142 -0.1038  0.1612 -0.1709
20803W        W36987  13.864   5.239   1.488  0.2101 -0.1645 -0.0163
20804W        W36988  15.608   9.183   6.392 -0.2889  0.2978  0.2090
20805W        W36989  16.543  15.390  11.541  0.3156 -0.2150  0.0888
20806W        W36990   7.295   9.245   1.883  0.0012 -0.1244  0.1289
20807W        W36991  11.035  12.711  13.663 -0.4697 -0.1136 -0.0295
20808W        W36992   2.757   3.413  14.411  0.1214 -0.0242  0.2371
20809W        W36993   4.348   9.700   4.208 -0.0657 -0.3018  0.2025
20810W        W36994   6.933  13.185   0.221 -0.0132  0.2146 -0.4492
20811W        W36995   3.167  17.330  16.020  0.1915  0.1918  0.0866
20812W        W36996  11.207   8.826   1.986  0.1726  0.1434 -0.1084
20813W        W36997   1.519   8.524  12.435 -0.2295 -0.1790  0.2579
20814W        W36998   5.066  10.886   6.034 -0.0316  0.1502 -0.1054
20815W        W36999   4.244   9.930  15.473  0.0047 -0.0041  0.0337
20816W        W37000  15.856   1.119   1.201 -0.2095 -0.0416 -0.0046
20817W        W37001   6.449   0.774  12.422 -0.1548 -0.1073  0.2681
20818W        W37002   9.919   8.219   5.606  0.0776 -0.0111 -0.2034
20819W        W37003  15.659   1.104   1.750 -0.0822  0.0284  0.1863
20820W        W37004   9.407  16.327  13.174  0.2147  0.0299  0.0466
20821W        W37005  13.334  15.506  13.438  0.0097  0.1513 -0.0248
20822W        W37006   4.029  11.958  13.169 -0.1412  0.1374  0.0389
20823W        W37007  13.281  12.435   3.981 -0.1123  0.0373 -0.3540
20824W        W37008   0.218   3.358  16.124 -0.0313 -0.0149  0.0623
20825W        W37009   9.302   9.393   3.421  0.2468 -0.1696  0.3229
20826W        W37010  11.013   3.032   4.038  0.0535 -0.0819 -0.2852
20827W        W37011  10.839   3.422  12.726 -0.2228 -0.0380  0.0918
20828W        W37012  15.607   7.212  14.037  0.4417  0.1462 -0.0521
20829W        W37013  15.109   8.003   4.744  0.1364 -0.0614  0.0276
20830W        W37014  15.864   4.924   6.124  0.0432 -0.1219  0.1376
20831W        W37015  10.428   4.754  16.400 -0.1411  0.3803  0.0457
20832W        W37016  15.024  10.661   1.764  0.2780 -0.2570  0.1907
20833W        W37017   6.780   7.619   3.879  0.3053 -0.3383  0.0156
20834W        W37018   1.592   6.124  12.591 -0.1664 -0.0239 -0.0091
20835W        W37019   4.688  13.137  13.341  0.1455  0.1930 -0.1954
20836W        W37020   5.352   0.513   0.352 -0.0104  0.1525  0.1354
20837W        W37021  11.445   3.655  15.882  0.1298  0.1786  0.2110
20838W        W37022   6.146  13.193   3.820 -0.1632 -0.0249 -0.3147
20839W        W37023   1.840  10.140  16.332 -0.2499 -0.1931 -0.2826
20840W        W37024   3.504   0.032  13.092  0.3023 -0.2071  0.1048
20841W        W37025  13.903  12.279  12.017 -0.0399 -0.1419 -0.3868
20842W        W37026   0.601  10.750   4.327 -0.1032 -0.5137  0.3042
20843W        W37027   4.260   9.767  15.984  0.0567 -0.3751 -0.2222
20844W        W37028   3.113   1.144   3.979  0.1635 -0.0379  0.1140
20845W        W37029  13.808  10.130   5.458 -0.1473  0.2209  0.2948
20846W        W37030  16.692   3.186  12.001 -0.0398  0.4179  0.0221
20847W        W37031   2.463  17.401   3.682 -0.3222 -0.0354 -0.0097
20848W        W37032  10.064   6.338  11.715  0.0099  0.1485 -0.0113
20849W        W37033  14.840   5.968  13.497  0.0891 -0.0555  0.0018
20850W        W37034  15.499  15.325  11.238  0.1090  0.0652 -0.2790
20851W        W37035   9.233   5.721   4.038  0.0826 -0.0016  0.0313
20852W        W37036   4.607   1.066   3.730 -0.1424  0.0197  0.1208
20853W        W37037  14.151   7.112   1.938 -0.0157  0.1923  0.0944
20854W        W37038  12.015   3.436   3.158 -0.1853 -0.0124  0.1539
20855W        W37039   1.885  17.057   0.023  0.0825 -0.1026  0.1090
20856W        W37040   2.255  16.090  16.049 -0.3640  0.3939 -0.0638
20857W        W37041   2.521  11.533  13.444 -0.0386 -0.0906 -0.2016
20858W        W37042  14.599  11.398   2.200 -0.0153  0.2124  0.0187
20859W        W37043   9.391   8.683  14.384 -0.0141  0.0905  0.1497
20860W        W37044  17.751  17.791   1.172 -0.0519 -0.1920 -0.2030
20861W        W37045   4.114  16.668   5.018  0.0304  0.0226 -0.0417
20862W        W37046   1.022  15.206   5.198 -0.1785  0.0055 -0.0126
20863W        W37047  17.034   6.804  13.695  0.1462 -0.1941  0.2831
20864W        W37048  17.267  13.214  14.015  0.0154  0.3096 -0.0847
20865W        W37049  13.287   0.120   0.407 -0.1003 -0.0304  0.1053
20866W        W37050   3.443  15.572   4.090 -0.0032 -0.0443 -0.2054
20867W        W37051   8.853  11.184  13.321  0.0154 -0.0433  0.0188
20868W        W37052  15.179   3.551   0.703  0.0797 -0.3901 -0.0913
20869W        W37053   5.217  14.274   0.916 -0.1569 -0.0052 -0.1855
20870W        W37054   3.420  16.252  14.137  0.1138 -0.2736 -0.1507
20871W        W37055   3.098  17.542  16.576  0.2277 -0.0361 -0.1152
20872W        W37056   8.744  13.854  12.931  0.1337  0.0573 -0.0221
20873W        W37057   9.805  12.797  12.860 -0.1114 -0.2347 -0.3416
20874W        W37058  17.601   4.561   4.696 -0.0993 -0.1540 -0.0417
20875W        W37059  15.289   5.851  13.404  0.1363  0.5875 -0.0531
20876W        W37060  16.155   2.321   1.476  0.1244 -0.3346  0.1327
20877W        W37061   1.638  12.583   2.871  0.1864 -0.0712  0.0676
20878W        W37062  12.567  10.727  14.727 -0.2012  0.1544 -0.0021
20879W        W37063  17.250  16.577   5.576  0.2784  0.0484 -0.0261
20880W        W37064   5.270   9.464  13.448 -0.0471  0.0397 -0.1014
20881W        W37065  11.512   4.385  12.290  0.0932  0.0692 -0.1570
20882W        W37066   1.568   1.338   2.994  0.0450  0.0532 -0.0947
20883W        W37067   8.471  15.921  12.488 -0.1710  0.0134 -0.1519
20884W        W37068  13.687   0.163  14.414  0.2168 -0.2907 -0.1082
20885W        W37069  15.967   2.781   0.501  0.0897  0.1664  0.0971
20886W        W37070   5.824   5.764  13.054  0.1364  0.0728 -0.2677
20887W        W37071  14.010   6.016   1.206  0.0401  0.2272 -0.0255
20888W        W37072   9.232  14.428  16.445 -0.3828  0.0370  0.1451
20889W        W37073   6.627   3.671  12.757  0.2190  0.0478 -0.0166
20890W        W37074   8.826   0.463  16.007  0.0978  0.0965  0.1685
20891W        W37075  13.452  13.754   3.007  0.1797 -0.0768  0.1153
20892W        W37076  16.725   1.665   3.003  0.0806  0.1887  0.0065
20893W        W37077   9.195   6.496   3.154  0.1470  0.1631 -0.0728
20894W        W37078   3.584  11.818  13.105 -0.2422  0.4135 -0.1665
20895W        W37079   4.756   0.678  16.143  0.0780 -0.1521  0.0092
20896W        W37080   5.054   2.823   3.965  0.0619  0.1834 -0.0093
20897W        W37081   9.990   4.184   1.206  0.0358 -0.1504 -0.1107
20898W        W37082   6.651  12.701  11.649 -0.1160  0.1623 -0.1343
20899W        W37083  14.337  11.491   3.478 -0.4128 -0.1585  0.1192
20900W        W37084  14.822  12.872  12.937  0.0976 -0.1652 -0.3656
20901W        W37085  11.309  11.405  14.111  0.0620 -0.1180  0.0018
20902W        W37086  11.558  12.880   3.044  0.0869 -0.0727  0.2128
20903W        W37087   0.374   4.705   4.214  0.1464  0.0691  0.1481
20904W        W37088   9.875   9.123  16.711 -0.0530 -0.0488  0.0598
20905W        W37089  16.981   9.147  16.883  0.2687  0.0490  0.1259
20906W        W37090   7.948  11.165   4.573  0.2973 -0.0427 -0.2794
20907W        W37091  15.646   8.936   0.335 -0.1788 -0.0759  0.0530
20908W        W37092  13.114   1.084  12.471  0.1153 -0.1194  0.0122
20909W        W37093   8.514   7.593  11.879  0.1409 -0.1252 -0.1482
20910W        W37094   3.463  17.671   2.446 -0.1570  0.2628 -0.1717
20911W        W37095   5.011   9.437  14.346  0.0342 -0.0427 -0.2539
20912W        W37096   5.991  15.282   3.553  0.2059  0.0038 -0.1348
20913W        W37097   5.463  12.843  12.429  0.1012  0.0427 -0.5487
20914W        W37098   2.653  13.668   3.454 -0.0789 -0.1645  0.0467
20915W        W37099   2.631  10.123  15.469  0.2488  0.0964 -0.1054
20916W        W37100  17.482   0.596  11.978 -0.1210 -0.2681  0.1246
20917W        W37101   3.381  13.839   0.597 -0.0817  0.0484  0.2078
20918W        W37102  14.780   7.449   2.440  0.0892  0.2639 -0.0090
20919W        W37103  14.832   1.050  14.172 -0.2565 -0.1041 -0.1723
20920W        W37104   4.676  12.970   5.381 -0.2090 -0.1113  0.1125
20921W        W37105   7.601   2.412  14.901 -0.0812  0.0287 -0.1038
20922W        W37106   2.420  12.774   0.353 -0.3795  0.2145  0.1121
20923W        W37107  13.317   1.800   2.343 -0.0493 -0.2193 -0.0449
20924W        W37108  13.609  15.032  13.173 -0.0967 -0.1324 -0.1520
20925W        W37109   4.346   0.474   1.711  0.0302 -0.1637 -0.0807
20926W        W37110   9.181   9.409   6.481 -0.0321  0.1452 -0.0873
20927W        W37111   4.705   7.467   5.562 -0.0219 -0.3087 -0.1645
20928W        W37112   3.040   8.733  15.224 -0.0190 -0.1220 -0.1106
20929W        W37113   9.416   2.871  15.564 -0.2655 -0.1167  0.0125
20930W        W37114  16.126  16.990  12.856  0.0618  0.0198 -0.0514
20931W        W37115  17.174   6.940  11.128 -0.0370 -0.0345 -0.0324
20932W        W37116  15.323  10.425  13.506  0.1008  0.1006  0.0810
20933W        W37117  11.010  12.740  16.689  0.1211 -0.1976 -0.0984
20934W        W37118   1.602  12.752  12.573 -0.1110  0.2587 -0.1969
20935W        W37119   8.406   2.602   0.223 -0.2203 -0.1022 -0.0773
20936W        W37120   8.381  15.343  11.851 -0.1973  0.1779  0.0334
20937W        W37121   5.187  11.409   2.102 -0.3370  0.0519  0.0985
20938W        W37122  15.510   3.162  15.678 -0.0058 -0.1830  0.2609
20939W        W37123  16.058   1.234  13.378  0.0827 -0.0009 -0.3167
20940W        W37124   5.480   9.570  12.010  0.1428 -0.3347 -0.0664
20941W        W37125  10.707   7.247  11.588 -0.2470  0.2764  0.3800
20942W        W37126   6.994  16.069  10.258 -0.0053  0.1253  0.0459
20943W        W37127   7.885   0.310  16.262 -0.0484 -0.1658 -0.2649
20944W        W37128  14.944  15.965   0.904  0.0422 -0.0107  0.1866
20945W        W37129   7.221  11.060   2.745  0.0343  0.0845 -0.0498
20946W        W37130   6.383  12.496  13.194  0.2160  0.0562  0.0207
20947W        W37131   4.121  11.817  14.247  0.0511 -0.0234 -0.1458
20948W        W37132   5.018  16.014   1.572  0.3129  0.1256 -0.0875
20949W        W37133  17.736  10.467   1.297  0.1133 -0.1911  0.0663
20950W        W37134  15.607  14.501   3.256  0.2373 -0.1392 -0.0580
20951W        W37135   1.058  11.612  14.878  0.0570  0.0672  0.2865
20952W        W37136   0.381   7.647  14.338 -0.1725 -0.2311 -0.3489
20953W        W37137  13.095   4.733  12.803 -0.2339  0.0249  0.1460
20954W        W37138   6.892  16.887  12.233 -0.0833  0.1574 -0.0415
20955W        W37139  14.738  12.520  13.277  0.2733 -0.3515  0.0835
20956W        W37140   3.627  11.595  11.431  0.1507 -0.0086 -0.0967
20957W        W37141  13.268  13.980  14.187  0.4786 -0.0368 -0.0346
20958W        W37142   4.686   1.854  13.328  0.0998 -0.3055 -0.1227
20959W        W37143  14.977  15.965  13.432  0.2094  0.2957  0.1357
20960W        W37144  12.885   9.567   2.763  0.2531  0.0094  0.0586
20961W        W37145  12.106  15.745   0.426 -0.3777 -0.3610  0.3519
20962W        W37146   9.317  10.504   5.562 -0.2000 -0.1025 -0.1077
20963W        W37147   2.108   4.714   2.084 -0.2408 -0.1634 -0.2040
20964W        W37148   2.940  15.625  13.999 -0.1184  0.0262 -0.2987
20965W        W37149  17.415   8.922   3.038  0.2151  0.1695  0.1045
20966W        W37150   6.478  15.939  14.042 -0.1810 -0.3367  0.0270
20967W        W37151   3.350   9.173  15.268 -0.0705 -0.2228 -0.0456
20968W        W37152  10.915   1.111  11.946 -0.0981  0.1870 -0.2587
20969W        W37153  15.177  16.417   0.567  0.0288  0.2071  0.1525
20970W        W37154  16.431  17.414  15.495  0.1089  0.1784 -0.0071
20971W        W37155  12.876   5.135   5.741 -0.1291 -0.2343  0.1785
20972W        W37156   0.977  14.470   3.129 -0.4349  0.1866 -0.2145
20973W        W37157  16.298   0.927   0.917  0.0753 -0.2304 -0.2355
20974W        W37158   4.586   7.526   6.090  0.1503  0.2237  0.4176
20975W        W37159   6.456   0.719   0.787  0.1551  0.0973  0.0951
20976W        W37160  12.509   8.803  13.262 -0.2577  0.0208 -0.0643
20977W        W37161   6.041   0.744   3.801 -0.0781  0.1608 -0.0525
20978W        W37162   4.406  15.378   3.442  0.1227  0.0969 -0.3535
20979W        W37163   2.213  13.611   0.030 -0.0492 -0.0276  0.1408
20980W        W37164  13.644   8.261  15.786 -0.1548  0.0286 -0.2897
20981W        W37165   9.125  15.725   4.950  0.0277  0.3113  0.1947
20982W        W37166   1.455  16.198   2.006 -0.1211  0.0215  0.2692
20983W        W37167   7.541   8.370   1.900 -0.2736 -0.2901 -0.1267
20984W        W37168   8.922  11.552   0.088  0.3569 -0.0829  0.0232
20985W        W37169  14.270   7.657   5.877 -0.0399 -0.0297 -0.3049
20986W        W37170   5.363   7.631   4.413  0.2650 -0.1443 -0.2347
20987W        W37171   6.375  16.861   2.848  0.0338 -0.0662 -0.1960
20988W        W37172   4.456   7.334   3.232  0.3242  0.2003 -0.0176
20989W        W37173   8.874  11.211   1.728  0.4650  0.0380 -0.0027
20990W        W37174   2.954  14.502  16.204  0.1900  0.0086  0.3097
20991W        W37175  16.574  15.441  12.851 -0.1308 -0.2346  0.3752
20992W        W37176  14.417   4.990  16.652  0.0834 -0.1155 -0.0572
20993W        W37177  11.569  12.778   3.982  0.0525  0.0611  0.0048
20994W        W37178   4.695  16.768   1.222  0.0280 -0.1707 -0.0395
20995W        W37179   2.573   8.409  15.099  0.0339  0.0239  0.0813
20996W        W37180   4.318  11.794  11.898  0.0795 -0.1935  0.0594
20997W        W37181   7.731   0.300  13.797 -0.1198 -0.0634  0.0459
20998W        W37182   4.091  11.658  16.475 -0.2836 -0.0738  0.0177
20999W        W37183  14.537   3.679  15.932 -0.1283 -0.0840  0.1033
21000W        W37184   8.410   6.881   3.717 -0.4268  0.0332  0.0179
21001W        W37185   2.410  12.534   2.716  0.1788  0.2811  0.1808
21002W        W37186  10.506   6.749   4.897 -0.4656 -0.0633  0.0817
21003W        W37187  12.477   5.228   6.046  0.1098 -0.2303  0.1874
21004W        W37188  11.151   9.109   3.206 -0.0047 -0.0553 -0.0512
21005W        W37189   4.270   8.707   3.112  0.0676  0.0868 -0.1771
21006W        W37190   5.496   3.350  16.646 -0.0084  0.1006 -0.3734
21007W        W37191  15.987   0.066  14.917  0.1084  0.2008 -0.0025
21008W        W37192   4.316  16.468  12.937 -0.1437  0.0353 -0.0562
21009W        W37193   4.722  16.629  14.455 -0.0355 -0.1013 -0.1704
21010W        W37194  17.561   4.972   3.689 -0.2395 -0.0320 -0.0750
21011W        W37195  16.233   7.213   4.386 -0.0790  0.1997 -0.1153
21012W        W37196   2.411   4.178  14.740  0.2058  0.1975 -0.1172
21013W        W37197   8.596  15.319  14.440 -0.0955 -0.0167 -0.1765
21014W        W37198   2.143  16.379   2.218  0.1753  0.4506  0.2002
21015W        W37199  12.035   4.120  15.795 -0.3294  0.0616  0.1643
21016W        W37200  16.534   0.545   5.066  0.0441 -0.1027 -0.1002
21017W        W37201  16.109   8.525   2.410 -0.0319 -0.0305 -0.3413
21018W        W37202   4.656  14.138   3.132 -0.0051  0.1651  0.3901
21019W        W37203  12.812   2.992  15.550 -0.1369 -0.1800 -0.0955
21020W        W37204   2.006  10.040   1.596 -0.0217 -0.2296 -0.0838
21021W        W37205  17.552   7.552  13.430 -0.2186 -0.3886  0.1413
21022W        W37206  16.891   4.166  11.537  0.2613 -0.1925 -0.1337
21023W        W37207  15.955   9.652   0.222 -0.0095  0.3076 -0.3402
21024W        W37208   8.072   3.034   3.588 -0.0748  0.0019  0.2247
21025W        W37209   3.850   6.410   0.210  0.2542 -0.1969 -0.0282
21026W        W37210   3.530  12.694   3.432  0.3178  0.2701 -0.0714
21027W        W37211  10.844  16.112   2.918 -0.0455  0.0147 -0.1781
21028W        W37212   1.152   6.039   3.513  0.0103  0.0228  0.0223
21029W        W37213  14.241  10.323   4.383 -0.1555  0.2618 -0.1677
21030W        W37214   6.319   7.929   3.690 -0.1906 -0.4135 -0.1922
21031W        W37215   2.731   1.645  14.819 -0.1128  0.2033  0.1288
21032W        W37216   0.189  15.396  12.523  0.0234 -0.1644  0.0874
21033W        W37217  12.672  12.278   2.504 -0.0335 -0.1242 -0.3229
21034W        W37218  12.254  14.851   0.348 -0.1885  0.0255  0.2069
21035W        W37219   5.817   5.259  16.502 -0.0737 -0.1557 -0.0230
21036W        W37220  10.128  15.865  11.193 -0.1397 -0.2748 -0.2752
21037W        W37221   7.595   4.299  16.833 -0.0755  0.0069  0.0042
21038W        W37222   7.039  14.898  15.653 -0.1363  0.1115 -0.0770
21039W        W37223   5.392   7.563  12.772  0.2605 -0.1108 -0.2260
21040W        W37224   9.129  12.176  13.059  0.1522  0.1570  0.1403
21041W        W37225  13.159  12.634   2.518  0.0627 -0.2272  0.4541
21042W        W37226  13.806  12.356  15.266  0.0527 -0.1421  0.0390
21043W        W37227   2.961   5.885   5.088 -0.4386  0.0082  0.1641
21044W        W37228  14.644  11.583   1.699  0.1143  0.1621 -0.1529
21045W        W37229  13.924   1.061  15.066  0.0780  0.1568  0.1942
21046W        W37230  14.058   2.595   3.246  0.0425  0.1367 -0.0597
21047W        W37231   8.630   0.442  15.486 -0.2615 -0.0529  0.0284
21048W        W37232   8.556   9.681  11.856  0.1472  0.3382  0.1171
21049W        W37233  17.478   2.866   1.859 -0.1370 -0.0893  0.3141
21050W        W37234   8.285  17.280  13.712  0.1520 -0.0117  0.2554
21051W        W37235   8.949  13.269   3.520 -0.1070  0.2219  0.0029
21052W        W37236  16.415   2.347  15.037 -0.0409 -0.0485  0.2016
21053W        W37237   0.211   4.315  13.471 -0.0036  0.2452 -0.0216
21054W        W37238  11.657  16.131   0.074 -0.0988 -0.0456  0.0521
21055W        W37239  10.839  16.023  11.999 -0.2319  0.0487 -0.0668
21056W        W37240   0.008   2.434   1.891  0.1309 -0.1313 -0.1603
21057W        W37241   6.866  10.002   1.362 -0.0737 -0.0802 -0.0102
21058W        W37242   0.062   9.460  13.445 -0.0289  0.0815  0.1887
21059W        W37243   7.275  17.314   4.216  0.1568  0.1946  0.0499
21060W        W37244  12.678  15.250   1.146  0.0854 -0.0747 -0.0781
21061W        W37245  16.929   2.461   1.848  0.2791 -0.1694  0.2495
21062W        W37246  12.732  16.034   2.337 -0.1132 -0.0916 -0.1403
21063W        W37247   8.011   3.250  14.933 -0.1878 -0.1020  0.0421
21064W        W37248   9.860  16.891   2.538 -0.1557  0.0846 -0.0345
21065W        W37249  16.631   4.809  16.608 -0.1212 -0.1016 -0.0611
21066W        W37250   7.327   8.829   4.579 -0.0169 -0.1303  0.0065
21067W        W37251   9.295   8.739   1.714 -0.0418  0.0372 -0.0448
21068W        W37252   5.347  13.024   1.565 -0.1450  0.0423  0.2085
21069W        W37253  12.854  16.213   6.410 -0.3839 -0.1270 -0.0099
21070W        W37254   6.128   6.867   3.451  0.2115 -0.0541  0.0878
21071W        W37255  13.293  14.300   2.810  0.1001  0.0339  0.0851
21072W        W37256  10.061   7.916  12.421  0.1017 -0.1837  0.1164
21073W        W37257   0.772   2.908   1.434 -0.0170 -0.1252 -0.1368
21074W        W37258  14.800  10.522  14.426  0.0838 -0.1720  0.1164
21075W        W37259   3.173   9.930  14.438  0.1542 -0.1814  0.1773
21076W        W37260  16.910   9.747  11.928 -0.2415 -0.0618 -0.0924
21077W        W37261  13.798   6.545  13.105  0.1734  0.4328  0.2694
21078W        W37262   6.918  10.930   5.110 -0.0267 -0.0724  0.0940
21079W        W37263   6.786  16.660   2.768 -0.1773 -0.0380 -0.0601
21080W        W37264   1.320  12.474  15.284 -0.0666 -0.3081  0.0509
21081W        W37265   8.685   4.797   0.350 -0.0004 -0.1863  0.2045
21082W        W37266  14.574  16.168   1.200 -0.1795  0.3543 -0.3843
21083W        W37267   3.232  11.356   1.724 -0.0914  0.0356  0.5775
21084W        W37268  11.815   3.179  14.777  0.1720  0.2048  0.0646
21085W        W37269   4.259   5.922   0.210  0.0111 -0.1442  0.1370
21086W        W37270  11.930   1.713  12.055  0.0293  0.0459 -0.2885
21087W        W37271   6.719  17.348  13.940  0.1660 -0.0175  0.2670
21088W        W37272  11.918  12.284   1.765  0.1581  0.3901 -0.1831
21089W        W37273  13.496   9.995   0.356  0.0984 -0.2032 -0.2733
21090W        W37274   6.433   9.960   1.120 -0.1656 -0.1345  0.0085
21091W        W37275  15.347   3.824  14.937  0.5215 -0.1268  0.0521
21092W        W37276  10.238  10.438  12.165 -0.1357 -0.2887  0.2406
21093W        W37277  14.005  12.803   2.154 -0.1837  0.0352  0.0683
21094W        W37278   0.423   7.258   2.740  0.1279 -0.0370  0.0026
21095W        W37279   7.505  15.805   1.341 -0.2082  0.1472 -0.1999
21096W        W37280   7.935   3.428  15.948 -0.3021  0.1906 -0.3645
21097W        W37281   3.582   0.801   2.100  0.0040  0.0098 -0.3025
21098W        W37282   0.837   1.180  15.488 -0.2370  0.0273 -0.2223
21099W        W37283   9.971   6.120  15.862  0.0642 -0.1022 -0.0595
21100W        W37284   2.455   5.269   3.374 -0.0218  0.0392  0.1942
21101W        W37285   4.139   2.182  16.681  0.2065 -0.0842 -0.0782
21102W        W37286  12.408  16.423  13.514 -0.3193  0.0826 -0.0743
21103W        W37287  13.180  10.592  16.190 -0.1029 -0.1905  0.0233
21104W        W37288  13.683  14.628  12.228  0.0374  0.0398  0.0109
21105W        W37289   6.372   9.417  13.947  0.0581 -0.1258 -0.1230
21106W        W37290  16.509   1.508   1.973 -0.0619  0.0353 -0.0866
21107W        W37291   5.652  11.540   1.950  0.1999  0.1164  0.0344
21108W        W37292  10.143   9.101  12.093  0.3251 -0.1175 -0.0888
21109W        W37293   9.219   3.666  13.322  0.0960 -0.1195  0.0207
21110W        W37294   1.973  12.952  16.771  0.1696  0.1322 -0.2388
21111W        W37295  14.978  13.303   3.701 -0.0686 -0.1080  0.0029
21112W        W37296   6.458   4.417   6.586  0.2605  0.0765 -0.0392
21113W        W37297   7.795   2.840  14.734  0.1143  0.0470  0.2930
21114W        W37298   4.780  12.084  11.848  0.0728 -0.2817  0.0253
21115W        W37299  14.779  13.677  15.595  0.0745  0.2712 -0.1340
21116W        W37300   5.739   3.176   0.967 -0.4585  0.1068  0.1073
21117W        W37301   2.682  16.821   3.893  0.0808  0.0793 -0.0468
21118W        W37302  17.409   4.665  14.832 -0.1176  0.1684  0.0878
21119W        W37303  14.359   3.575  14.430 -0.0544 -0.0607 -0.0312
21120W        W37304   8.874   4.641   3.018 -0.1812 -0.2161  0.0016
21121W        W37305  11.638  16.180  12.562  0.0563 -0.2568 -0.0678
21122W        W37306   3.231  12.762   0.288  0.0378 -0.1507 -0.2842
21123W        W37307  16.192   0.905  12.448 -0.1918  0.0232 -0.3974
21124W        W37308  11.743  15.782   1.242 -0.4200  0.0002 -0.1383
21125W        W37309   4.590   0.008   2.721  0.0047  0.0031  0.1187
21126W        W37310   4.837   1.253   2.097 -0.3296  0.0864 -0.0160
21127W        W37311  16.467   9.346   3.141 -0.0075  0.0801  0.2377
21128W        W37312   1.724   7.722   4.978  0.0043  0.3748 -0.2211
21129W        W37313  10.300  17.779   0.226 -0.1491  0.0474  0.2915
21130W        W37314  16.812   2.426   4.717 -0.0222  0.1077  0.1327
21131W        W37315   5.453  13.493  15.972 -0.1965 -0.0771  0.0897
21132W        W37316  13.631   7.638  13.056 -0.1690 -0.2884 -0.0274
21133W        W37317  14.632   6.494  16.599 -0.0717 -0.1460  0.0162
21134W        W37318   0.841   1.412  16.555  0.2213 -0.0580 -0.0127
21135W        W37319   6.055  12.050  12.074  0.1580 -0.0339 -0.1975
21136W        W37320  12.826   7.897   0.878  0.1019 -0.3703  0.1566
21137W        W37321  11.994  16.760   2.144  0.2774 -0.0710 -0.2297
21138W        W37322  15.570   7.766   6.310 -0.2435  0.0442  0.1878
21139W        W37323   5.577   5.764   5.838 -0.0519 -0.0973 -0.2237
21140W        W37324  11.289   0.795  15.032  0.0088  0.0427  0.2644
21141W        W37325   6.753  11.330  14.974 -0.1618  0.1574  0.0695
21142W        W37326   0.529   9.220  14.196 -0.0380 -0.0795  0.5052
21143W        W37327   8.028  14.859  13.161 -0.2135  0.2672  0.1314
21144W        W37328   7.580   4.710   2.953  0.0593  0.0494 -0.0277
21145W        W37329  14.341   2.724  12.827  0.0494 -0.0097  0.0592
21146W        W37330  15.783   2.351  15.325 -0.1987  0.1898  0.0339
21147W        W37331   5.138  11.915   2.707  0.0530  0.3957  0.1056
21148W        W37332  10.798   1.076   0.360 -0.1389  0.0732  0.0012
21149W        W37333   9.494  11.817   1.345  0.1094 -0.2355 -0.2980
21150W        W37334   9.216   0.190  16.054  0.1946 -0.2449  0.0457
21151W        W37335  13.907  16.086   6.378  0.2135  0.3552 -0.2620
21152W        W37336  17.308   5.868   1.383  0.0583  0.2952  0.1279
21153W        W37337  10.828  11.556  16.317  0.3897  0.1972 -0.1591
21154W        W37338  14.125   3.975   1.047  0.1811  0.2532  0.1338
21155W        W37339  11.550   5.730   4.532  0.2221 -0.0581 -0.3959
21156W        W37340   7.832  17.096  13.330 -0.1776 -0.0731 -0.0514
21157W        W37341  14.639   6.615   3.259  0.2358  0.0119  0.0654
21158W        W37342   1.370   5.202   1.975 -0.1549 -0.3740  0.2305
21159W        W37343   1.143   6.202   1.425 -0.2026 -0.1237  0.0906
21160W        W37344   9.541   6.577  14.379 -0.1449  0.1157 -0.0787
21161W        W37345   5.592  11.068  11.907  0.3625 -0.0776 -0.0621
21162W        W37346   1.701  14.947  15.094 -0.3103  0.1992 -0.1524
21163W        W37347  11.516   3.891   4.276  0.1072  0.1125 -0.0829
21164W        W37348  14.644  12.999  13.824 -0.1316  0.0870 -0.1446
21165W        W37349  13.864   0.831   1.928  0.1190  0.2910 -0.1032
21166W        W37350  17.292   2.965  11.899  0.1008  0.0520 -0.2172
21167W        W37351  16.077  15.630  14.516 -0.2129  0.0475  0.0033
21168W        W37352   8.526   8.140  13.427 -0.0751 -0.1482 -0.0791
21169W        W37353   1.620   4.100   1.439  0.0737  0.1326 -0.2729
21170W        W37354   1.885   2.414  12.370  0.3516  0.0812  0.0914
21171W        W37355   2.230  12.526  15.541 -0.2184 -0.1139 -0.3584
21172W        W37356   2.434  12.523   0.823  0.4099 -0.2201  0.0775
21173W        W37357  11.441   7.913  11.162 -0.1399  0.1882  0.0582
21174W        W37358  14.356  16.329   4.037  0.2868  0.0866  0.0758
21175W        W37359   9.193   8.284  13.632 -0.3323  0.1825 -0.0752
21176W        W37360   8.254   2.313   6.414 -0.0736  0.1020  0.1051
21177W        W37361   3.512  14.669  14.262  0.0928  0.1329  0.0334
21178W        W37362   3.648   2.769   1.090  0.0344 -0.1991  0.0381
21179W        W37363   3.795   3.749  16.490 -0.0761  0.2718 -0.0152
21180W        W37364   2.913  17.389  14.196 -0.0529  0.0357 -0.3625
21181W        W37365   5.748   2.213   1.777  0.3009  0.1300 -0.2695
21182W        W37366   6.581  12.154   5.874  0.0441  0.0101 -0.2810
21183W        W37367  13.170  15.658  12.489  0.1264  0.2114  0.1390
21184W        W37368   1.803   9.567   6.318 -0.1933  0.1610 -0.1734
21185W        W37369   0.462  14.841  13.214  0.0245  0.0558  0.2537
21186W        W37370   3.447  13.026   2.447  0.1901 -0.3009 -0.0907
21187W        W37371  14.008   2.067   0.642 -0.2486 -0.0641 -0.0505
21188W        W37372  14.628  13.268  11.633 -0.0876  0.0665  0.0471
21189W        W37373   1.989   4.257   6.378  0.0566 -0.2337  0.0928
21190W        W37374   7.172   1.744  15.531 -0.0922  0.0019  0.1782
21191W        W37375  17.103  15.502   1.410 -0.1360 -0.0117  0.1538
21192W        W37376   0.447   1.643  12.659  0.1937  0.1173  0.1209
21193W        W37377   9.404   5.662   4.831 -0.1459 -0.0155 -0.0004
21194W        W37378   7.583  15.827  16.462  0.0103  0.0548  0.1927
21195W        W37379  12.272   9.396   4.961 -0.1641 -0.2244 -0.1283
21196W        W37380   8.311   3.055   1.595 -0.0295 -0.3693  0.0231
21197W        W37381   2.103   8.986   2.438  0.1788  0.1538  0.1206
21198W        W37382   5.308  14.370   1.395 -0.0657 -0.1748 -0.1115
21199W        W37383  15.735   3.252   0.787 -0.0544 -0.0415  0.2894
21200W        W37384   8.520  17.108   4.471  0.0515  0.0317  0.0775
21201W        W37385  10.388  15.740   2.872 -0.2046  0.0283 -0.2390
21202W        W37386   9.621  17.336   5.881 -0.1263 -0.0534 -0.0100
21203W        W37387   1.308   4.668   2.575  0.0523 -0.0588 -0.4866
21204W        W37388   4.235  11.123   4.172  0.2277  0.0144 -0.1071
21205W        W37389  12.691   2.018   3.186 -0.0472  0.4069  0.3275
21206W        W37390   1.512   8.141  15.134 -0.0690 -0.1356  0.0402
21207W        W37391  16.494  15.754  14.894 -0.0377  0.0079 -0.0921
21208W        W37392  14.286   4.257  11.750 -0.0749  0.0639 -0.0444
21209W        W37393  16.863  10.614   3.265  0.3199  0.0001  0.1507
21210W        W37394  14.229  16.192   3.540 -0.2066 -0.0360 -0.3584
21211W        W37395   1.654  10.945  12.178 -0.1778 -0.0893  0.0573
21212W        W37396   1.751   2.898   4.580 -0.1611 -0.0098  0.0878
21213W        W37397  13.843   9.343   4.866  0.3877  0.0478  0.1574
21214W        W37398  17.217  10.549  15.358 -0.1240  0.0462  0.2036
21215W        W37399   3.154  13.622  13.569  0.1402  0.0733 -0.1995
21216W        W37400  10.763   3.969   3.641 -0.0233 -0.0703 -0.0341
21217W        W37401   5.376   3.332  14.279 -0.0786 -0.1808 -0.0569
21218W        W37402   9.267  11.884  13.546 -0.0169 -0.0152 -0.1414
21219W        W37403  15.992  16.681  15.338 -0.0136  0.0038  0.1498
21220W        W37404   5.913  14.200   5.553 -0.3244  0.0132 -0.2213
21221W        W37405  15.915   8.451   5.305  0.2079 -0.1231  0.2069
21222W        W37406   3.550   4.053   0.490  0.1563  0.1075 -0.0807
21223W        W37407   0.618   5.681  10.893  0.1161 -0.1567  0.2604
21224W        W37408   1.092   6.034  14.909  0.3607 -0.0028  0.2741
21225W        W37409  13.160   8.880  14.438  0.1843 -0.0730  0.0352
21226W        W37410   5.104   7.606   0.624 -0.2723  0.0641 -0.1095
21227W        W37411  13.677   3.196  15.522  0.0571  0.0443 -0.1774
21228W        W37412   8.852   8.906   2.302  0.0807 -0.2577  0.0211
21229W        W37413  11.008  13.045   2.885 -0.0328  0.4896  0.1519
21230W        W37414  12.355   5.589   0.616  0.0077  0.1687  0.0680
21231W        W37415   1.000  17.556  12.686  0.3441  0.2199  0.3902
21232W        W37416  14.096   2.655   2.290  0.1322 -0.0619 -0.2711
21233W        W37417  13.311  14.747  15.373  0.0780 -0.2377 -0.1938
21234W        W37418  14.975  15.199   1.344  0.1429 -0.0078 -0.0331
21235W        W37419   1.005   3.626   2.250 -0.3447  0.1825  0.0401
21236W        W37420  10.617   3.805   4.144  0.0746  0.1345 -0.0433
21237W        W37421   0.602  12.647   1.403  0.1435  0.1478 -0.2801
21238W        W37422   7.753  16.413  11.349  0.0906 -0.0027  0.0876
21239W        W37423  12.278   7.189  13.302  0.1535 -0.2005 -0.2303
21240W        W37424  11.299  11.805  13.568 -0.1837  0.1287  0.4171
21241W        W37425  11.908  14.528   2.472 -0.0443 -0.0658 -0.1287
21242W        W37426  17.193   9.840   2.904  0.0021 -0.0194 -0.0292
21243W        W37427   0.043   9.114  16.763 -0.0173  0.2066 -0.0283
21244W        W37428  14.133  11.195  12.122 -0.1491  0.3259  0.2115
21245W        W37429   6.028   0.671   5.524  0.0378 -0.2762  0.1384
21246W        W37430   8.457   9.847   1.810  0.1859 -0.0404 -0.0610
21247W        W37431   6.424  15.845   3.908 -0.3875 -0.0844 -0.2345
21248W        W37432  15.063   4.114   4.466  0.0236 -0.0797 -0.0037
21249W        W37433   8.535  15.182   1.682  0.0632 -0.2280  0.2299
21250W        W37434  10.531   8.859  11.909  0.1577  0.2813 -0.1170
21251W        W37435  10.513  11.150   4.827 -0.1456  0.1764 -0.2395
21252W        W37436  15.367   2.115   1.926 -0.0367  0.0372 -0.3627
21253W        W37437  17.345   6.150  16.366  0.0437 -0.0237  0.1921
21254W        W37438   5.551  17.490   4.309  0.1861  0.0646  0.2055
21255W        W37439  15.859   9.915  12.781 -0.3129 -0.0097 -0.1298
21256W        W37440   4.893   1.917  15.205 -0.2416 -0.0275 -0.0320
21257W        W37441   4.060   8.264  16.457 -0.2472  0.1775 -0.1178
21258W        W37442   0.853   8.054  12.505  0.1874 -0.1567  0.4101
21259W        W37443   7.328  17.226  15.293 -0.1121  0.2606 -0.2782
21260W        W37444  14.819  15.684   1.333 -0.1014  0.0642 -0.0254
21261W        W37445   3.809  13.408  16.152 -0.0110  0.0573  0.3434
21262W        W37446   8.172   8.194  12.520  0.1129 -0.0880  0.0368
21263W        W37447   3.134   6.402  12.446 -0.0356  0.1863 -0.3592
21264W        W37448  15.798  16.881  13.222  0.0358  0.0477  0.0294
21265W        W37449   1.742  15.415   2.607  0.3103 -0.1922  0.1119
21266W        W37450  11.536   8.846  15.686  0.0557  0.1234  0.2835
21267W        W37451   7.006   2.549  12.014  0.0385 -0.1704 -0.3230
21268W        W37452  10.149   3.310   4.056 -0.0882  0.0358  0.0729
21269W        W37453  13.591   6.587   1.995  0.0977 -0.0465 -0.0628
21270W        W37454  11.419  13.914   1.513  0.2226 -0.3906 -0.0073
21271W        W37455  13.919   5.273   0.500 -0.0902 -0.1729 -0.4663
21272W        W37456   9.119   2.599   2.513  0.3009 -0.0481  0.0693
21273W        W37457  10.466   2.981  15.248 -0.0936 -0.3415  0.1316
21274W        W37458   1.295   9.581   1.175  0.0476  0.1399 -0.1978
21275W        W37459   8.430  10.831   4.439 -0.2611 -0.2370  0.0144
21276W        W37460   4.964  14.881  16.021 -0.0731  0.1365  0.0585
21277W        W37461   0.665  12.872  16.368  0.0559  0.1065  0.2635
21278W        W37462   8.734   3.902  14.109 -0.1471 -0.2184 -0.0308
21279W        W37463   2.244   7.573  14.768  0.5039 -0.0453  0.4103
21280W        W37464  12.539  11.787  11.884 -0.3626 -0.2529 -0.1305
21281W        W37465  17.194   3.791   4.582  0.0502 -0.2823 -0.0323
21282W        W37466  16.957  11.489   2.988 -0.1833 -0.1579 -0.3531
21283W        W37467  14.885   4.722   3.857  0.2379  0.0714 -0.1331
21284W        W37468  10.980   5.255  14.348 -0.0073 -0.2195 -0.2277
21285W        W37469  16.622   9.705   0.717 -0.0180  0.1185 -0.0079
21286W        W37470   5.478  11.317   5.164  0.0965  0.0703  0.2272
21287W        W37471  12.198   2.957   4.694  0.0045 -0.1723 -0.2464
21288W        W37472   3.678   5.459  14.712  0.0803  0.1462 -0.0360
21289W        W37473  13.394   1.439  15.064 -0.0406  0.2822  0.0657
21290W        W37474  17.736   8.031   2.695 -0.1129 -0.0088  0.1608
21291W        W37475   9.537   3.915   1.414 -0.0593  0.1319 -0.1426
21292W        W37476   1.927  12.383  11.610  0.1293 -0.0700 -0.2874
21293W        W37477   7.994   9.728   4.833 -0.1825 -0.0711 -0.0155
21294W        W37478   2.134   1.908  11.842  0.1561  0.1740  0.3734
21295W        W37479   8.287   4.278   2.880 -0.0684 -0.0935  0.1576
21296W        W37480   4.844   8.616   2.168  0.0803  0.0506  0.2821
21297W        W37481  10.282  16.732   4.735  0.1339 -0.1407  0.0750
21298W        W37482   2.693   6.068  11.983  0.1294  0.2458  0.1487
21299W        W37483  17.503  10.033   1.132  0.0950  0.2961 -0.0943
21300W        W37484   2.056   5.410   2.709 -0.1446  0.0787 -0.3135
21301W        W37485  17.141  11.802   0.065 -0.0269  0.0240 -0.0975
21302W        W37486   6.490  10.543   0.456 -0.1614 -0.1744  0.2903
21303W        W37487  15.564  13.589  12.924 -0.0007  0.0355 -0.4264
21304W        W37488  10.966  12.509   4.188 -0.0429 -0.4282 -0.0800
21305W        W37489   1.213   8.929  15.298 -0.0956  0.3620 -0.1777
21306W        W37490  12.014   3.746  12.714  0.1028 -0.4211 -0.0482
21307W        W37491  16.649  17.201  15.892 -0.0018 -0.0388 -0.0373
21308W        W37492   9.508   2.978  16.275 -0.2305  0.2185 -0.0951
21309W        W37493  10.293   0.420   1.502 -0.0397 -0.2137  0.0878
21310W        W37494   2.268   0.593   0.310  0.0466  0.0256  0.0061
21311W        W37495   3.588   9.394  14.845 -0.0616 -0.0106 -0.0199
21312W        W37496  10.039  14.155  12.470 -0.1471  0.1415  0.2133
21313W        W37497   2.172   8.703   3.418 -0.4015 -0.1651  0.4281
21314W        W37498   6.777  16.786  15.740  0.0711 -0.1881  0.1121
21315W        W37499   9.981  16.465   0.714 -0.1042 -0.0679 -0.0042
21316W        W37500  11.255   9.530   1.683 -0.2180  0.0078 -0.2366
21317W        W37501   0.731   0.695   3.352  0.1883  0.1342  0.1799
21318W        W37502  15.820  17.555   3.617  0.1930 -0.0410  0.3412
21319W        W37503   6.435   6.905  12.431 -0.1170 -0.2545 -0.1770
21320W        W37504  10.621  15.555  14.278  0.1395  0.0309 -0.2880
21321W        W37505   5.367  16.017   5.001 -0.0192  0.1274  0.1603
21322W        W37506  12.362   4.684  14.751  0.0043 -0.2559  0.2050
21323W        W37507   7.900  13.258  13.582  0.4841 -0.0758 -0.0440
21324W        W37508   8.394   3.411   0.619  0.4340 -0.2595 -0.0474
21325W        W37509  14.569   5.522  14.796  0.1406  0.1423  0.0235
21326W        W37510   7.826  15.461   0.290  0.3199 -0.1586 -0.4985
21327W        W37511   6.783   8.025  16.332 -0.3168  0.0766  0.1086
21328W        W37512  17.301   3.240   3.521  0.0944  0.0467  0.2224
21329W        W37513  12.287   3.223  16.019 -0.0255  0.1562 -0.2075
21330W        W37514  17.431   5.500   5.125 -0.0703  0.1387  0.0465
21331W        W37515   2.311   9.318   5.409  0.1699  0.1728 -0.1606
21332W        W37516   6.062  12.861  12.348  0.3216  0.0052  0.1672
21333W        W37517   5.491   9.383   2.370  0.1639 -0.2073  0.4621
21334W        W37518  10.019  14.065  11.126 -0.0669 -0.1124 -0.1971
21335W        W37519  12.335   6.801  12.251  0.0006 -0.0724  0.3221
21336W        W37520   8.744   6.547   2.838 -0.0541  0.1463 -0.0755
21337W        W37521  11.573   7.327  13.833 -0.0740 -0.2372 -0.0167
21338W        W37522  10.450   1.926  11.934 -0.1185  0.0045 -0.1775
21339W        W37523   8.543   4.222  13.697  0.0719 -0.1678 -0.1712
21340W        W37524   1.883   2.507  14.775 -0.0599  0.2167  0.0565
21341W        W37525   1.704  11.314   0.299  0.0071 -0.1969  0.3605
21342W        W37526   6.911  14.124   0.274  0.0362  0.1318 -0.0974
21343W        W37527  10.940   3.825  14.941  0.0814 -0.0480 -0.1477
21344W        W37528  14.758   6.390  15.544  0.0600  0.1005 -0.1206
21345W        W37529  11.180   9.279  13.161  0.0424 -0.1936  0.2905
21346W        W37530   0.085   5.091   4.052 -0.1402 -0.2476  0.3149
21347W        W37531   5.359   1.144   5.177  0.0834 -0.1141  0.0044
21348W        W37532   9.565  15.720  14.056 -0.3613 -0.3389 -0.1336
21349W        W37533  10.092   2.296  13.201  0.0557 -0.1626  0.0886
21350W        W37534  15.632  12.054   0.797  0.3181  0.0458 -0.0531
21351W        W37535  13.283   1.505   3.440  0.0163 -0.0139 -0.1521
21352W        W37536  17.464   0.097  14.892  0.0768 -0.0501  0.2285
21353W        W37537   9.051   9.476   1.352 -0.0841 -0.2328  0.2586
21354W        W37538  10.906   5.419   1.606  0.3003  0.2787 -0.2124
21355W        W37539   9.151   5.076  16.433  0.1516  0.0352 -0.2246
21356W        W37540  17.116  15.874   1.002 -0.1932 -0.1756 -0.2267
21357W        W37541   1.718   3.157   0.160 -0.0841  0.0546  0.1908
21358W        W37542   5.125  14.598   2.369 -0.2745  0.0057  0.2898
21359W        W37543   3.739   5.571   1.063  0.1861 -0.2474  0.2030
21360W        W37544   1.418   5.860  13.086 -0.0336 -0.2480 -0.1176
21361W        W37545   6.208  12.031   4.626 -0.0846 -0.2478  0.0007
21362W        W37546   8.919   4.540   5.016 -0.1536  0.1311 -0.1347
21363W        W37547  16.848   7.429   3.752  0.0112 -0.2630 -0.0536
21364W        W37548   6.799  14.721  13.555 -0.2756  0.1740 -0.0260
21365W        W37549   0.773   7.436   3.744 -0.2892 -0.1102 -0.3287
21366W        W37550  12.815   8.253   1.504  0.1178  0.1797  0.1692
21367W        W37551   7.957   2.999   5.736  0.0581 -0.0307 -0.0711
21368W        W37552   1.006  15.039  12.046  0.0572  0.2966  0.2571
21369W        W37553   6.320   8.405  13.691  0.0188 -0.0674 -0.1160
21370W        W37554   7.990   3.056  16.722 -0.1501 -0.0335 -0.0554
21371W        W37555   4.115  16.917   1.593 -0.1214  0.0315 -0.2681
21372W        W37556  14.259  11.795  12.913  0.1949 -0.3394 -0.3151
21373W        W37557   6.087  17.228   1.618  0.3266  0.0491  0.0718
21374W        W37558  17.362  16.548  15.451 -0.2023 -0.1142  0.0519
21375W        W37559   7.025  16.500   2.396 -0.0922 -0.1129  0.1952
21376W        W37560   1.877   6.511  15.952 -0.2035 -0.3776 -0.0204
21377W        W37561  11.640   5.124   2.536  0.1164 -0.1129 -0.2557
21378W        W37562   4.369  16.955  13.291 -0.2036  0.1219  0.0053
21379W        W37563   6.116   4.626  11.550 -0.2373  0.3209 -0.0964
21380W        W37564  10.608   3.090  13.801 -0.2587  0.0047 -0.2187
21381W        W37565   6.625  10.294  13.792  0.1541  0.0280 -0.1323
21382W        W37566   7.112  10.709   3.226  0.0850 -0.0924 -0.1083
21383W        W37567   0.837  12.728   5.651 -0.0314 -0.1597 -0.0418
21384W        W37568  17.485  15.732   4.847 -0.0141  0.1150 -0.3187
21385W        W37569   7.022  17.699   3.803 -0.0986 -0.3219 -0.2574
21386W        W37570  13.181  15.397   5.478 -0.0966  0.1415  0.2171
21387W        W37571  14.496   9.852  11.667 -0.3037 -0.3088 -0.0286
21388W        W37572   9.847   6.852   5.740  0.0058 -0.1008  0.3500
21389W        W37573  10.601  14.946   3.577  0.0553 -0.3277  0.0693
21390W        W37574   3.970  12.520   4.583  0.0570 -0.0313  0.1743
21391W        W37575  11.478  15.682  14.288  0.1339 -0.0691  0.2864
21392W        W37576   5.346   8.187   4.548  0.2861 -0.1886 -0.3110
21393W        W37577  10.455  12.660   1.209  0.1208 -0.3254 -0.0599
21394W        W37578   2.831   7.618   1.597  0.1386 -0.1447 -0.1567
21395W        W37579   6.729   3.617   5.709  0.0603  0.0288 -0.1170
21396W        W37580   8.143   3.363  13.131 -0.0676  0.1330  0.2285
21397W        W37581  12.532   9.152   1.842 -0.0257 -0.2015  0.1925
21398W        W37582  12.401   2.219  12.833  0.1467 -0.4064 -0.2031
21399W        W37583   1.569   6.809  13.891 -0.3902 -0.1527  0.0357
21400W        W37584   8.124  11.633   0.559 -0.2545 -0.0412  0.0724
21401W        W37585  10.947   7.551  11.958 -0.1601  0.0254 -0.2311
21402W        W37586  13.515   3.668  12.165  0.2548  0.2689 -0.0025
21403W        W37587   6.078  10.654  15.538  0.3059  0.1534 -0.1142
21404W        W37588   1.813  14.490   3.274  0.5920  0.3458  0.2484
21405W        W37589   6.001   3.034  16.372  0.0626  0.1884  0.0905
21406W        W37590   1.840   7.553   0.332  0.1468 -0.1030  0.4476
21407W        W37591   1.821   5.975  11.902 -0.2182  0.0387  0.0933
21408W        W37592  11.016   7.250  10.660  0.1050 -0.1612 -0.0042
21409W        W37593  11.526  11.849   3.974 -0.2309 -0.3021  0.0305
21410W        W37594  12.017   8.149   0.165 -0.0743  0.0183 -0.1666
21411W        W37595   7.969   7.494  14.529 -0.0121  0.0267 -0.0929
21412W        W37596  11.287   2.114   2.270 -0.1729  0.0103  0.1060
21413W        W37597  11.374  12.996  13.900 -0.1851 -0.0636 -0.0849
21414W        W37598  17.655  16.795   5.190  0.2718  0.2326  0.3238
21415W        W37599   5.494  17.218  11.299 -0.0471  0.7457  0.2469
21416W        W37600   0.990   4.471  14.012  0.0961  0.0620  0.0272
21417W        W37601   6.472  11.531   2.248  0.1082 -0.0080  0.3734
21418W        W37602  17.690   4.885   6.323 -0.0902 -0.0535 -0.1662
21419W        W37603  17.720  17.767   3.688 -0.1212  0.1637 -0.4498
21420W        W37604   0.824  17.185  16.136  0.0414 -0.0331  0.0277
21421W        W37605  13.092   3.805   0.548  0.2858 -0.3647  0.1282
21422W        W37606   1.341   1.963   1.143 -0.1921 -0.0896 -0.2067
21423W        W37607   7.476  10.257  13.659  0.5783  0.1738 -0.4015
21424W        W37608   8.608   7.754  13.854 -0.2393  0.0093 -0.0024
21425W        W37609  13.700   2.249  12.241 -0.0020 -0.0930 -0.0749
21426W        W37610   5.036   2.875   1.521 -0.3380 -0.3459  0.0891
21427W        W37611   2.254  14.836   4.632 -0.3294 -0.0075 -0.2708
21428W        W37612  10.113  12.951  15.281  0.0729  0.0444 -0.0448
21429W        W37613   1.028   0.084   0.544  0.2775  0.2532  0.0787
21430W        W37614  10.547   6.415  13.988 -0.2859  0.2005 -0.3017
21431W        W37615   5.060  12.675   5.503 -0.1893 -0.1300 -0.1082
21432W        W37616   1.360   1.325   1.124 -0.0478  0.0351  0.0932
21433W        W37617   7.167   8.105   1.551  0.2033 -0.0671  0.1566
21434W        W37618   2.119   7.791   6.045 -0.1201  0.0322  0.2439
21435W        W37619   3.217   9.731  16.721  0.0158  0.2470 -0.0528
21436W        W37620   6.416  16.187   0.506  0.1094 -0.2653 -0.1487
21437W        W37621   9.298  14.626  15.187 -0.2267 -0.0831  0.3901
21438W        W37622  13.768   3.366  16.273 -0.1409 -0.1536  0.1853
21439W        W37623  13.299  12.039  12.940  0.1387  0.1251 -0.1263
21440W        W37624  16.940   6.960  16.226 -0.0035  0.4239 -0.0143
21441W        W37625  17.704   0.105   5.575 -0.0012 -0.0970 -0.0921
21442W        W37626  17.204   0.147   0.638  0.0659 -0.1485 -0.1091
21443W        W37627   5.934   7.626  14.002  0.0781  0.0996 -0.0887
21444W        W37628   2.277  15.133  16.099 -0.0339 -0.1737 -0.0373
21445W        W37629   8.704  12.422   3.726 -0.0263 -0.1203  0.0854
21446W        W37630   4.181   5.603  12.307  0.3592 -0.3039 -0.1462
21447W        W37631   7.609   2.383   5.249  0.2344 -0.2218  0.1974
21448W        W37632   8.665  11.110   3.340  0.3155  0.3006  0.0204
21449W        W37633   0.878   8.917  14.023  0.1288  0.1343  0.0436
21450W        W37634   4.210  13.241   5.436 -0.0594  0.2171  0.0534
21451W        W37635  12.303   2.585  14.250  0.1416  0.0138  0.3143
21452W        W37636   3.978   3.950   1.862 -0.1831  0.0509  0.1369
21453W        W37637   0.853  12.957  12.524 -0.2259  0.3331 -0.1917
21454W        W37638  14.140  15.378   5.137 -0.2064  0.0330  0.0646
21455W        W37639  17.084  10.062  15.227 -0.1718  0.0342 -0.0268
21456W        W37640  11.998  15.199  12.168 -0.1941  0.3273 -0.0972
21457W        W37641   5.937   8.448  15.739  0.2442 -0.1385 -0.1803
21458W        W37642  13.475  11.725   2.572  0.0701  0.1611  0.0248
21459W        W37643  17.489  15.563   2.898 -0.1872  0.1252 -0.2028
21460W        W37644  11.379  13.238   2.644 -0.0243 -0.0505  0.2630
21461W        W37645  14.583   0.989  12.661  0.2804  0.1561 -0.1510
21462W        W37646   4.453   9.099   0.877  0.2872  0.2104  0.2242
21463W        W37647   6.390   7.025  14.833 -0.1644  0.1426 -0.1066
21464W        W37648  12.961   1.923  11.654  0.0563 -0.0033 -0.1190
21465W        W37649  15.894   7.553   4.726 -0.1208  0.0623  0.1747
21466W        W37650  13.691  12.785  13.160  0.2129 -0.2456  0.0331
21467W        W37651   4.957   8.358   1.660  0.2589 -0.2730 -0.0043
21468W        W37652  17.248   1.625  14.578  0.0247 -0.0019 -0.1967
21469W        W37653  13.198   7.418  15.975 -0.2521  0.1613  0.2960
21470W        W37654   7.550  16.111  15.708  0.0490 -0.0344  0.1767
21471W        W37655   1.801  13.568   3.321  0.2090 -0.2333  0.0150
21472W        W37656  16.283   3.663   0.900 -0.3654  0.0106  0.0706
21473W        W37657  16.457   4.938  15.224 -0.1465 -0.0722 -0.0223
21474W        W37658  10.382   5.309   2.440 -0.1363  0.1401 -0.0802
21475W        W37659   7.310   7.972  13.573 -0.0288 -0.0267  0.2961
21476W        W37660   3.433   4.084  16.685 -0.3130  0.0621 -0.0575
21477W        W37661   4.040  17.273  15.731  0.4274  0.0030 -0.0853
21478W        W37662  10.884   1.382   2.908 -0.1817 -0.0014 -0.2017
21479W        W37663  16.310   1.826  13.980 -0.1698 -0.2219  0.0205
21480W        W37664   1.841   1.014   1.293 -0.1074 -0.0396  0.0935
21481W        W37665  13.821   7.387  11.536 -0.3591  0.1792 -0.3620
21482W        W37666   5.731   2.551  12.644  0.1133 -0.2615 -0.0223
21483W        W37667   4.772  10.107  14.299 -0.1698  0.0798  0.1554
21484W        W37668  17.353  12.399   1.873  0.4728 -0.0934  0.0580
21485W        W37669   6.718  11.582  12.480 -0.2999 -0.0795  0.1607
21486W        W37670   8.514  17.398  11.533 -0.1584 -0.1061  0.0246
21487W        W37671   4.738  12.129   4.821  0.2273 -0.1994 -0.0680
21488W        W37672  17.240  15.890   2.518  0.3127  0.0744  0.1373
21489W        W37673   2.855   7.045   0.543  0.0529  0.0557  0.2273
21490W        W37674  12.294  12.516  15.537  0.3794 -0.0162  0.0850
21491W        W37675   3.300  15.735   5.095  0.1058  0.5342 -0.0356
21492W        W37676   4.956  15.471  14.538  0.2200  0.3120 -0.2435
21493W        W37677  17.883   1.209  13.969 -0.2406  0.1750 -0.2357
21494W        W37678   4.996  15.513   3.381 -0.3483  0.0547 -0.4210
21495W        W37679  16.076  14.558  16.205 -0.1473  0.0970  0.0455
21496W        W37680  15.577   7.386   4.271  0.0723  0.1046  0.2880
21497W        W37681  10.121  17.112  11.556 -0.2826 -0.0902  0.3725
21498W        W37682   2.191   8.307   2.937 -0.0919 -0.0805  0.2614
21499W        W37683   8.941  16.708  16.939  0.1783  0.0363 -0.1524
21500W        W37684   8.161   6.783  12.170 -0.3005 -0.1035 -0.5006
21501W        W37685   8.534   5.018   3.809 -0.0172 -0.0026  0.0269
21502W        W37686   3.632   0.988   2.982 -0.1469 -0.1629  0.1551
21503W        W37687  15.778   0.837  13.302  0.3072 -0.2036 -0.6278
21504W        W37688  14.101   9.437  16.925 -0.3449 -0.0588  0.0816
21505W        W37689   7.243   0.361  14.137 -0.1657  0.2758 -0.2665
21506W        W37690   6.644   4.142  12.415 -0.0902 -0.0707 -0.1869
21507W        W37691   0.542   2.673   5.873 -0.0215 -0.0101 -0.0003
21508W        W37692   9.441   8.989   0.809  0.0416 -0.0513  0.3553
21509W        W37693  16.271  15.384   0.792 -0.0793 -0.1500 -0.1886
21510W        W37694   6.277  16.701  14.542  0.0715 -0.2535 -0.1569
21511W        W37695  16.381  15.230  14.876  0.0200 -0.1812  0.0756
21512W        W37696  13.325   3.422  15.879 -0.2564  0.1633 -0.0914
21513W        W37697   6.850   2.430  15.691  0.1732  0.0209  0.0168
21514W        W37698   2.618   7.996  14.008  0.2818 -0.0900  0.2185
21515W        W37699   7.471   3.707  13.341  0.0330  0.1680 -0.1185
21516W        W37700   5.616  14.984  11.221 -0.0443  0.1035  0.0005
21517W        W37701  10.617   6.866   4.424  0.0370 -0.0586 -0.0061
21518W        W37702  11.496  16.478  14.968  0.3430  0.0500  0.1787
21519W        W37703  11.195  10.057  11.883  0.0513 -0.1942 -0.0997
21520W        W37704   2.885   6.706  15.649 -0.1141  0.0150  0.1253
21521W        W37705   4.781   2.494   3.490  0.1217  0.1622  0.1115
21522W        W37706  11.157  12.909  15.823 -0.2348  0.1758 -0.4039
21523W        W37707   0.253  13.700   3.102 -0.1343  0.0093 -0.1586
21524W        W37708   0.173  15.583  12.998  0.0823 -0.0024 -0.0809
21525W        W37709   3.635   5.491  14.250 -0.0928  0.0611 -0.0805
21526W        W37710   5.261   6.892  13.503  0.0887  0.0004 -0.2244
21527W        W37711  16.600   9.771  15.351 -0.2300  0.2478  0.2999
21528W        W37712  16.572   4.723   0.120 -0.1303 -0.2027  0.0660
21529W        W37713  11.435  10.723  15.959 -0.0562  0.0374  0.0425
21530W        W37714   5.285  12.079   4.911 -0.0161 -0.1919  0.0776
21531W        W37715   3.814   6.067  15.849  0.2847  0.2930  0.1099
21532W        W37716   6.146  12.663   3.616 -0.0725 -0.3067 -0.0984
21533W        W37717   1.142   3.021   3.721  0.1343 -0.1139 -0.0034
21534W        W37718  17.529   6.174   4.399  0.0766  0.0154  0.0452
21535W        W37719   9.014   5.914   2.342  0.0035 -0.2069 -0.0054
21536W        W37720  14.764  16.071  14.350 -0.0987  0.0934 -0.3181
21537W        W37721  14.983  11.443  15.156  0.1606 -0.4686  0.0207
21538W        W37722   4.106   9.265   6.232  0.0967  0.0910 -0.0886
21539W        W37723   4.343   0.313   5.252  0.1090  0.0080  0.2466
21540W        W37724  17.603   8.996  11.697  0.0941  0.1311  0.5380
21541W        W37725   7.833  10.585   0.535  0.1424 -0.1960  0.2825
21542W        W37726  14.661  13.647   3.967  0.0974 -0.0024 -0.2826
21543W        W37727   7.825  15.061   6.149 -0.3007 -0.0436  0.1492
21544W        W37728  17.398   7.868   4.422 -0.2823  0.1249  0.1643
21545W        W37729   4.618   8.570   0.932  0.0181  0.0260  0.1170
21546W        W37730  13.015  13.987  15.669  0.2446 -0.1098  0.0009
21547W        W37731  12.994  11.515   1.792 -0.0927  0.1064 -0.1395
21548W        W37732  13.309   1.058   3.275 -0.3053 -0.0842 -0.4059
21549W        W37733   4.623  11.262   1.195 -0.0029  0.0888 -0.0569
21550W        W37734  10.460   6.979  12.631 -0.0059  0.0576 -0.0582
21551W        W37735  17.275   8.956  12.866 -0.2067  0.1940  0.0225
21552W        W37736   6.207   3.593   4.316  0.4893 -0.0088  0.1238
21553W        W37737  12.712  15.566  12.274 -0.0801  0.1565 -0.0070
21554W        W37738  14.382   0.871  12.186  0.2757  0.1437 -0.1458
21555W        W37739  13.586   3.290  14.614 -0.0855 -0.1871  0.2992
21556W        W37740   4.955   4.311   2.233  0.0881  0.0269 -0.1783
21557W        W37741  11.113   1.377   5.721 -0.0179 -0.5183  0.4647
21558W        W37742   7.466  11.867   3.107  0.0062  0.1979 -0.0879
21559W        W37743   2.493   3.039   2.268 -0.2707 -0.1023 -0.1935
21560W        W37744  12.446  17.689  11.324 -0.2163  0.3296  0.1837
21561W        W37745  14.842   4.933  15.945 -0.2328 -0.1624 -0.1207
21562W        W37746   0.143  14.191   3.129  0.0852  0.0986  0.4058
21563W        W37747   7.541  16.818  12.068  0.0940 -0.0292  0.0310
21564W        W37748  14.923  14.727   5.683 -0.1818 -0.0496 -0.0433
21565W        W37749  12.990  11.757   2.282  0.3929  0.1194  0.2326
21566W        W37750   7.120   8.905  13.307 -0.2498 -0.3974 -0.3977
21567W        W37751   5.298  17.380   0.100 -0.0755  0.4839 -0.0090
21568W        W37752   8.846   5.159  12.884  0.0129 -0.1376  0.0324
21569W        W37753  12.304  16.289   2.467  0.0230 -0.3630 -0.3324
21570W        W37754  14.731   8.808  14.181 -0.0731 -0.2787 -0.0941
21571W        W37755   6.291  15.992   3.344 -0.1963  0.0331 -0.1966
21572W        W37756  17.765  15.886  16.265  0.0289 -0.1349  0.3355
21573W        W37757   0.973   8.536   1.634  0.2365  0.3383 -0.1238
21574W        W37758  11.983  16.147  12.915  0.1501 -0.0831  0.1421
21575W        W37759   6.774   9.773  15.965 -0.1148  0.0238  0.0304
21576W        W37760   7.551   2.854   3.681 -0.0613  0.1148 -0.0247
21577W        W37761   7.278  10.046   4.520  0.0794 -0.3776  0.0941
21578W        W37762  12.521  14.144   3.389 -0.1357  0.4081  0.1606
21579W        W37763  13.592   2.071   2.705 -0.2610  0.0224  0.2440
21580W        W37764   3.406  13.454   5.460 -0.0245  0.0419  0.3732
21581W        W37765   0.528   2.507   2.214 -0.0473  0.0680 -0.1562
21582W        W37766   7.224   2.375   5.673 -0.2699  0.1811 -0.1304
21583W        W37767   8.427   3.865   3.123 -0.1281  0.0315 -0.1600
21584W        W37768   8.245   8.905   4.307 -0.1571 -0.0890 -0.1636
21585W        W37769  15.771   4.225   2.173  0.2891 -0.1684 -0.0058
21586W        W37770   5.447   4.911   2.871  0.0828 -0.3311 -0.1197
21587W        W37771   4.197   6.297   2.337  0.0103  0.0386  0.0172
21588W        W37772  11.017   2.840   1.490 -0.4511 -0.1530 -0.0166
21589W        W37773  13.199  15.143  13.967 -0.1439 -0.0412 -0.1340
21590W        W37774   8.987  13.177   4.941  0.0156 -0.2033  0.0783
21591W        W37775  16.681  16.267  11.532 -0.1119 -0.1362 -0.3072
21592W        W37776   7.654  17.638   4.423  0.0114 -0.1207 -0.1064
21593W        W37777   3.647  16.128  16.212  0.1824 -0.4486 -0.1019
21594W        W37778  13.035  17.340   4.140 -0.2013 -0.0329 -0.0748
21595W        W37779  14.866   9.126   4.206 -0.1007 -0.2806 -0.0822
21596W        W37780   9.730   5.084  15.307 -0.0814  0.0792  0.3295
21597W        W37781  10.299   4.884  12.569  0.0206 -0.1113 -0.0509
21598W        W37782  10.246   3.376  12.532 -0.0334 -0.2649 -0.1246
21599W        W37783  16.593  10.249   3.468  0.2667 -0.2368  0.0680
21600W        W37784   0.846   1.460   4.514  0.0847  0.0196 -0.0079
21601W        W37785  16.406  13.015  16.100 -0.1232  0.0958  0.1084
21602W        W37786   6.357   3.989   5.544 -0.0946  0.0287 -0.3864
21603W        W37787   9.125  10.713   1.166 -0.1772  0.0555  0.1900
21604W        W37788   4.214  17.309   0.833 -0.1516  0.1288 -0.4374
21605W        W37789   8.610  17.559   0.747  0.0324  0.0464  0.3584
21606W        W37790  15.230   3.700  14.172  0.0954 -0.3309 -0.0112
21607W        W37791   9.219   3.908   2.064  0.0496 -0.0689 -0.0403
21608W        W37792   3.019   1.817   2.003  0.0924 -0.1369  0.2798
21609W        W37793  15.754   7.558   3.327 -0.1416  0.2195  0.1179
21610W        W37794  10.161   5.477   1.976  0.0957  0.0648 -0.0276
21611W        W37795   5.449   2.440  15.564 -0.1079  0.1942 -0.2253
21612W        W37796  13.270   4.035   4.442 -0.2314  0.1551  0.2202
21613W        W37797   6.487   9.812   2.795 -0.1326  0.3439 -0.2354
21614W        W37798   6.402  12.837   5.332  0.0852 -0.2010  0.0206
21615W        W37799   6.859  16.961   5.340 -0.0964 -0.0723 -0.2502
21616W        W37800   0.788   5.630  14.759  0.0566  0.2657  0.0801
21617W        W37801   1.310   6.140   4.888  0.0119 -0.2757  0.1753
21618W        W37802   2.160   1.337   4.505 -0.1354 -0.0383 -0.0195
21619W        W37803   7.486  14.929  13.189  0.1250  0.1121  0.0039
21620W        W37804  14.016   1.455  13.508  0.0792  0.3212 -0.0995
21621W        W37805   4.302  12.796  11.628  0.0799  0.1391  0.2023
21622W        W37806   4.873   7.348   2.919  0.0422 -0.4287  0.2070
21623W        W37807   7.771  10.115   3.455  0.0619  0.2236  0.0701
21624W        W37808  14.069  16.634  12.852 -0.1689 -0.0196  0.1183
21625W        W37809  16.797   1.379  13.382 -0.0075 -0.2336 -0.3726
21626W        W37810  15.243   1.270   2.002  0.2081 -0.0627  0.2405
21627W        W37811   0.432   4.104  12.975  0.1463  0.2901 -0.0649
21628W        W37812  11.718  12.491  12.391  0.0441 -0.1823  0.0228
21629W        W37813   3.252   3.731  14.299 -0.0504  0.3225  0.0376
21630W        W37814   6.516   4.604   2.592 -0.2100  0.3984 -0.0519
21631W        W37815   4.993   6.021  13.677 -0.0781 -0.2852 -0.0835
21632W        W37816  14.615  14.473   0.343 -0.0391  0.0539 -0.0092
21633W        W37817   9.623  13.430   1.671  0.2987  0.0627 -0.2101
21634W        W37818  14.718  10.428   4.525 -0.3703 -0.2677 -0.0023
21635W        W37819  15.347   6.274   3.728 -0.2715  0.1497 -0.1762
21636W        W37820  12.439  12.600  16.396  0.2224  0.0041  0.2383
21637W        W37821  10.331  15.132  14.375  0.0547  0.0924  0.0132
21638W        W37822   6.470   7.177  14.295  0.1944 -0.2068  0.1594
21639W        W37823   7.459   0.058   2.555 -0.2386  0.1098 -0.2668
21640W        W37824  17.246  16.309   2.307  0.0860  0.2325  0.0135
21641W        W37825   8.682  11.232  16.720  0.3301  0.1466  0.0181
21642W        W37826   5.831   2.388   0.979 -0.0038 -0.0826 -0.1897
21643W        W37827   2.106   3.891  12.678  0.3848  0.0901 -0.3384
21644W        W37828  15.388   4.821   6.188  0.0619  0.0273  0.0978
21645W        W37829   1.193   8.720  12.809 -0.0376  0.2861  0.0836
21646W        W37830   7.200  11.957   4.682 -0.0920 -0.0460  0.1412
21647W        W37831  17.583   9.240  15.986 -0.1766 -0.0308 -0.1437
21648W        W37832   6.353  11.293   3.187 -0.0748 -0.2434  0.0662
21649W        W37833   3.105   5.412   2.542 -0.2487  0.0113  0.1131
21650W        W37834   1.904   8.249  16.381 -0.3207  0.0700  0.0874
21651W        W37835  15.391  16.116   3.723 -0.1522 -0.1752 -0.0621
21652W        W37836   8.771  12.122   6.437  0.0028 -0.0132  0.1095
21653W        W37837   6.574  11.390  16.216  0.0197  0.0199  0.0945
21654W        W37838   8.844  14.506  14.830 -0.0272  0.1189 -0.0946
21655W        W37839   8.270  14.333   5.860 -0.0535  0.1001 -0.0871
21656W        W37840   1.476   4.382  13.869 -0.0547  0.0057  0.1777
21657W        W37841  13.076   0.217   2.483 -0.0607  0.0551  0.0223
21658W        W37842   2.928   5.644   4.612  0.2268 -0.0202 -0.2512
21659W        W37843   6.776   2.958   1.063  0.2619 -0.1446  0.1786
21660W        W37844  11.487   5.229   4.741 -0.2215 -0.0035 -0.2407
21661W        W37845   7.207   3.165  15.962 -0.4504  0.1430  0.2273
21662W        W37846  15.233   4.328  14.993 -0.3350 -0.0629  0.2983
21663W        W37847   8.147   5.666   1.330 -0.1079 -0.0134  0.3008
21664W        W37848  17.096   8.250   5.076 -0.1056  0.0323 -0.0204
21665W        W37849   5.092   7.792  12.432 -0.3457  0.2913  0.0401
21666W        W37850   0.749  14.515  15.910 -0.2362  0.2649  0.2966
21667W        W37851   0.059   7.872   3.669 -0.2294 -0.2150 -0.1995
21668W        W37852  12.927  16.344   5.071 -0.0189  0.1136 -0.1404
21669W        W37853   3.342  14.827  12.609  0.4167 -0.2081  0.0808
21670W        W37854   8.812   9.621   4.540  0.1883 -0.0805 -0.0336
21671W        W37855   4.282   5.621   2.435  0.0405  0.0671  0.0715
21672W        W37856  14.810   2.149  15.154  0.0398 -0.2944  0.2734
21673W        W37857   5.299  17.271  15.052  0.0918  0.1446 -0.2247
21674W        W37858  15.812  16.821   2.375  0.2820 -0.0803  0.1312
21675W        W37859  17.819   3.340   0.469 -0.3781  0.2351 -0.0673
21676W        W37860   5.347  12.508   3.654 -0.0797 -0.1178  0.2742
21677W        W37861  13.695   8.578  12.083 -0.0156  0.0724 -0.0582
21678W        W37862   8.968   6.878   6.465 -0.0233  0.0415  0.1922
21679W        W37863  15.328   9.062  12.366  0.1892 -0.1398  0.0971
21680W        W37864  13.742   9.396   4.367 -0.1228 -0.0938 -0.4186
21681W        W37865   1.989   6.908  16.795  0.0829 -0.0980  0.0082
21682W        W37866   3.279   6.581   4.642  0.1025  0.0279 -0.0907
21683W        W37867  11.643  16.844  13.893 -0.4965  0.0588  0.0167
21684W        W37868  12.510   5.738  16.414 -0.0139 -0.3476  0.2303
21685W        W37869  17.532  12.285   0.670  0.0471 -0.0941 -0.2004
21686W        W37870  10.982  11.800   3.526 -0.1789 -0.0009 -0.2711
21687W        W37871  11.002  11.292  14.946 -0.1847  0.1286  0.2666
21688W        W37872  16.638   0.762   3.554 -0.0936  0.0187 -0.1801
21689W        W37873   7.250   7.017   5.309 -0.1211 -0.0582  0.1864
21690W        W37874   7.911   6.935  15.846 -0.1344 -0.1206  0.1484
21691W        W37875  14.422   3.021   4.692  0.0445 -0.1807 -0.2268
21692W        W37876   9.140   6.321   4.788  0.0673 -0.0439  0.0499
21693W        W37877  15.482   4.514   1.024  0.1353  0.0907  0.0904
21694W        W37878   0.315   5.459  13.992 -0.2513  0.3872 -0.3818
21695W        W37879   1.916   9.185   1.469 -0.0272 -0.4431 -0.0965
21696W        W37880  15.468   3.283   4.847  0.0063  0.1364 -0.0557
21697W        W37881  16.953   1.323  12.882 -0.0057 -0.0157  0.1790
21698W        W37882  14.747   3.117   1.086 -0.1588  0.3081 -0.0755
21699W        W37883   9.734  17.419   4.920 -0.0842  0.1117 -0.1190
21700W        W37884   5.035  17.722  14.465  0.2080  0.1968  0.2730
21701W        W37885  17.830  15.546  13.635  0.0794 -0.0071  0.1354
21702W        W37886   0.097  14.440   5.294 -0.0148 -0.1090  0.0112
21703W        W37887   8.441  10.341   4.596 -0.4564  0.0696  0.0211
21704W        W37888   3.016   7.718  12.719  0.0852 -0.4295 -0.1510
21705W        W37889   8.434   6.128   1.197 -0.2730  0.2509  0.0069
21706W        W37890  14.951   3.847   2.185  0.0119  0.2466 -0.2096
21707W        W37891  16.949  15.480  14.518 -0.0110  0.1635  0.0460
21708W        W37892   5.277   6.455  12.102 -0.1618 -0.2131 -0.2297
21709W        W37893   5.679   4.704  14.779 -0.2227 -0.1576  0.4201
21710W        W37894  13.267   3.212  16.804 -0.2822 -0.1219  0.0603
21711W        W37895   9.080  14.156  15.170  0.0800  0.0040  0.2391
21712W        W37896  16.101   5.220  12.141  0.0321  0.0185  0.0616
21713W        W37897  10.921  17.352   2.962  0.2387  0.0844 -0.0244
21714W        W37898   0.202   2.089   2.263 -0.1808 -0.0283  0.1184
21715W        W37899   9.520  15.697   1.660  0.0451  0.1940  0.0078
21716W        W37900   4.330  16.020   2.768  0.0868  0.3254  0.0364
21717W        W37901   1.532   8.488  15.469  0.1211 -0.0587 -0.4169
21718W        W37902  14.393  13.204   0.759 -0.0178  0.1361  0.0053
21719W        W37903   9.307  13.813   0.749  0.1619 -0.0838 -0.3288
21720W        W37904  10.407   6.496   3.644 -0.1755 -0.0426 -0.0247
21721W        W37905  13.720   2.877  16.429 -0.3204 -0.1090 -0.0874
21722W        W37906   2.625   5.308   5.600 -0.1477  0.3378 -0.1161
21723W        W37907   9.298   6.452  13.445  0.0207 -0.1324 -0.1967
21724W        W37908  10.525   6.981   1.279  0.0529  0.1182 -0.1494
21725W        W37909  13.813  15.957  15.961  0.5888  0.1837  0.1208
21726W        W37910  15.914   6.976  15.101  0.2125  0.0290 -0.0680
21727W        W37911   2.920   0.452  11.465  0.0940  0.1949 -0.1144
21728W        W37912   6.413  12.028   2.216 -0.2278  0.0782 -0.1036
21729W        W37913   6.382   2.700   3.926 -0.1901  0.2513 -0.0728
21730W        W37914  16.335   3.560   2.211 -0.2447  0.0611 -0.0681
21731W        W37915   6.764   0.611   2.258 -0.3222 -0.2492 -0.1408
21732W        W37916   0.408   8.071  15.752 -0.1714  0.0242  0.1504
21733W        W37917   7.838  17.270  12.713 -0.1969 -0.1653  0.2630
21734W        W37918  10.367   0.871   1.228 -0.1567  0.1284  0.1762
21735W        W37919   1.788  15.182   5.707  0.0762 -0.1006  0.3871
21736W        W37920  14.477  13.165   3.758  0.1602 -0.1258  0.0432
21737W        W37921  16.383   2.874   5.744  0.1629 -0.0358  0.1682
21738W        W37922   5.440   0.915   4.650  0.1277  0.1642 -0.1713
21739W        W37923   0.188   3.420   1.318  0.1154  0.0813  0.0213
21740W        W37924  12.245   0.530  13.288  0.3755 -0.2815 -0.0218
21741W        W37925  17.008   6.412   0.704  0.1191  0.0988  0.3486
21742W        W37926   0.314   0.448   4.262 -0.3499  0.3984 -0.0457
21743W        W37927   9.051   3.080   4.910  0.1580  0.1587 -0.0510
21744W        W37928   4.460  13.296   1.626  0.0885  0.3252 -0.2159
21745W        W37929   8.431  13.310  13.545  0.0777 -0.0967  0.0737
21746W        W37930  11.688  11.291   0.909  0.0485  0.0090 -0.1060
21747W        W37931  15.905  15.033   1.894 -0.1200 -0.0269 -0.0959
21748W        W37932   2.345   2.535  15.566  0.2396  0.0129 -0.0511
21749W        W37933   2.656   2.133   4.744  0.0004  0.4058  0.2605
21750W        W37934   6.610  15.355  13.910 -0.0815  0.0031  0.1508
21751W        W37935   2.294  11.752   0.248  0.0455  0.0427 -0.2324
21752W        W37936   2.860  12.233  12.950 -0.1741  0.1045 -0.1935
21753W        W37937  16.576  17.451   0.781 -0.1053 -0.2200  0.1159
21754W        W37938   3.577  16.052   1.353  0.0473 -0.2522 -0.0977
21755W        W37939   0.119  10.526  16.156 -0.0286 -0.3269 -0.0768
21756W        W37940   1.236   9.418   2.793 -0.1524  0.1868 -0.2379
21757W        W37941  13.580   9.803  14.104 -0.1811  0.0642 -0.2486
21758W        W37942   0.430   6.013  15.158  0.6114 -0.3006  0.0965
21759W        W37943   5.197   2.403  14.358 -0.0414  0.1323  0.0984
21760W        W37944  17.513   8.256  14.720 -0.2965 -0.1180  0.0204
21761W        W37945  13.615  17.470   3.173  0.1150  0.1197 -0.1037
21762W        W37946   0.346  13.273  13.122  0.0327  0.0188 -0.1430
21763W        W37947   1.852   6.217   1.977 -0.0632  0.0453  0.1042
21764W        W37948   4.517   4.965  15.555 -0.1383 -0.0043 -0.0102
21765W        W37949   9.647   1.893   0.814 -0.1317  0.1359  0.2253
21766W        W37950  11.778  16.960  12.415  0.0739 -0.1608 -0.2493
21767W        W37951   4.056  14.717  14.300  0.0445 -0.0830  0.0365
21768W        W37952   5.342   9.736   1.802  0.2200 -0.2127  0.0748
21769W        W37953   5.798  14.782  10.802 -0.0188 -0.0445  0.0322
21770W        W37954   7.022  15.638  15.328  0.1422 -0.1147  0.1255
21771W        W37955  17.579  12.253  13.758 -0.0777 -0.1715 -0.0128
21772W        W37956   1.774   0.947  13.439  0.2225 -0.3050  0.2514
21773W        W37957   8.542  12.983  12.318  0.1540  0.6166 -0.0388
21774W        W37958   8.510   2.406  16.666  0.2160 -0.0828 -0.1112
21775W        W37959   5.923  12.801  11.850 -0.1020  0.0995  0.0843
21776W        W37960   3.171   2.023  16.307  0.2405 -0.0739 -0.0446
21777W        W37961  12.268  10.797  16.548  0.1905 -0.3054 -0.3043
21778W        W37962   0.434  12.084  12.347  0.0218  0.5841 -0.1413
21779W        W37963   8.329   1.229   4.768  0.0898  0.2980  0.0292
21780W        W37964  10.000  17.005   1.578 -0.0594  0.1511  0.2071
21781W        W37965  14.207  13.870   3.370  0.0048  0.2622 -0.1777
21782W        W37966   0.624  13.410  16.392 -0.1068  0.1196 -0.2896
21783W        W37967  13.434   6.029  13.642 -0.1389  0.0384  0.2695
21784W        W37968  13.272   8.804   5.400 -0.2369  0.1490  0.3181
21785W        W37969  13.968  14.527  12.777 -0.0951  0.0346  0.2216
21786W        W37970   0.883  13.086   3.410  0.1283  0.1208  0.2084
21787W        W37971   5.339   1.244  15.291 -0.0325  0.0940 -0.2411
21788W        W37972  13.346   5.451  14.868 -0.0802  0.3449 -0.0908
21789W        W37973   4.367  14.802   3.338  0.0967 -0.2104 -0.0801
21790W        W37974   6.665   5.397   3.336 -0.3131 -0.1885  0.0392
21791W        W37975  12.768   8.913  14.768 -0.2691  0.2083  0.1656
21792W        W37976   9.092   1.856   5.555  0.1407 -0.0570 -0.1742
21793W        W37977   2.860   6.749   3.462  0.2202  0.1158 -0.1688
21794W        W37978  15.924   5.270  11.576 -0.1334  0.0633  0.0165
21795W        W37979  13.488  10.384   0.043 -0.0626 -0.3416 -0.2779
21796W        W37980   1.536   9.818   2.019 -0.3564  0.1353  0.0581
21797W        W37981  12.868  11.190   4.048  0.0878  0.1678  0.1772
21798W        W37982  16.792  16.490  16.349  0.0161  0.0590 -0.2285
21799W        W37983   6.426   8.735   2.532  0.0014  0.1470  0.0019
21800W        W37984   3.858  17.783   1.731 -0.0314 -0.1859 -0.2442
21801W        W37985   4.354  14.280  15.789  0.0767  0.1091 -0.1704
21802W        W37986   9.084  12.638   1.704 -0.1895 -0.0472 -0.1926
21803W        W37987  11.910  16.825   3.845  0.2045 -0.3223  0.1901
21804W        W37988  15.429   8.099  13.876  0.3095  0.2436  0.0201
21805W        W37989  13.481   2.775   0.252 -0.0028 -0.1532  0.2151
21806W        W37990   8.184  10.391  15.210  0.0058 -0.1165 -0.0914
21807W        W37991   4.242  12.656   4.061  0.0068  0.1498  0.0916
21808W        W37992  16.647   1.521   4.808  0.0184  0.3173 -0.1053
21809W        W37993  11.940   2.770  15.140 -0.1159  0.1346 -0.0929
21810W        W37994   0.157   3.023  13.074  0.5021 -0.3427  0.1854
21811W        W37995   5.934   8.445  11.999  0.2214 -0.0008  0.0217
21812W        W37996   6.602  16.117   1.028  0.3099 -0.0625  0.1016
21813W        W37997  14.067   4.566   1.882  0.0846 -0.0028  0.0374
21814W        W37998   9.797  11.210  11.521 -0.0690 -0.1431 -0.0048
21815W        W37999   3.145  11.467  14.622  0.2273  0.0764  0.1777
21816W        W38000   9.534   0.197   3.826 -0.3249  0.0248  0.1496
21817W        W38001   3.558   9.556   5.813  0.0908  0.1067 -0.3723
21818W        W38002   1.975   2.055   0.033 -0.0918  0.1034  0.0350
21819W        W38003   7.273  16.656   4.713  0.1755 -0.3051 -0.1241
21820W        W38004   6.273  14.852  14.446 -0.0395  0.2741  0.0215
21821W        W38005  13.809  15.051  15.133 -0.1167 -0.0920  0.0012
21822W        W38006  14.581  10.827   5.482  0.3901  0.2205  0.0855
21823W        W38007  10.808   2.244   3.286 -0.3133  0.0773 -0.3179
21824W        W38008  10.482   3.172  14.307 -0.2880 -0.1173 -0.4417
21825W        W38009  14.187  10.068  13.629  0.1518  0.0661  0.1434
21826W        W38010   4.961   6.514   1.922 -0.0178  0.2287  0.1420
21827W        W38011   6.484   1.851  11.674  0.3221  0.4111  0.0415
21828W        W38012  13.097  13.885  11.910 -0.0634  0.0557 -0.3347
21829W        W38013   1.314  13.236  15.173 -0.0273 -0.2502 -0.0980
21830W        W38014  12.669   8.575   1.096  0.2731  0.0964 -0.1287
21831W        W38015  11.663   2.089   5.255 -0.0057 -0.0969 -0.1009
21832W        W38016   9.282   1.560  15.465 -0.1679 -0.1330  0.0314
21833W        W38017  17.538   0.788   5.326  0.0913  0.3971  0.1150
21834W        W38018   5.422  12.193   3.125 -0.1140  0.2607 -0.1738
21835W        W38019  13.698   2.457  15.921  0.0425  0.0870  0.2779
21836W        W38020  13.228   6.630  14.728 -0.1842 -0.1519 -0.1808
21837W        W38021  10.194  16.591   2.338 -0.3168  0.1190 -0.0456
21838W        W38022   7.871   3.883  15.782 -0.2785  0.0828 -0.0386
21839W        W38023  14.746  14.797   4.321 -0.1707  0.0714  0.3409
21840W        W38024   5.564  16.780   5.076 -0.0201 -0.0633  0.0146
21841W        W38025  11.558   1.823   1.474 -0.0187  0.0350  0.0095
21842W        W38026   0.811   9.660  14.354  0.0126  0.0999  0.0909
21843W        W38027   8.225   8.855  14.475  0.1812 -0.0656  0.1904
21844W        W38028   6.579   9.291   6.238  0.1118 -0.1193 -0.2950
21845W        W38029   9.659   9.511  15.592 -0.0001  0.1078  0.3674
21846W        W38030   1.083   6.923   5.400  0.2143 -0.2164  0.1236
21847W        W38031  11.279  15.956   2.471 -0.0117 -0.1766 -0.1129
21848W        W38032  11.126   4.005   3.336 -0.2189  0.0443 -0.0298
21849W        W38033  12.530  11.259   3.530 -0.0664 -0.1282  0.0343
21850W        W38034  14.589   7.502  11.968 -0.3404 -0.1864  0.1508
21851W        W38035  10.009   2.942  15.457  0.1157  0.1997  0.1882
21852W        W38036  13.938   9.796   3.537 -0.0685 -0.0766  0.0429
21853W        W38037  13.783   9.363   1.145  0.2327 -0.1951  0.2761
21854W        W38038   6.641   0.112   4.083  0.0132 -0.0676 -0.4140
21855W        W38039  10.558  14.579  14.488 -0.1688 -0.4353 -0.0403
21856W        W38040  14.324  13.886  15.476 -0.3086 -0.0737  0.0656
21857W        W38041  15.403   7.220   4.797 -0.3943  0.1321 -0.2610
21858W        W38042   3.616  15.805   4.588 -0.2642  0.1219 -0.0262
21859W        W38043  16.296  17.784  14.505 -0.1411  0.3136 -0.1736
21860W        W38044   3.992   3.664   1.282 -0.1515  0.0689 -0.5572
21861W        W38045   8.141  11.819  13.216 -0.0840  0.0841  0.1182
21862W        W38046  12.355   8.143   0.969 -0.2064 -0.3839  0.0885
21863W        W38047  11.915   8.027   0.687 -0.2073 -0.0508  0.0868
21864W        W38048  10.912  15.593  12.262 -0.1328  0.0523 -0.1230
21865W        W38049   1.897   8.826   0.223 -0.1886 -0.2077  0.2601
21866W        W38050  14.957   8.234   4.309  0.2359 -0.0013 -0.1396
21867W        W38051  12.204   8.700   0.946 -0.0664  0.2547 -0.0454
21868W        W38052   9.112   9.559  15.294  0.0558 -0.0428  0.0343
21869W        W38053   1.478   3.172  16.122  0.1994  0.1295 -0.0245
21870W        W38054   6.173  13.529  14.287 -0.1469 -0.1044  0.0802
21871W        W38055  12.277  15.285   2.676  0.0547 -0.1470  0.1975
21872W        W38056  10.931   8.868  13.227 -0.1015  0.1048  0.0373
21873W        W38057   3.473   8.015   2.809  0.0322 -0.0241 -0.3388
21874W        W38058  11.365  17.505  15.846  0.0933 -0.1971 -0.1649
21875W        W38059  11.974   0.144   4.985  0.0234  0.1538  0.1304
21876W        W38060  17.133   7.599   0.519  0.1103  0.0769 -0.0676
21877W        W38061  10.909  16.799   3.481  0.2185 -0.1521 -0.4088
21878W        W38062  14.484  15.768   2.615 -0.0587  0.1782 -0.0242
21879W        W38063   2.470   9.548  13.829  0.0448 -0.0361 -0.0132
21880W        W38064   7.236   8.180  14.461 -0.0680 -0.2310 -0.1296
21881W        W38065   8.071   5.522   4.614 -0.2125  0.2901 -0.0310
21882W        W38066   0.327   2.947   1.254  0.2116 -0.1927  0.0566
21883W        W38067   5.444   1.186  15.797  0.0881 -0.0274 -0.1287
21884W        W38068   1.802   9.977   4.807 -0.2440 -0.1844 -0.0639
21885W        W38069   6.205   1.988   6.100  0.1921  0.2097  0.0303
21886W        W38070  13.075   0.814  11.916  0.2880 -0.0720 -0.0180
21887W        W38071  13.213  10.192  11.674 -0.6475  0.0132  0.1411
21888W        W38072   0.484  17.411  12.637  0.1567 -0.1853 -0.0985
21889W        W38073  10.782  15.777   4.743  0.2011  0.1034 -0.1066
21890W        W38074   9.072   7.051   3.311 -0.2514 -0.2486  0.0399
21891W        W38075  13.293  16.876   4.841  0.0222 -0.2326  0.1767
21892W        W38076  15.223   0.260  12.733 -0.2447 -0.0622 -0.2199
21893W        W38077  16.310   6.733   4.479  0.0532 -0.1419 -0.0227
21894W        W38078  13.550   5.528   2.743 -0.1496 -0.2425  0.0361
21895W        W38079  14.645  13.623   2.550 -0.0058  0.0399  0.0368
21896W        W38080  10.995   4.376  14.908  0.2084  0.1110 -0.1140
21897W        W38081  17.092  10.225   3.525  0.0620 -0.2466  0.1179
21898W        W38082   0.644   2.981  14.994 -0.1649 -0.5379 -0.2182
21899W        W38083  17.037   2.362  13.587  0.0121  0.0470 -0.0182
21900W        W38084  14.593   2.675   2.170 -0.0961 -0.1465 -0.2223
21901W        W38085   9.540  13.969   4.859 -0.1016 -0.0084 -0.3191
21902W        W38086  15.879  11.225  13.173  0.2989  0.1383  0.1749
21903W        W38087   2.262   7.099   1.949  0.0820  0.2319 -0.1263
21904W        W38088   6.862   6.500  12.665 -0.1090 -0.2443  0.1409
21905W        W38089  10.198   6.089   0.850  0.2690 -0.0244 -0.1392
21906W        W38090   9.283   4.590  14.610 -0.1417  0.1893  0.0290
21907W        W38091  13.267  14.020  14.695  0.0582 -0.1053  0.0521
21908W        W38092  16.320   5.327   0.859  0.3737 -0.2472  0.1371
21909W        W38093   7.155   1.522   4.276  0.3370  0.1310 -0.3255
21910W        W38094  16.970  13.228  15.260 -0.1758 -0.2519 -0.0322
21911W        W38095  11.713   8.880   2.081 -0.4092 -0.0723 -0.0521
21912W        W38096   7.985  16.704  11.808 -0.0737  0.0333  0.0003
21913W        W38097   4.415   7.033   2.811 -0.3854 -0.0725 -0.3079
21914W        W38098   9.290  14.600   1.374  0.0347  0.4693 -0.1046
21915W        W38099   8.685  17.279   2.559 -0.2400 -0.1446 -0.0889
21916W        W38100   9.653   9.653   0.520 -0.2837 -0.0102 -0.0795
21917W        W38101   2.343   3.350   1.040  0.1800 -0.0890  0.0989
21918W        W38102   4.545  10.783   0.343 -0.0251 -0.0937 -0.2058
21919W        W38103  12.220  16.564   1.191 -0.0043  0.0445  0.0676
21920W        W38104  13.021   7.844   4.217 -0.1228  0.1296  0.0009
21921W        W38105  11.633   5.152  13.626 -0.3574  0.2003 -0.1148
21922W        W38106   3.111   0.955   0.843 -0.0306  0.1616 -0.0592
21923W        W38107  15.563   9.289  16.927 -0.2639 -0.0627 -0.0112
21924W        W38108  17.621   0.762  14.864 -0.0167 -0.1664  0.0538
21925W        W38109  15.011   7.486   4.997 -0.0150  0.1627 -0.1421
21926W        W38110  11.343   6.646   3.614 -0.1695 -0.2811  0.0721
21927W        W38111  10.301  11.100  12.817 -0.0373 -0.3023  0.3242
21928W        W38112   8.877  12.296  15.403  0.1603  0.0657 -0.1637
21929W        W38113   8.510   8.342   5.862 -0.4264 -0.1336  0.3625
21930W        W38114   1.908   1.076  11.579 -0.1343  0.3561  0.1175
21931W        W38115   2.548   9.260  13.365  0.1195  0.1230 -0.1154
21932W        W38116  10.873   5.359   0.456  0.0561 -0.2768 -0.0409
21933W        W38117   4.189   2.479   1.963 -0.4204  0.2862  0.0982
21934W        W38118  17.487  14.317  14.404 -0.3038  0.0010 -0.0158
21935W        W38119   0.298  17.078  16.041 -0.1948 -0.2927  0.0647
21936W        W38120  10.874  16.929   1.168  0.0643  0.2388 -0.3050
21937W        W38121  15.740   1.080  13.814 -0.0964 -0.1655 -0.0214
21938W        W38122   9.042  15.502   1.554  0.0040  0.0968 -0.1524
21939W        W38123  16.864  12.651   5.329  0.1660  0.0628 -0.1460
21940W        W38124  10.346   1.051  16.833 -0.4599 -0.4185  0.0368
21941W        W38125  16.291  11.102   3.605  0.0683  0.0140  0.3307
21942W        W38126   6.578  10.032   0.618  0.0008 -0.0137 -0.1197
21943W        W38127   6.786   2.270  13.317  0.1535  0.1616  0.0997
21944W        W38128  14.462   9.244   5.014 -0.1107 -0.2161  0.3712
21945W        W38129   8.560   6.549   0.265 -0.0054  0.0873  0.1003
21946W        W38130   2.437   7.564  15.190  0.2471  0.0269 -0.0772
21947W        W38131   2.474  15.723   3.174  0.4155  0.3332 -0.0216
21948W        W38132  17.015   9.405  12.933  0.0509 -0.0460 -0.1094
21949W        W38133   7.911  13.075  14.734  0.2218  0.1232 -0.0364
21950W        W38134   5.141  14.179  14.056 -0.0532  0.1692  0.3529
21951W        W38135  10.615   4.021  13.289 -0.2062 -0.0400  0.0347
21952W        W38136  11.909  13.117  11.803 -0.1721 -0.0812  0.0997
21953W        W38137  11.760   5.749  15.800  0.0447  0.1674 -0.0236
21954W        W38138   2.737   4.500  13.600  0.1749 -0.1472  0.4225
21955W        W38139  13.557   1.618   5.433 -0.1631 -0.1270  0.1231
21956W        W38140   3.415   9.342   0.047 -0.0312 -0.0857  0.0409
21957W        W38141  14.545   9.895   5.278  0.3009  0.1974 -0.0267
21958W        W38142  16.784   7.659   1.795 -0.0048  0.1905  0.1141
21959W        W38143  11.543   1.947  12.810  0.2868 -0.0848 -0.1621
21960W        W38144  10.789  13.835   3.699 -0.1766 -0.0047 -0.1649
21961W        W38145   8.575  10.152  11.698  0.1023 -0.1014 -0.0526
21962W        W38146  17.776   6.970   3.994  0.0811 -0.1394  0.0263
21963W        W38147   8.167   9.343   0.773 -0.2417 -0.1154  0.0619
21964W        W38148   5.591   6.900  14.687 -0.0908 -0.2620  0.3356
21965W        W38149   4.794   7.376  12.425 -0.0294 -0.0216  0.0588
21966W        W38150   7.137   2.232  14.820  0.1312 -0.2964  0.1750
21967W        W38151   3.914   0.846  12.502 -0.1011 -0.0348 -0.2140
21968W        W38152   4.696   8.547   4.476  0.2125  0.2594  0.1207
21969W        W38153   7.605  17.361   5.312  0.1706 -0.1434  0.0196
21970W        W38154   9.728   7.816   5.836 -0.1264  0.0824 -0.0163
21971W        W38155   8.300   1.062   0.412  0.0561 -0.3836  0.1436
21972W        W38156  10.534  12.716  13.499 -0.3384 -0.0702 -0.1388
21973W        W38157  11.957  12.174  12.923 -0.1059  0.1157  0.1587
21974W        W38158   7.954  16.060  16.129  0.1672 -0.1945 -0.1056
21975W        W38159   2.403  12.499   1.375  0.2442  0.1517  0.0293
21976W        W38160  12.398   5.025   5.540 -0.0014 -0.0355  0.1469
21977W        W38161   4.971   3.405   5.399 -0.1890 -0.0525  0.0192
21978W        W38162   1.784   1.057  15.277  0.0210 -0.0308  0.1946
21979W        W38163  11.864   6.223  15.569  0.0574 -0.0451  0.0085
21980W        W38164  16.890  16.322   3.586 -0.2194 -0.1805  0.0855
21981W        W38165   3.466  15.270   3.250 -0.1561  0.2236  0.0706
21982W        W38166  10.126  13.011  13.428 -0.0786  0.4984 -0.0000
21983W        W38167   2.847  10.309   1.522 -0.1363  0.4400 -0.2500
21984W        W38168  13.327   7.290   1.205 -0.1882 -0.2519  0.0663
21985W        W38169   8.761   1.272   1.465 -0.2028 -0.0882  0.2100
21986W        W38170   2.849  14.052  15.999  0.0276  0.0488 -0.0818
21987W        W38171   5.005  10.280   4.361 -0.0643 -0.1225  0.0479
21988W        W38172   2.825  13.787   5.318 -0.0674 -0.1295  0.2197
21989W        W38173  10.321   9.010   0.754 -0.1190 -0.1738  0.0524
21990W        W38174  11.425   5.111  14.580 -0.0075 -0.1342 -0.0787
21991W        W38175  15.844   3.244  15.169 -0.0414  0.3697 -0.1537
21992W        W38176   9.336  14.647   2.874 -0.0508 -0.1416  0.1309
21993W        W38177   3.949   2.673   6.509  0.1336  0.0531  0.0198
21994W        W38178  17.588  10.337   5.260 -0.3005 -0.2546  0.1649
21995W        W38179   2.572  10.060   2.804  0.1100 -0.0986  0.0489
21996W        W38180   7.714   2.006  15.435 -0.3099 -0.1091 -0.2182
21997W        W38181   9.682   6.511   4.422 -0.2470 -0.1905 -0.0217
21998W        W38182  16.478  14.605   2.503 -0.1998 -0.2513  0.1694
21999W        W38183  15.831  13.732   1.609  0.0253 -0.2132  0.1683
22000W        W38184  12.050  13.919   3.714 -0.1098 -0.1833 -0.0560
22001W        W38185  15.835   8.631  15.754 -0.1730 -0.0830  0.1264
22002W        W38186   8.460   1.299  12.014  0.0343 -0.1956  0.0793
22003W        W38187  10.724   5.191   2.869  0.1693 -0.1417 -0.0207
22004W        W38188  11.403  10.469  12.020  0.2188  0.1145 -0.3701
22005W        W38189   0.034   4.702   2.729 -0.1471 -0.0369 -0.0517
22006W        W38190   6.113   5.486   4.196 -0.2350  0.2099  0.0107
22007W        W38191   5.300  11.325   0.691 -0.0997 -0.0603 -0.0499
22008W        W38192  12.312   6.027  15.976  0.2209  0.1968 -0.4708
22009W        W38193  14.750   1.156   0.534  0.2594  0.0302 -0.0666
22010W        W38194  10.078   0.619  16.160 -0.1555 -0.4951  0.2159
22011W        W38195   0.071   5.293   3.570  0.0892 -0.0808  0.3339
22012W        W38196   7.173   6.043  13.994  0.1299 -0.1230  0.1165
22013W        W38197   8.211  12.826  13.788  0.3418  0.1122 -0.1878
22014W        W38198  11.629  13.167   2.126  0.0859  0.1090  0.0058
22015W        W38199  15.587   4.921   4.801  0.0788  0.1138 -0.0269
22016W        W38200  16.732   6.743   1.536  0.0867 -0.0589  0.1312
22017W        W38201  12.029  17.810  12.708  0.0650 -0.0316 -0.1237
22018W        W38202   6.617  10.568  15.482  0.0997 -0.1329  0.2488
22019W        W38203  10.865  11.353   1.494  0.1320 -0.0466 -0.0878
22020W        W38204   5.795  16.028   1.143 -0.1844  0.1170 -0.0244
22021W        W38205   5.572   3.701   4.530  0.0366  0.3433 -0.0808
22022W        W38206  11.686  13.579  11.708 -0.2685  0.0094  0.1030
22023W        W38207   7.146   5.544  13.749  0.2108 -0.1798  0.0154
22024W        W38208  14.299   7.471  11.585  0.0960  0.1592  0.0086
22025W        W38209   7.712   2.075  16.790  0.1719  0.2955 -0.0113
22026W        W38210  14.685   1.560  12.690  0.1095 -0.2409  0.1439
22027W        W38211   5.232  10.205   0.655  0.0850 -0.2053 -0.2336
22028W        W38212   1.853  11.772  15.359 -0.2165 -0.0167  0.0773
22029W        W38213  10.426   0.259  12.829 -0.4481  0.1315  0.0292
22030W        W38214   5.546  13.908  12.390  0.0289 -0.0761 -0.1958
22031W        W38215  11.254   2.534  14.227 -0.0733  0.1304 -0.2875
22032W        W38216   3.257  11.985  13.510  0.1525  0.0050 -0.0761
22033W        W38217   1.870  15.062   1.207 -0.3339  0.0049 -0.1225
22034W        W38218  12.974  10.126   5.763 -0.2699  0.0882  0.3108
22035W        W38219  12.668   3.837  11.796 -0.0366 -0.0250  0.1062
22036W        W38220  12.796   8.847   2.805 -0.1265 -0.0070  0.0766
22037W        W38221  15.016   1.674  16.481 -0.0448  0.0585  0.1907
22038W        W38222  15.462   3.333  14.898 -0.4783  0.1595 -0.1884
22039W        W38223   2.623   0.349   4.658 -0.3653  0.1310  0.3206
22040W        W38224   1.555   7.791  11.971 -0.1668  0.1210 -0.0213
22041W        W38225  10.333   8.012   5.387 -0.0931 -0.1816 -0.1466
22042W        W38226   8.708   7.560   2.685  0.0985  0.1990 -0.2134
22043W        W38227  12.200   7.374   3.087  0.0141 -0.0945 -0.0550
22044W        W38228  13.950  15.028   1.878  0.1748  0.0521  0.4024
22045W        W38229   5.765  15.828   0.153 -0.1172 -0.2367 -0.0364
22046W        W38230   4.451  16.228   4.441 -0.0335  0.2753 -0.0843
22047W        W38231  16.089  13.204   2.156  0.1364  0.1897 -0.0014
22048W        W38232   8.958  13.484   0.515  0.2154  0.2194  0.0695
22049W        W38233  13.815  11.198   1.742 -0.0794 -0.2699  0.3525
22050W        W38234   8.953  14.824   3.961 -0.0931 -0.1956  0.3495
22051W        W38235  13.443  17.241  14.753  0.0006  0.2883  0.1753
22052W        W38236   1.388   7.104   1.367 -0.0674 -0.0916  0.0844
22053W        W38237  14.701  11.871  16.439 -0.0765  0.1005  0.2785
22054W        W38238   0.828  15.716   5.071 -0.0002 -0.0675  0.0841
22055W        W38239   6.452   2.809  16.284 -0.2795  0.1645 -0.0347
22056W        W38240  15.051  10.487   0.709  0.0712 -0.1239  0.1439
22057W        W38241   0.366   1.652   0.973  0.2743 -0.1654 -0.3404
22058W        W38242  11.366   0.168   2.122  0.0067  0.1538 -0.0999
22059W        W38243   7.632   1.642   2.138  0.1048  0.3406 -0.1581
22060W        W38244  14.708   6.469  13.315  0.0499 -0.2432 -0.1273
22061W        W38245   2.555   1.144  13.818 -0.1930 -0.1686  0.1091
22062W        W38246   7.157   6.781   4.294 -0.0033  0.3519  0.2491
22063W        W38247  14.737   3.487   5.502  0.1150  0.0134 -0.0182
22064W        W38248  14.419  14.398   6.138 -0.1143  0.1107 -0.1752
22065W        W38249   0.178  13.930   0.059  0.1805 -0.0178 -0.5350
22066W        W38250   7.194   0.228   3.984  0.1768  0.3294  0.1555
22067W        W38251  14.179   6.306  12.336  0.0389 -0.2164  0.1760
22068W        W38252   9.107   9.922   2.387  0.2899  0.0161  0.2268
22069W        W38253  15.561   1.215   0.579  0.1185  0.2395 -0.2268
22070W        W38254  15.848  14.356   4.815 -0.3541  0.3666  0.1334
22071W        W38255   1.676  14.519   1.369 -0.0592  0.1847 -0.2044
22072W        W38256   0.903   8.103   2.172 -0.0936  0.2030  0.0920
22073W        W38257  10.867  10.205   0.648  0.1459  0.1874  0.0973
22074W        W38258  17.525   1.204   4.979 -0.1369 -0.2690 -0.1560
22075W        W38259  10.682  12.768  15.714 -0.1614  0.0470  0.0722
22076W        W38260   0.431  12.667   5.313 -0.3988 -0.0577 -0.0335
22077W        W38261  14.541   6.403  14.327  0.1435 -0.4195 -0.1650
22078W        W38262  14.067  15.855  13.853 -0.1501  0.0571  0.0387
22079W        W38263   3.511  14.015  14.035  0.1507  0.0642 -0.1889
22080W        W38264  14.531   7.867  16.180  0.2176 -0.2276 -0.1057
22081W        W38265  10.176   7.176  15.333 -0.1327  0.1064 -0.0592
22082W        W38266   6.504   6.530   2.152  0.1753 -0.1784 -0.0086
22083W        W38267   6.589  16.821   3.738  0.0985  0.0575 -0.1682
22084W        W38268   4.849  11.135   0.777 -0.1193 -0.0021  0.1163
22085W        W38269  13.315  15.256  11.860  0.1347  0.1336  0.1553
22086W        W38270  17.277  10.093  12.296  0.0478 -0.0217 -0.2925
22087W        W38271   0.909   0.261  15.203  0.1369  0.0820 -0.1794
22088W        W38272  15.965   5.130  15.553  0.2186 -0.4380 -0.1867
22089W        W38273  12.198   4.835  12.518  0.0888 -0.0861  0.1447
22090W        W38274  10.984  11.013   5.092  0.1547 -0.5711 -0.3799
22091W        W38275   0.549  17.712   4.578 -0.1630  0.0070 -0.0903
22092W        W38276  12.699   3.124  13.117  0.2179 -0.0297 -0.0009
22093W        W38277  14.024   4.912  13.479 -0.0689  0.3188 -0.0093
22094W        W38278   0.447  15.297   2.097  0.2281 -0.0780 -0.0318
22095W        W38279   1.745   9.209   5.783  0.2910 -0.1476  0.1095
22096W        W38280   8.478   1.620   0.239 -0.0161  0.0788  0.3178
22097W        W38281  15.120   0.369  15.336  0.2448 -0.1420 -0.0421
22098W        W38282  14.356   9.508   0.399  0.0782 -0.2460  0.0622
22099W        W38283  11.761  16.159   6.368 -0.0534  0.0141 -0.0799
22100W        W38284   1.436   4.265   2.229  0.1388 -0.3429  0.4147
22101W        W38285   9.502  11.709  12.159 -0.1122  0.0442  0.0497
22102W        W38286  10.658  15.818  12.817 -0.0014  0.2466  0.0518
22103W        W38287   0.164  12.182   0.362 -0.1863  0.0215  0.0617
22104W        W38288   4.799   5.722   1.231 -0.1980  0.0339  0.0712
22105W        W38289  11.544   1.878   4.009  0.1685 -0.2837 -0.0900
22106W        W38290   2.376  17.564  16.397  0.1430  0.2063  0.2207
22107W        W38291  15.547   4.457   2.624 -0.0797 -0.3130  0.0557
22108W        W38292   5.781  11.738   1.534 -0.1095 -0.1202 -0.0680
22109W        W38293   7.852   0.998   3.298 -0.3326  0.3433  0.1680
22110W        W38294   8.002  14.182  15.896  0.0605 -0.1666 -0.0448
22111W        W38295  10.584   6.925   2.239 -0.2863  0.1321  0.2111
22112W        W38296  17.760   0.289  13.234  0.0903 -0.0755 -0.3912
22113W        W38297   9.475  10.154   4.655  0.0330  0.0557 -0.2019
22114W        W38298   1.666  11.493  15.057  0.0674 -0.2098 -0.1389
22115W        W38299  11.600   2.513   0.310 -0.3799  0.0450  0.2650
22116W        W38300  12.848  16.273  11.086 -0.1830 -0.1625 -0.0159
22117W        W38301   7.311   4.712   1.999 -0.2232  0.0663 -0.1709
22118W        W38302   7.854   1.470   4.987  0.2317 -0.0306  0.3492
22119W        W38303  17.699  13.848  16.559  0.1606 -0.1493  0.1279
22120W        W38304   6.519   9.584  15.570  0.1895  0.0058  0.0130
22121W        W38305   2.622   1.192  15.472 -0.0577  0.0066 -0.1011
22122W        W38306  11.801  13.666  14.968 -0.0047 -0.0627  0.2385
22123W        W38307  16.056  16.264   1.632 -0.0997  0.0926 -0.1407
22124W        W38308   3.520   4.997  14.578 -0.0783  0.0154  0.2255
22125W        W38309   8.852  11.149   1.245 -0.2065 -0.1199  0.1684
22126W        W38310   3.134   5.859  16.869  0.0974 -0.1810 -0.0344
22127W        W38311   1.350   1.183   4.161  0.0194  0.2161 -0.0069
22128W        W38312   3.230   5.940   1.478 -0.1574 -0.2047 -0.0909
22129W        W38313   7.074   1.697  13.896 -0.2683 -0.0849  0.0785
22130W        W38314  13.407   1.751   3.022 -0.0145 -0.0146  0.0676
22131W        W38315   8.454  10.894  16.397 -0.3393  0.0546  0.3269
22132W        W38316  14.947  15.696   0.020  0.0461  0.2286  0.1243
22133W        W38317   6.287   6.525  13.865 -0.0697 -0.1131 -0.0792
22134W        W38318  17.811  12.884   4.096  0.1515 -0.0685 -0.0087
22135W        W38319  12.253   3.060  14.489  0.3513 -0.0164 -0.0005
22136W        W38320   6.984   6.778  12.226 -0.1404  0.0763  0.0688
22137W        W38321   4.325  12.277  11.675 -0.2481  0.1165 -0.0038
22138W        W38322   5.438   4.412   1.535 -0.2001 -0.1725  0.0106
22139W        W38323  12.765   3.995   1.946 -0.1980  0.0506 -0.4508
22140W        W38324  15.061  11.671   1.483 -0.2640 -0.2873  0.0497
22141W        W38325  12.796   2.285  15.078  0.0975 -0.0784  0.2380
22142W        W38326   3.806   5.643  13.785  0.0013  0.3135  0.1113
22143W        W38327   2.358  16.085  11.289  0.1262  0.1619  0.2962
22144W        W38328  10.807   9.536  16.132 -0.2103 -0.0519  0.1290
22145W        W38329  15.579   4.349  14.603  0.1349 -0.0960 -0.0616
22146W        W38330  15.992  16.221   1.100 -0.0945  0.0852 -0.1947
22147W        W38331   5.204   1.002   1.818 -0.2857  0.0495 -0.0333
22148W        W38332  10.102   9.975  16.754  0.1064 -0.2889 -0.0160
22149W        W38333   5.492  17.248  12.162 -0.1499  0.0841  0.2477
22150W        W38334   7.394   8.821   2.171 -0.0595  0.2313  0.0016
22151W        W38335   6.870   8.898  10.968 -0.1453 -0.1914 -0.2456
22152W        W38336   1.873   1.056  14.432  0.1246 -0.2064  0.1116
22153W        W38337  15.364  13.066  12.116  0.1859 -0.2654  0.1125
22154W        W38338   0.196   3.755   1.723  0.1144  0.3887  0.1268
22155W        W38339  17.262  13.713   6.183 -0.0884  0.1866  0.0784
22156W        W38340  12.353   4.346   2.477 -0.3699 -0.1246  0.0443
22157W        W38341  10.974   1.187  15.285  0.1390  0.1076 -0.1994
22158W        W38342   2.047  14.979  11.718  0.1915 -0.0435  0.0898
22159W        W38343   5.218   0.676  13.950 -0.2463 -0.1266  0.0409
22160W        W38344  16.169   0.777  11.852  0.0617  0.1459 -0.3874
22161W        W38345   7.371   2.611  13.341 -0.1731  0.4349 -0.1644
22162W        W38346  14.032   4.664   0.231 -0.4031  0.1944 -0.0677
22163W        W38347   2.050   7.041  15.972 -0.1118 -0.0960 -0.2215
22164W        W38348   5.091  13.128   5.024  0.1514  0.4808  0.0824
22165W        W38349   3.547   3.388   5.003  0.2744  0.1924 -0.0311
22166W        W38350  14.306   2.590   1.789 -0.0627  0.2999  0.1368
22167W        W38351  12.926  12.429   2.922  0.1838 -0.2510  0.2771
22168W        W38352  11.425  15.848  11.979  0.0176  0.0079 -0.1007
22169W        W38353   8.972   9.990  12.006  0.3340  0.3182  0.1133
22170W        W38354   0.053  13.645   0.727 -0.0308  0.0621 -0.0259
22171W        W38355   0.225  12.074   5.245 -0.1386 -0.0384  0.0642
22172W        W38356  15.706   1.881  12.881  0.1236 -0.2415  0.1737
22173W        W38357   8.875   4.990  14.690  0.1029  0.1315 -0.0959
22174W        W38358  15.262  16.744   0.216  0.2065 -0.1391 -0.0116
22175W        W38359  14.680  16.001   3.497  0.1222 -0.2411 -0.0548
22176W        W38360   0.843  16.042  14.091 -0.0920  0.1551 -0.1907
22177W        W38361  12.300   4.897   2.517 -0.1317 -0.2807  0.1654
22178W        W38362  16.540  13.926   2.746  0.0582  0.2106 -0.0131
22179W        W38363  14.753   0.542  15.018  0.0803  0.0530  0.2975
22180W        W38364  13.942   9.498   3.923 -0.0344 -0.0066 -0.0359
22181W        W38365   1.553  17.393  12.727 -0.3650  0.1648 -0.1092
22182W        W38366  13.057  11.587  14.711 -0.1717 -0.2307  0.1497
22183W        W38367   5.259   2.599   5.619  0.2772  0.2360  0.1479
22184W        W38368  12.946   7.475   5.734  0.1241 -0.1556 -0.3277
22185W        W38369  15.893   6.944  13.170  0.0550  0.2827 -0.1196
22186W        W38370   5.231  16.808   5.411  0.2502 -0.0850  0.2036
22187W        W38371  11.670   1.514   1.100 -0.0153 -0.1914 -0.0952
22188W        W38372  13.075   7.643   0.022  0.1167  0.1651  0.2141
22189W        W38373  12.420  16.102   3.275  0.1890 -0.1712 -0.2943
22190W        W38374  13.493   5.871   4.940 -0.1819  0.3791 -0.1508
22191W        W38375   2.258   5.998   4.154 -0.1135 -0.0297  0.0350
22192W        W38376   3.870  14.606  16.254 -0.3837  0.0250  0.1390
22193W        W38377  15.939   4.661   3.327  0.1225 -0.3192  0.0845
22194W        W38378   8.939  12.673   0.598  0.2268 -0.0766  0.0449
22195W        W38379  11.560  16.940  11.941  0.0525  0.1207  0.2280
22196W        W38380  17.541   0.277   0.235  0.1053  0.1577  0.2245
22197W        W38381  15.412   3.191   3.494 -0.0601 -0.1910 -0.0855
22198W        W38382   0.172   4.325   4.458  0.0121  0.2959 -0.1063
22199W        W38383  15.047   6.201  14.513  0.4084 -0.2730  0.2200
22200W        W38384   1.925  14.774  12.183 -0.3142  0.0574  0.0882
22201W        W38385  16.479  11.078   1.862  0.0017  0.0278  0.0389
22202W        W38386  15.318  11.551   2.685 -0.2480  0.1221 -0.0807
22203W        W38387   6.008   1.926  11.647 -0.0936  0.0629 -0.0946
22204W        W38388  13.350   6.055   0.686 -0.1965 -0.2331  0.1252
22205W        W38389   8.461   6.261  15.867  0.1431  0.3042  0.2626
22206W        W38390   2.439  13.290  16.459 -0.0711 -0.0440 -0.0680
22207W        W38391   0.599   7.847   1.877 -0.2142  0.1446 -0.3346
22208W        W38392  11.259  16.893  15.814 -0.2484 -0.0730  0.2423
22209W        W38393   8.311   7.698  16.937  0.1636 -0.2285  0.0844
22210W        W38394   2.666   5.176  16.865  0.1534 -0.2828  0.1687
22211W        W38395   1.201   0.993  13.023 -0.0987  0.3429  0.0553
22212W        W38396   6.286   9.907   1.624 -0.2877  0.1386 -0.0107
22213W        W38397  16.399  14.693   3.056 -0.0729  0.0580 -0.5446
22214W        W38398   6.290  10.078  15.284 -0.1782  0.1601  0.1526
22215W        W38399   6.365   1.031  14.849  0.1837  0.0829 -0.1564
22216W        W38400   0.173  17.321   1.108  0.0381 -0.2519  0.4024
22217W        W38401   6.851   5.810  15.896  0.1466  0.1564  0.1869
22218W        W38402   3.909  15.884   5.618  0.3595 -0.0176 -0.2344
22219W        W38403  13.437   0.966  15.274  0.2426 -0.0653 -0.1187
22220W        W38404   8.625   0.474   3.119 -0.0170 -0.0622  0.0406
22221W        W38405   1.592   5.752  14.921 -0.2844 -0.2907  0.0016
22222W        W38406  13.591   7.055  12.511 -0.3027 -0.0815  0.1297
22223W        W38407  14.215  15.579  14.745  0.1654  0.2040  0.1930
22224W        W38408  16.848  17.094  11.461  0.4376 -0.0180 -0.3017
22225W        W38409  11.385  10.366   3.740 -0.0884 -0.0354 -0.1656
22226W        W38410  14.170   0.434  13.193 -0.2937 -0.1013 -0.0405
22227W        W38411   6.015   6.327   1.212  0.0851 -0.3341  0.2105
22228W        W38412  17.404  12.602  14.196  0.1718 -0.1826 -0.2843
22229W        W38413  14.710   1.575   0.779  0.0880 -0.1267  0.3334
22230W        W38414   9.199   4.371  16.757 -0.0702  0.1698 -0.2248
22231W        W38415   9.372   1.213   5.151  0.0720 -0.0944 -0.2705
22232W        W38416   9.951   1.035   4.988  0.0535 -0.3494 -0.2387
22233W        W38417  11.916   3.718   1.893  0.0285 -0.0402 -0.0390
22234W        W38418  12.642   6.057   2.878  0.2862 -0.2331  0.0204
22235W        W38419   7.570   7.761  14.474  0.2525  0.2307 -0.1447
22236W        W38420  14.427  14.810   3.051 -0.0231 -0.0221 -0.0896
22237W        W38421  11.472   2.951  15.104 -0.3262 -0.1046  0.0755
22238W        W38422  14.208   0.215  12.672 -0.1324  0.2148  0.0499
22239W        W38423  13.978  16.924  11.158  0.4205  0.2968  0.2380
22240W        W38424  10.119   3.169   2.569  0.1418  0.1056 -0.2907
22241W        W38425  17.786  13.085   0.908  0.0948 -0.1721  0.0918
22242W        W38426   8.810   0.539   3.579  0.0166 -0.0660  0.1230
22243W        W38427  11.382   9.226   5.233 -0.1922 -0.0334 -0.1167
22244W        W38428   4.568   8.341  13.682  0.1091 -0.2409  0.2047
22245W        W38429   6.564  16.854   1.649  0.2485  0.1301 -0.0198
22246W        W38430   9.068   2.956   0.856  0.0993 -0.2569  0.1772
22247W        W38431   7.691   1.109  13.152 -0.1510  0.0425  0.2775
22248W        W38432   4.574  15.002  13.404  0.0072 -0.2464  0.1719
22249W        W38433   0.992   4.219   2.542 -0.1747  0.0790  0.2846
22250W        W38434  14.314   8.186   5.753 -0.0508 -0.0319 -0.1003
22251W        W38435  17.796  17.263  12.319 -0.3054  0.0775 -0.2948
22252W        W38436   5.430   5.761   0.081  0.1222  0.1746 -0.0795
22253W        W38437  13.730   1.449   4.632  0.0119 -0.1648  0.1270
22254W        W38438   0.837   8.224   5.303  0.2039  0.0861  0.2000
22255W        W38439  11.507   7.145   5.007  0.0679  0.0520 -0.1863
22256W        W38440   0.154  13.838   1.176  0.0637 -0.3292  0.2510
22257W        W38441  15.588   0.786   4.707 -0.2774 -0.0559  0.1299
22258W        W38442   6.200   9.330   4.469 -0.2229 -0.2448 -0.1871
22259W        W38443  15.674   1.984  11.950  0.2474 -0.1866 -0.0493
22260W        W38444  14.648  14.094   2.490 -0.1873 -0.2943 -0.3313
22261W        W38445   6.834  17.008   4.346 -0.1442 -0.0272 -0.0702
22262W        W38446  12.964   0.609   3.421 -0.2297 -0.0639  0.0256
22263W        W38447   9.319   9.354   5.229 -0.2596 -0.0946  0.0444
22264W        W38448   9.352  14.437  14.715 -0.0800  0.1601  0.0644
22265W        W38449  11.167  14.077   6.130  0.0335  0.2347 -0.3639
22266W        W38450  15.623  15.295  16.048 -0.1253 -0.1187 -0.3443
22267W        W38451   9.615   1.570   3.374  0.0487  0.0101 -0.1317
22268W        W38452   3.690   5.477   0.494 -0.0364 -0.1273  0.0157
22269W        W38453  14.114   1.701   2.858  0.2293  0.0120  0.0722
22270W        W38454  14.742  11.650  14.344 -0.2591  0.0130  0.3412
22271W        W38455  17.178   1.301  15.615 -0.0283  0.2243 -0.0772
22272W        W38456  13.205  16.338   4.648 -0.3150  0.2251  0.0113
22273W        W38457  10.490  13.221  15.497  0.0264 -0.1587  0.1456
22274W        W38458   6.409  17.732   5.923 -0.0552  0.1500  0.0604
22275W        W38459  17.152  14.204  12.117  0.1404  0.1239  0.2618
22276W        W38460   3.322   8.583   4.748 -0.1343 -0.0917  0.0650
22277W        W38461  13.826   0.560  14.102  0.0706 -0.0427 -0.0607
22278W        W38462   2.264   5.266  15.434  0.2587  0.0728 -0.2071
22279W        W38463   0.215   4.547  15.446  0.2123 -0.0889 -0.2011
22280W        W38464   0.308   6.930  13.022  0.0668 -0.0909  0.2089
22281W        W38465  10.355   1.052  13.982  0.1278 -0.1670  0.1533
22282W        W38466  12.371   9.592  12.756 -0.1503 -0.0656  0.0593
22283W        W38467   7.223   0.019   1.720  0.0704  0.2702  0.0069
22284W        W38468   0.584  14.338   2.854  0.0648  0.2138  0.1484
22285W        W38469  17.854  14.721   5.682  0.3208 -0.2139  0.0088
22286W        W38470   9.474   2.916   2.453 -0.1846  0.1255 -0.0410
22287W        W38471  16.505  12.603   3.540  0.2763  0.0169  0.0277
22288W        W38472   7.942   4.318   0.280  0.1825 -0.1407 -0.1656
22289W        W38473  17.472   7.964   0.515 -0.2557 -0.4055 -0.2001
22290W        W38474  17.672   5.827   2.112 -0.3171 -0.1329  0.2156
22291W        W38475   6.636   0.597   1.779  0.1847 -0.3748 -0.0518
22292W        W38476  10.253  15.561  13.010 -0.0267 -0.1397  0.3616
22293W        W38477   8.632   4.196   4.704 -0.2669  0.0551 -0.0394
22294W        W38478   0.505  11.096   3.016 -0.1906 -0.0320 -0.0531
22295W        W38479  13.809   1.301   2.211 -0.3629 -0.2033  0.1323
22296W        W38480   7.988  13.726  13.362  0.0111  0.1102  0.1944
22297W        W38481   3.829  12.081  15.208  0.0817 -0.3533  0.0316
22298W        W38482  10.341   7.045  14.469 -0.0023  0.3078  0.0027
22299W        W38483  11.152   2.933  11.440  0.1357 -0.1677  0.0890
22300W        W38484   7.009   1.935   0.552 -0.0838  0.0767  0.0356
22301W        W38485  14.575   8.313  15.465 -0.0568  0.0224 -0.1760
22302W        W38486  16.656   2.900  13.289  0.1631  0.1604 -0.0045
22303W        W38487  16.184   4.646   5.786  0.4055 -0.3374  0.0213
22304W        W38488  12.758  10.747  12.175  0.2680  0.1930  0.0707
22305W        W38489  12.700   7.567   5.160 -0.0063  0.2362  0.1074
22306W        W38490   7.697   7.482   2.645 -0.2396 -0.0685  0.1551
22307W        W38491   2.562  11.486  14.671 -0.0794 -0.0784 -0.2121
22308W        W38492  10.253   5.235   4.098  0.1014 -0.0775  0.0431
22309W        W38493   6.163   3.059   4.706 -0.0749 -0.1024  0.1633
22310W        W38494   7.332  10.689  14.581 -0.0714  0.0624 -0.2403
22311W        W38495  16.694   2.022   1.983  0.4572 -0.1660 -0.0644
22312W        W38496  11.246   5.165   5.158  0.2754 -0.1461  0.0093
22313W        W38497  17.684   6.776   1.696  0.0117  0.0160 -0.3387
22314W        W38498   5.612  12.827  14.255  0.0632 -0.3249 -0.0568
22315W        W38499  15.211  11.480  15.838 -0.1893  0.1072 -0.0630
22316W        W38500   3.790   9.520   4.439 -0.4435 -0.1052 -0.2847
22317W        W38501  16.319  17.293  14.600 -0.2847  0.0792 -0.1244
22318W        W38502   9.568   0.531  13.485  0.1630  0.1820  0.1077
22319W        W38503  12.819  15.883   3.550  0.2448 -0.1170  0.2616
22320W        W38504  12.666   4.317   1.573 -0.0758  0.0318  0.4228
22321W        W38505   3.515  14.865  15.815  0.2107 -0.0394  0.2300
22322W        W38506   7.032  12.125  15.568  0.0038  0.0740  0.1158
22323W        W38507   9.832   1.947   4.203  0.1033 -0.0186  0.2567
22324W        W38508   5.315   8.373   1.960  0.1364 -0.1293  0.0306
22325W        W38509   4.620   5.882   3.181 -0.0618  0.1710  0.2636
22326W        W38510   2.853  10.380   0.552  0.0687 -0.0951  0.1638
22327W        W38511   9.422   4.794   2.839  0.2438 -0.0755  0.0232
22328W        W38512   2.975   3.253  16.865 -0.0946 -0.2494  0.2053
22329W        W38513  11.089   5.923  13.538 -0.2754 -0.0795  0.2388
22330W        W38514   1.032   6.094   1.915  0.2593  0.1869  0.1485
22331W        W38515  15.548  13.082   5.036  0.0635 -0.1256  0.2831
22332W        W38516  14.400   0.743   1.860 -0.1912 -0.0234 -0.2488
22333W        W38517   9.008  14.658   4.697  0.2166 -0.0824  0.0409
22334W        W38518   8.939   5.846   4.741  0.0291 -0.0639  0.0664
22335W        W38519  11.116  14.706  15.281  0.0035 -0.2567 -0.3462
22336W        W38520  10.088   9.842   0.331  0.1031  0.0639 -0.1017
22337W        W38521   7.141  17.784   4.371  0.0549  0.5708  0.1836
22338W        W38522  17.329   9.022  15.090  0.0741  0.4348 -0.0031
22339W        W38523   1.048   6.092   2.969  0.0756  0.3752 -0.2781
22340W        W38524  10.234  12.081   4.757  0.1196 -0.3063  0.2177
22341W        W38525   8.151  16.016  13.686  0.2918 -0.2744 -0.2370
22342W        W38526  12.985   7.688   3.553  0.2271 -0.2567  0.0233
22343W        W38527   9.724  10.387  12.343 -0.1615  0.0122  0.1840
22344W        W38528  15.426   9.752   5.465 -0.2989 -0.0791  0.0532
22345W        W38529   9.073   7.892   5.960  0.0438  0.0322  0.2657
22346W        W38530   5.943   7.241  14.309 -0.1883 -0.1153  0.1592
22347W        W38531   1.876  15.783  11.320  0.0181  0.1730  0.0039
22348W        W38532  17.556  17.503  13.177  0.1585 -0.2285  0.2638
22349W        W38533   3.858  15.753   5.077  0.1274 -0.1769 -0.0624
22350W        W38534   6.608  15.093   1.420 -0.0864 -0.2461 -0.0186
22351W        W38535  12.848   2.357   1.873 -0.2202 -0.2251  0.1102
22352W        W38536  14.571  12.356  15.104 -0.0508 -0.0882  0.2853
22353W        W38537   1.328   6.482   1.750  0.1228 -0.0686 -0.1264
22354W        W38538   6.803   5.672   5.028  0.1203  0.0611  0.2103
22355W        W38539  17.718  11.612  12.441 -0.4922  0.0603  0.0554
22356W        W38540  13.239   8.317  16.103  0.0257  0.0252  0.0940
22357W        W38541  10.851   0.003  14.875 -0.0362 -0.2074  0.0247
22358W        W38542   0.072  12.448  16.908  0.1221  0.1209  0.1068
22359W        W38543   5.005  17.014   4.970 -0.0228 -0.0900  0.2058
22360W        W38544   4.306   9.010  14.967  0.2449 -0.1760 -0.4245
22361W        W38545  15.175  17.179  16.817  0.2685  0.2751 -0.0627
22362W        W38546   4.894  16.574  16.878 -0.1436 -0.1791 -0.1364
22363W        W38547  17.150  17.071   0.085 -0.1950  0.0930 -0.1262
22364W        W38548  17.273   5.893   4.027  0.1929  0.0226  0.1267
22365W        W38549   1.260  15.439  13.362  0.2645 -0.0138 -0.1247
22366W        W38550  17.827   1.898   2.753  0.1971  0.0718 -0.1671
22367W        W38551  11.548   0.835   0.501  0.0039  0.1210  0.3264
22368W        W38552  12.548   5.990   2.421 -0.0833 -0.2582 -0.0449
22369W        W38553  13.495   7.573  13.901  0.2822 -0.1305 -0.2297
22370W        W38554   6.500   1.916  16.261  0.2693  0.2447  0.1461
22371W        W38555   7.851  16.445   0.697 -0.1331 -0.0670  0.1203
22372W        W38556  11.875   4.277  12.604  0.0633 -0.0884  0.1529
22373W        W38557   0.514  14.028  14.744  0.0058 -0.1928 -0.1822
22374W        W38558   2.207  15.668  13.973  0.0578 -0.2011  0.1172
22375W        W38559  13.979   6.969  12.826  0.1118  0.0341 -0.0326
22376W        W38560   4.988   5.981  16.369  0.2058 -0.0622  0.1134
22377W        W38561   8.421  10.144  10.682  0.3812  0.2236 -0.1278
22378W        W38562   0.882   1.001  13.850  0.2451  0.0650 -0.0221
22379W        W38563   0.084   6.836  16.225  0.2063 -0.0047 -0.1085
22380W        W38564   4.427   2.640  12.868  0.0581 -0.3307  0.2434
22381W        W38565   5.460  15.883   2.004  0.0728  0.1733 -0.1776
22382W        W38566   7.889  16.733  16.854 -0.1932  0.2627 -0.0098
22383W        W38567   2.029   6.454   1.126  0.3796 -0.0028  0.0323
22384W        W38568  17.706   8.979  15.464  0.0128 -0.0792 -0.3231
22385W        W38569   3.716  17.718  12.377 -0.3866 -0.1215 -0.0717
22386W        W38570   7.342   4.039  15.920  0.0604  0.1236  0.0004
22387W        W38571   5.522  14.875  14.914 -0.3816 -0.0541 -0.0468
22388W        W38572   0.318   6.016   1.350  0.2828  0.2428  0.1757
22389W        W38573   9.825  13.513  14.766  0.0052 -0.0831  0.1357
22390W        W38574  16.967   9.067  14.348 -0.0432  0.0410 -0.0050
22391W        W38575   7.736   6.653   2.963 -0.0722  0.0734  0.0147
22392W        W38576   8.196  14.194  13.222 -0.0728 -0.0811 -0.1969
22393W        W38577  15.118   4.804   5.760  0.2317  0.0598 -0.0252
22394W        W38578   0.244   0.039  14.472 -0.0547 -0.1519  0.0201
22395W        W38579  16.110  12.590  16.035 -0.0838  0.0083 -0.3995
22396W        W38580   6.584   7.897   2.267 -0.3090  0.2165 -0.2007
22397W        W38581  12.107   0.933   2.445  0.5630 -0.4620  0.1474
22398W        W38582   0.423   0.739   4.671  0.0143  0.3890 -0.1033
22399W        W38583  17.048  11.213   2.554 -0.3428 -0.3647  0.0424
22400W        W38584   4.535   4.281   3.986 -0.2243 -0.1278  0.2390
22401W        W38585   0.754  10.727  12.131 -0.0142 -0.2955 -0.0206
22402W        W38586  11.968   8.899  15.401  0.3142 -0.2066 -0.0551
22403W        W38587   3.338  14.488  13.833 -0.1769  0.0773 -0.1515
22404W        W38588   2.520   5.615  13.799  0.1858  0.1036 -0.2280
22405W        W38589   3.796   8.904   1.398 -0.0471  0.0871  0.0954
22406W        W38590  10.206  17.599   4.231 -0.4708  0.4928  0.0739
22407W        W38591  13.700   4.722   0.672  0.1900 -0.0566 -0.0808
22408W        W38592   6.843  16.658  13.629  0.1662 -0.1674  0.2830
22409W        W38593  15.179  10.250   0.171  0.1657  0.2363  0.0761
22410W        W38594   2.998   4.133  12.989 -0.2354  0.0063  0.0921
22411W        W38595   2.191  16.360  15.603  0.0312  0.0031 -0.2676
22412W        W38596   4.578   0.330  12.259 -0.1422  0.0948 -0.1783
22413W        W38597  16.193  11.346  13.588 -0.3227 -0.1101 -0.2397
22414W        W38598  16.478  17.064   1.057  0.0316  0.0376  0.1210
22415W        W38599  13.886  16.113   3.195  0.1648  0.1007  0.1158
22416W        W38600  16.211   1.082   4.745  0.2696  0.0640 -0.0048
22417W        W38601   9.367  17.316  16.020  0.0088  0.3489  0.2231
22418W        W38602  13.112   7.986  15.120  0.2001 -0.0151  0.1439
22419W        W38603   4.961   2.032   3.267  0.3668 -0.3178 -0.0147
22420W        W38604   1.313   7.289   2.257  0.1289  0.0317 -0.1781
22421W        W38605  14.452   7.469  13.523  0.1025 -0.0864  0.0490
22422W        W38606  15.775  11.962   2.091 -0.0284 -0.0244  0.1914
22423W        W38607   5.490  16.593  13.276  0.2138 -0.2952  0.1966
22424W        W38608  10.971  10.057   6.361 -0.3752  0.1865 -0.1755
22425W        W38609   8.091   1.505  12.336 -0.0226  0.1768 -0.0706
22426W        W38610  11.660   6.134   2.458  0.1738  0.1491  0.4181
22427W        W38611  10.533  15.511  14.792  0.0135 -0.1304 -0.1295
22428W        W38612  17.018  14.204  14.422  0.2918 -0.1779  0.0849
22429W        W38613   6.118   5.096   0.552  0.0114 -0.2378 -0.1262
22430W        W38614   5.229  17.121   2.938  0.2571  0.1207 -0.0358
22431W        W38615  12.601  10.798   4.289  0.1094 -0.0354 -0.2031
22432W        W38616   8.053   6.561  13.756  0.0528  0.4612 -0.1712
22433W        W38617  12.650   4.316  15.080  0.1252  0.2136 -0.1657
22434W        W38618   5.156  12.245  12.209 -0.0109 -0.1471 -0.1040
22435W        W38619  11.496   3.557   0.052  0.2592  0.2225  0.3278
22436W        W38620   6.240   4.521  12.388  0.3167  0.0653  0.0034
22437W        W38621   2.889  17.545   3.017 -0.3526 -0.0290 -0.1242
22438W        W38622   9.942  10.480  16.149 -0.3056  0.2995 -0.2193
22439W        W38623   8.761  15.337   1.205 -0.0965  0.3186 -0.1950
22440W        W38624   6.760   0.245   3.622  0.1874 -0.1834  0.2339
22441W        W38625   6.030   1.522  14.744  0.2976  0.0246 -0.0552
22442W        W38626  16.688   3.388   1.823  0.0543  0.0579  0.1952
22443W        W38627  10.705   4.134  14.556 -0.1487 -0.2977  0.1938
22444W        W38628  13.106  16.827   5.313 -0.1396 -0.3119  0.0570
22445W        W38629  11.860   5.379   4.426  0.1281  0.2724  0.1040
22446W        W38630   6.802   0.630   0.064 -0.0709  0.2804  0.3904
22447W        W38631   5.239  13.279   4.209  0.2843  0.1726  0.0319
22448W        W38632  12.165  11.394   4.572 -0.0166 -0.1362 -0.2730
22449W        W38633   9.857   0.173  13.775 -0.0676  0.1328 -0.0679
22450W        W38634  11.984   7.804   1.340 -0.0644  0.0517 -0.1571
22451W        W38635   2.855  15.829  11.289  0.1790 -0.0090  0.0673
22452W        W38636   6.634  14.862  12.014  0.1421  0.1624 -0.2657
22453W        W38637  10.554  12.706   3.909 -0.0497 -0.1337 -0.0703
22454W        W38638  12.489  17.388  15.744 -0.1681  0.0824  0.2030
22455W        W38639   4.187   0.896   2.935 -0.0190 -0.2676  0.2394
22456W        W38640  11.578   9.285  14.561 -0.0431 -0.0302 -0.1561
22457W        W38641   1.830   7.169  16.408 -0.0526 -0.3293 -0.1629
22458W        W38642  16.099   1.738  16.320 -0.1336  0.1134 -0.3471
22459W        W38643  12.349  13.080   1.008 -0.2022 -0.2714  0.0957
22460W        W38644   3.115   6.603  14.644  0.2733 -0.3541  0.2587
22461W        W38645   8.409   1.751  13.566  0.2241 -0.1436 -0.0688
22462W        W38646   6.117   9.040  13.668 -0.1231  0.0454 -0.1358
22463W        W38647  16.444   7.779   5.431  0.1822  0.0327  0.2090
22464W        W38648   1.909   4.150   1.927 -0.1907 -0.1010 -0.2053
22465W        W38649  17.070  13.030   2.878  0.2650 -0.0340 -0.2860
22466W        W38650   7.828  17.220  15.120  0.3714 -0.1333  0.0073
22467W        W38651  10.472   5.567   0.124  0.3695  0.2995  0.0454
22468W        W38652   1.571  11.185   2.802  0.2207 -0.2220 -0.2091
22469W        W38653   2.550  12.004  14.947  0.0527 -0.1113 -0.0172
22470W        W38654   1.380  15.927   1.598  0.0410 -0.2193  0.0940
22471W        W38655   0.079   6.192   1.818  0.0177  0.2157  0.0170
22472W        W38656  12.655   1.332  16.877  0.0629  0.2856 -0.0360
22473W        W38657  16.616   1.882  15.327  0.0129  0.3737 -0.1425
22474W        W38658  17.813  16.369   5.012  0.4867  0.1073  0.0244
22475W        W38659  10.352   6.486  11.315  0.4116  0.3155 -0.0184
22476W        W38660  11.798   5.699  12.514  0.2472 -0.0620  0.0474
22477W        W38661  14.717   0.455   1.545  0.2454 -0.0303 -0.3653
22478W        W38662   2.345   3.906  15.710 -0.0085  0.4845 -0.0604
22479W        W38663  13.418  10.572   0.516  0.1636  0.2431  0.2336
22480W        W38664   2.839   8.000  15.141 -0.2512  0.2235 -0.1269
22481W        W38665   2.027  13.462   6.065 -0.1098  0.1175  0.0058
22482W        W38666  15.001   3.522   6.624  0.0604 -0.0049 -0.1709
22483W        W38667   7.020   0.869  16.640 -0.2751 -0.1180 -0.0080
22484W        W38668   8.020   9.428  14.216 -0.4052  0.0972 -0.2296
22485W        W38669  11.875  13.765   0.779 -0.2404  0.0763 -0.0150
22486W        W38670   5.625   6.224  13.086 -0.2396 -0.1539 -0.4606
22487W        W38671  13.497  10.013   2.851  0.2163 -0.1121  0.1152
22488W        W38672  11.638   7.611   3.825 -0.0368  0.0160 -0.0141
22489W        W38673  13.434   0.095   3.137 -0.1384  0.1470 -0.0223
22490W        W38674  16.652  11.760   5.720 -0.0917 -0.1915  0.0396
22491W        W38675   3.988  12.863   2.393 -0.1813 -0.1343  0.0088
22492W        W38676  12.855  12.088  16.917  0.1519 -0.0786  0.1547
22493W        W38677   9.564   6.729  13.106 -0.0664 -0.1413  0.2954
22494W        W38678  10.682  11.775  13.389  0.0310 -0.1770  0.1266
22495W        W38679  15.114   4.780  15.450  0.2113 -0.2198  0.0185
22496W        W38680  14.450  14.522  14.608 -0.3213  0.1493 -0.3472
22497W        W38681  13.686   5.058   5.756 -0.2423 -0.1880 -0.0843
22498W        W38682   2.056  13.945  16.619  0.0808 -0.1162  0.0813
22499W        W38683  10.760  10.246  15.636  0.3678  0.1695 -0.1101
22500W        W38684   9.706  14.458   1.629  0.1072  0.1756 -0.0738
22501W        W38685   8.517   2.552   1.081  0.3566 -0.1949  0.1942
22502W        W38686   4.660   6.795   4.914 -0.2418 -0.2454 -0.0380
22503W        W38687  15.981   7.673   4.248  0.1225  0.0408 -0.1269
22504W        W38688   5.314   0.306  15.422  0.0922 -0.0811 -0.0137
22505W        W38689   1.155  14.613  11.633  0.0645 -0.0507  0.1419
22506W        W38690  10.552  13.098   2.400 -0.2420 -0.0963  0.0116
22507W        W38691   5.296   1.102  13.740 -0.2372 -0.0716  0.0739
22508W        W38692   5.291   1.395   4.690 -0.0175  0.0009  0.2545
22509W        W38693   4.486  13.528  16.592 -0.1175 -0.3482 -0.1435
22510W        W38694   6.809   9.086  11.887 -0.0463  0.0350 -0.3181
22511W        W38695   3.062  15.113   3.480  0.0139  0.0320  0.1141
22512W        W38696   5.477  15.482  12.501 -0.1094  0.1004  0.0627
22513W        W38697   7.275  11.137   3.426 -0.0160  0.1640 -0.1598
22514W        W38698  15.834   8.970   5.398  0.0356 -0.1289  0.2730
22515W        W38699   4.564   6.790   0.575  0.1053 -0.1119  0.1358
22516W        W38700  15.810  14.280  14.962  0.0447 -0.4503 -0.1400
22517W        W38701   9.525  12.920   5.524  0.0509  0.0319 -0.0552
22518W        W38702   8.436   2.805   5.664 -0.0672 -0.0414  0.0076
22519W        W38703   5.908   7.110   3.022 -0.0941  0.0731  0.0165
22520W        W38704  10.231   7.480  11.832 -0.2188  0.1132 -0.0463
22521W        W38705  15.119   5.981  15.546 -0.0542  0.1044  0.0377
22522W        W38706  13.894  14.998  16.232 -0.0589  0.1494 -0.0656
22523W        W38707   6.382   4.137  14.735  0.2600  0.1167  0.2828
22524W        W38708  13.921  13.612  15.689  0.3209  0.0893 -0.0839
22525W        W38709  15.434  11.761   4.258 -0.2131  0.1493 -0.0100
22526W        W38710  14.490   9.445   1.977 -0.0191  0.1530  0.0102
22527W        W38711   4.458  17.850  12.724 -0.2875 -0.0551 -0.1554
22528W        W38712  14.069   4.854   5.430 -0.0172  0.1181  0.3962
22529W        W38713   3.735  13.807   1.844 -0.3683  0.1383  0.6033
22530W        W38714   0.245  13.160  14.398 -0.3481 -0.0234  0.0040
22531W        W38715  10.802  10.925  12.128 -0.0386 -0.0875  0.0654
22532W        W38716  15.195  15.072   0.876  0.0511  0.3107 -0.0154
22533W        W38717  15.012  16.526  14.333  0.1519 -0.1969  0.2384
22534W        W38718  17.623  12.083   1.552  0.1040  0.1221 -0.2177
22535W        W38719  14.059   8.911  13.662 -0.2140  0.0548  0.0734
22536W        W38720   6.791   5.758  14.123  0.0087  0.0971  0.0029
22537W        W38721   9.534  17.258   2.878  0.1554 -0.1868  0.2015
22538W        W38722  13.396   6.425   3.973 -0.1608  0.1100 -0.1529
22539W        W38723   3.015   3.276  16.259 -0.1298 -0.2174 -0.0477
22540W        W38724  17.282   7.009   1.948  0.1330  0.2119  0.1615
22541W        W38725   2.463  12.082  12.778 -0.0977  0.2240  0.1894
22542W        W38726  15.407   9.555  15.870 -0.0903 -0.0650 -0.0258
22543W        W38727  16.528   2.249  13.875  0.0822  0.0837 -0.1582
22544W        W38728   5.946   4.264  12.823 -0.0340  0.1868 -0.2647
22545W        W38729  14.155   4.624   2.828 -0.1638  0.0880 -0.1457
22546W        W38730  13.725  14.181   4.989  0.2720  0.0180 -0.1488
22547W        W38731  17.079   3.828   1.725 -0.3306  0.2026  0.1409
22548W        W38732   3.809  14.817  11.187  0.1549  0.0404 -0.0154
22549W        W38733   9.894  10.207  14.850 -0.1375  0.3122 -0.3802
22550W        W38734   4.170  13.531   1.012 -0.2497  0.1876  0.2509
22551W        W38735  10.422  13.152   5.485  0.0759 -0.0256 -0.0938
22552W        W38736  12.059  14.620   4.258  0.0103 -0.1142  0.0668
22553W        W38737   3.057   8.615  16.450 -0.2291  0.0070 -0.0236
22554W        W38738  12.430   4.511   3.951 -0.0054  0.1037  0.0435
22555W        W38739  12.196   1.529   4.763  0.2224 -0.0049 -0.2375
22556W        W38740   0.788   8.037  14.460  0.2756  0.0306 -0.2016
22557W        W38741  13.027  14.911   1.555 -0.2782  0.0643  0.0064
22558W        W38742   3.878  16.999  13.965  0.0766  0.0720 -0.0835
22559W        W38743   8.311   3.525   1.832 -0.0971  0.0324  0.0458
22560W        W38744   0.898   1.217   2.496  0.4771 -0.2863 -0.2479
22561W        W38745  11.481   7.358  12.048 -0.0233 -0.0649  0.4078
22562W        W38746  10.212   9.410   5.779  0.0369 -0.1826  0.2632
22563W        W38747  10.360   7.273   0.302 -0.1235  0.1857 -0.0658
22564W        W38748   2.183  10.701  14.599 -0.0334 -0.0196 -0.4304
22565W        W38749  13.654  13.416   3.844 -0.0407  0.2706  0.0297
22566W        W38750  12.726  10.855   1.060 -0.0241  0.2401  0.1544
22567W        W38751  13.655   5.016   3.690 -0.0769 -0.2133  0.1401
22568W        W38752   3.422  11.701  15.396 -0.1270 -0.2783  0.1528
22569W        W38753  17.703   8.727   1.597  0.0222 -0.2045 -0.1869
22570W        W38754   4.909  12.941   3.738 -0.0498 -0.1332  0.0246
22571W        W38755   2.057   0.065   4.874  0.3608  0.0367  0.0693
22572W        W38756   5.549   0.178  13.926 -0.0243 -0.1042  0.1319
22573W        W38757  11.517   6.995  12.818  0.1968 -0.1326  0.3761
22574W        W38758  15.196  14.371   3.008 -0.1949 -0.1237  0.0405
22575W        W38759   1.765  13.893   2.929  0.1865 -0.2036  0.0937
22576W        W38760   6.089  16.133  14.912  0.0945 -0.1140 -0.0819
22577W        W38761  10.644  15.215   0.057  0.0090 -0.0705  0.0066
22578W        W38762   5.548   8.224  13.219  0.5173 -0.3149 -0.2349
22579W        W38763   3.077   4.409   2.999  0.0463 -0.1096 -0.1608
22580W        W38764   7.451   5.196   2.823 -0.0933 -0.0119  0.0266
22581W        W38765   7.280   0.489  14.612 -0.0096 -0.1135 -0.3943
22582W        W38766   2.886  13.237   2.640  0.2384 -0.1331 -0.1706
22583W        W38767   0.021   3.206   3.207  0.0392  0.1248  0.0023
22584W        W38768  12.517  16.086   3.929 -0.1478 -0.0038 -0.1367
22585W        W38769  16.362   1.678  14.471 -0.2892 -0.1529 -0.2329
22586W        W38770  14.350   8.155   4.331 -0.1281  0.3493  0.0976
22587W        W38771  14.573   8.740   5.622  0.0634 -0.0615 -0.2498
22588W        W38772   6.568   1.147  16.806 -0.0413  0.3338  0.2226
22589W        W38773  12.011  11.232  14.916  0.0745  0.4429  0.1450
22590W        W38774  10.002  11.464  12.005 -0.2850  0.3244 -0.1033
22591W        W38775   2.777  10.092  15.945  0.0478  0.0438 -0.3251
22592W        W38776   2.225   2.126  13.525 -0.0141  0.2718 -0.2719
22593W        W38777   3.092   0.959  15.475  0.0979 -0.0450  0.0179
22594W        W38778   2.576   2.311   5.705  0.0871 -0.3456 -0.0545
22595W        W38779  14.082   3.804  16.114  0.1827  0.3209 -0.0833
22596W        W38780   8.771   3.761   5.517  0.0680  0.1103  0.0963
22597W        W38781   4.742   6.698  16.075  0.1190 -0.2972 -0.2058
22598W        W38782   6.379   4.023   2.009  0.2013 -0.0220 -0.1468
22599W        W38783   8.216  16.453  11.430 -0.2728 -0.0292 -0.0156
22600W        W38784  11.605  11.784  15.615 -0.0252  0.2139  0.1417
22601W        W38785   2.333  10.589   5.191 -0.0615 -0.5437 -0.1124
22602W        W38786   0.465  12.716  16.844 -0.0454  0.0079  0.0150
22603W        W38787   1.188   3.102  13.735  0.0689 -0.2434 -0.0233
22604W        W38788  11.499  11.223  14.984  0.0029  0.2762 -0.3607
22605W        W38789  14.231   5.003   2.055 -0.0901 -0.0391  0.3009
22606W        W38790  12.669  16.107   1.091  0.0080  0.2393 -0.4617
22607W        W38791   4.005  13.834  14.069  0.2148  0.1445 -0.1509
22608W        W38792   5.245   6.196   0.525  0.0467 -0.3005  0.0182
22609W        W38793  17.592  13.547   1.174  0.0475  0.1946  0.3154
22610W        W38794  13.167   8.931   3.686 -0.0112 -0.0496 -0.1355
22611W        W38795  14.003   6.444   3.918  0.1507 -0.1774 -0.0041
22612W        W38796   1.973  15.901  12.622 -0.0652  0.0920  0.2570
22613W        W38797   2.287   0.190  16.438  0.0167  0.1387  0.0706
22614W        W38798   9.479  13.923  16.658 -0.1874  0.1255  0.0921
22615W        W38799  15.884   3.591   4.878  0.0626  0.1888  0.5673
22616W        W38800   4.050   8.408   6.289 -0.0618 -0.2355 -0.2761
22617W        W38801  16.643   7.586  15.715  0.1382  0.0709  0.0548
22618W        W38802   9.362   2.090  15.242 -0.0076 -0.0374  0.2389
22619W        W38803   1.367   0.735  15.190 -0.0986 -0.1404  0.1798
22620W        W38804  14.048  13.802   1.835  0.0947 -0.0291 -0.2061
22621W        W38805  16.616   6.427   2.290 -0.0854 -0.1496  0.1876
22622W        W38806   8.253  12.359   2.162 -0.0111  0.1605  0.2093
22623W        W38807  11.700   5.504   1.010 -0.2238  0.0886  0.0987
22624W        W38808   2.102   4.029  16.192  0.0541 -0.2156 -0.1797
22625W        W38809   3.615   0.312  15.753 -0.3984 -0.5642  0.1205
22626W        W38810  16.381   7.161  12.381 -0.2784  0.1631  0.2446
22627W        W38811   6.304   8.676   1.603  0.0721  0.1598 -0.2374
22628W        W38812  16.853   2.496  14.238 -0.1577 -0.0363  0.2041
22629W        W38813   5.088  15.102   4.645 -0.0663  0.0099 -0.1006
22630W        W38814  12.549   2.211  14.592  0.2108  0.5423  0.1628
22631W        W38815  15.179  12.994   1.982 -0.5341 -0.2282 -0.1363
22632W        W38816   9.995  16.288  12.009 -0.0483 -0.0894 -0.0861
22633W        W38817   4.848   5.928   5.033 -0.1887  0.1010  0.0599
22634W        W38818   2.014   1.296  13.625 -0.2078  0.0651 -0.1377
22635W        W38819   7.307  17.022   3.509 -0.2854 -0.0243 -0.3346
22636W        W38820   6.962  14.638  14.469  0.1527  0.0293 -0.0215
22637W        W38821   5.256   3.702   2.878 -0.0534  0.1460  0.1627
22638W        W38822  13.942  14.480   4.610 -0.1513 -0.2008 -0.0434
22639W        W38823  12.481  10.472   1.266 -0.0348 -0.0252 -0.2772
22640W        W38824   3.125   9.588  10.504  0.0843 -0.2802  0.0907
22641W        W38825   7.016  11.424  16.438  0.1805  0.0196  0.3144
22642W        W38826  10.898   5.896   0.315 -0.1879  0.0144  0.0177
22643W        W38827  10.570   0.587  11.947 -0.0449 -0.1518  0.4504
22644W        W38828   3.193   8.334  14.282 -0.0225  0.2325 -0.0193
22645W        W38829   8.032   7.702   1.147  0.3378 -0.1437 -0.3210
22646W        W38830   0.424   0.779  13.890 -0.3422  0.0069  0.0511
22647W        W38831   3.950  14.844   4.189 -0.2797 -0.4986  0.1189
22648W        W38832  13.796   0.274  14.861  0.1012  0.0577 -0.0854
22649W        W38833   4.866   4.652  13.513  0.1391 -0.2410  0.1975
22650W        W38834  13.536   0.953  12.134  0.2290  0.4161 -0.4764
22651W        W38835  11.007   8.370   1.904  0.0329 -0.2343  0.0624
22652W        W38836  10.844  17.543  16.487  0.0502 -0.0515  0.0462
22653W        W38837   8.590   8.539  16.874 -0.2578 -0.3705 -0.2914
22654W        W38838   1.769  15.152   6.187 -0.1373 -0.0671  0.2944
22655W        W38839   6.565   1.557   5.449  0.1492 -0.1173 -0.2492
22656W        W38840   4.622   2.214   0.210  0.0125  0.0218  0.0048
22657W        W38841   3.793   9.049  15.737  0.0907  0.0692  0.0334
22658W        W38842  14.587   1.006  16.234  0.0831 -0.2931 -0.6353
22659W        W38843  17.329  14.220  14.926  0.2261 -0.2106 -0.1976
22660W        W38844  12.132  14.633   5.549  0.1114 -0.0282 -0.0974
22661W        W38845  13.160   3.264  13.106  0.0932 -0.0396 -0.1758
22662W        W38846  11.136   5.367  13.164 -0.1912 -0.1891  0.1690
22663W        W38847   2.632   7.112   1.496  0.1538  0.0280 -0.2407
22664W        W38848   4.897  11.994  15.153 -0.0412  0.2203  0.2416
22665W        W38849   0.231   0.096   1.947  0.1057 -0.1952 -0.4355
22666W        W38850  13.998  10.542   2.895  0.0251  0.2862  0.1584
22667W        W38851   3.115   1.006   4.692  0.0045 -0.0897 -0.0247
22668W        W38852  14.958  13.076  13.396  0.1292 -0.0260 -0.2835
22669W        W38853  14.118   4.656  14.436 -0.3071 -0.0940 -0.1602
22670W        W38854  13.378  14.491   3.812  0.1743  0.1634 -0.1469
22671W        W38855   2.726  12.884   1.257 -0.0716  0.2627  0.2308
22672W        W38856  15.259  12.688  13.155  0.3511  0.5173  0.0623
22673W        W38857   6.706   5.729  13.654  0.4579  0.0087  0.1391
22674W        W38858  17.337  15.064  15.063 -0.4205  0.0636  0.1420
22675W        W38859   1.135  10.541  13.758 -0.0763 -0.1889 -0.1464
22676W        W38860  16.932   9.795  14.790 -0.1563  0.1624 -0.2064
22677W        W38861  17.502  14.535  12.457  0.1562 -0.2168 -0.0153
22678W        W38862  17.760   7.562   1.316 -0.2443  0.2096  0.0146
22679W        W38863   9.880   1.412   0.763 -0.0532  0.1718  0.2643
22680W        W38864   5.162  16.529   0.424  0.3480  0.3166 -0.0159
22681W        W38865  10.486   9.562  13.281  0.0051  0.0777 -0.0632
22682W        W38866  15.642   9.289   3.633  0.0013  0.0372 -0.0028
22683W        W38867   4.960   7.280  13.509  0.1068 -0.1746  0.0798
22684W        W38868  11.739  16.347  12.013  0.1266 -0.1006 -0.0644
22685W        W38869  11.808   7.827   2.122  0.0461 -0.4488  0.1630
22686W        W38870   2.671  15.064  13.917 -0.1046  0.1206  0.2113
22687W        W38871   6.180   2.897   3.429  0.0154  0.1491 -0.2455
22688W        W38872  15.024   6.628   1.969  0.1714 -0.0897 -0.1129
22689W        W38873   1.866   9.440   3.602  0.0680  0.0883 -0.4303
22690W        W38874  17.000  15.381   3.303 -0.0539  0.2258 -0.1977
22691W        W38875   2.132   9.664   1.303 -0.2283  0.1498  0.0426
22692W        W38876   7.469  17.611  12.929  0.0935 -0.0936  0.0538
22693W        W38877   6.443  15.335   4.891 -0.0323 -0.1954  0.3150
22694W        W38878  17.797  11.494   2.432  0.1913 -0.1293 -0.0679
22695W        W38879   1.768   9.395   1.000 -0.1043 -0.0132 -0.1471
22696W        W38880  11.917   6.012  12.091  0.2404 -0.0301 -0.2344
22697W        W38881   1.573   2.083  14.606  0.0925 -0.0393 -0.1102
22698W        W38882  15.805  14.480  16.722 -0.0570  0.1986 -0.0707
22699W        W38883  10.702  13.923   6.270 -0.1353  0.1458 -0.3062
22700W        W38884   4.722   9.437  16.063 -0.2760  0.0611  0.0562
22701W        W38885  16.425   3.179  15.846 -0.2001 -0.0071  0.0756
22702W        W38886   9.653  10.804   2.398 -0.1726  0.2202  0.1911
22703W        W38887  13.766  11.083  13.047 -0.0989 -0.1368  0.2749
22704W        W38888   7.403  16.202  11.637 -0.0344  0.0325 -0.0683
22705W        W38889  16.030  15.726   6.321 -0.1882 -0.1932  0.1328
22706W        W38890   9.054   6.450   2.126 -0.1332  0.0732  0.2590
22707W        W38891  12.346  13.574   0.751  0.0237  0.1989 -0.1234
22708W        W38892   3.152   8.338  15.470  0.0135  0.0282 -0.1446
22709W        W38893   4.699   3.898   4.271 -0.2487  0.1691  0.2327
22710W        W38894  12.596   0.532  15.680  0.0652  0.1665 -0.3039
22711W        W38895  10.610   1.813   1.592  0.2586 -0.0428  0.1493
22712W        W38896  17.568  17.415   2.705 -0.0161 -0.1051 -0.1497
22713W        W38897   1.275   6.866  11.528  0.1952  0.0427  0.0413
22714W        W38898   4.898  10.900   2.965 -0.0508  0.1935  0.0173
22715W        W38899  17.475  13.266   1.564 -0.0690 -0.0875  0.3977
22716W        W38900   0.673  16.738   4.809 -0.1259 -0.0602  0.2507
22717W        W38901   6.001   2.406  11.812 -0.0205  0.0216 -0.0583
22718W        W38902  11.929   7.397  15.343  0.0916  0.1371 -0.0708
22719W        W38903  14.724  12.802  16.074  0.0527 -0.0129  0.2008
22720W        W38904  16.741  10.923   5.158 -0.1194 -0.2223  0.2203
22721W        W38905  16.607   0.487  13.769  0.4549 -0.0864  0.0494
22722W        W38906   7.441   5.672   3.788 -0.1289 -0.0423  0.0068
22723W        W38907   3.586   0.968   3.934 -0.2065 -0.0300  0.1359
22724W        W38908   2.508  11.593  12.961  0.0805  0.0053  0.1980
22725W        W38909   3.055   7.439  13.249  0.0273 -0.0788 -0.3043
22726W        W38910  17.018  16.455  13.663 -0.2111  0.1159 -0.1715
22727W        W38911  11.081   2.449  15.862 -0.1375  0.1008  0.2575
22728W        W38912   5.100  14.191   4.642  0.0269  0.1770  0.1858
22729W        W38913  15.818   6.867   2.427  0.1229  0.3480  0.1041
22730W        W38914  13.942   8.012   3.455 -0.1026 -0.1382 -0.0112
22731W        W38915  15.059   0.220   3.709 -0.3064 -0.0232  0.0623
22732W        W38916   5.022   7.434   3.424  0.0767  0.0188 -0.1682
22733W        W38917  13.233  10.727  12.976  0.0713 -0.1136  0.0050
22734W        W38918  14.691   3.311   1.567 -0.2391  0.2894 -0.0229
22735W        W38919   4.316   9.560  16.912  0.0471  0.1903  0.1696
22736W        W38920   7.913  10.175  12.340  0.1294 -0.0550 -0.1671
22737W        W38921  10.820  14.227  16.744 -0.1802 -0.2745 -0.3056
22738W        W38922  15.275  16.790   2.547 -0.1858 -0.2352 -0.0195
22739W        W38923   4.662  16.178  16.549 -0.1445  0.0828  0.0833
22740W        W38924   0.817  11.792  15.326  0.3897 -0.0949 -0.1590
22741W        W38925   9.147   6.466   0.905 -0.3316 -0.0172 -0.0782
22742W        W38926   0.712  12.126   6.227 -0.2584 -0.0760 -0.2770
22743W        W38927   2.740   0.563  15.507  0.2275  0.1665  0.3985
22744W        W38928  10.601  10.655  13.695 -0.0521  0.2015  0.1422
22745W        W38929   7.880  14.703   0.597  0.0325  0.0614  0.2722
22746W        W38930  13.998   8.950   3.261  0.1930 -0.0197 -0.1547
22747W        W38931  17.147  13.132   3.812 -0.3063 -0.1585 -0.2099
22748W        W38932  13.774  11.386   2.873  0.0432  0.0546 -0.1296
22749W        W38933   7.520   5.536  15.202  0.2219 -0.3765  0.3630
22750W        W38934  17.533  11.204  15.059  0.1578  0.1968  0.2421
22751W        W38935   3.123   3.349  14.017  0.0243 -0.0626  0.2176
22752W        W38936   2.309   7.872  11.534 -0.0912  0.0483  0.2373
22753W        W38937  12.217   0.132   3.335 -0.0934 -0.1393  0.0399
22754W        W38938  12.079   1.647   3.813  0.0394  0.2056  0.1432
22755W        W38939   1.804  12.581   5.428  0.0961  0.0656  0.1133
22756W        W38940  13.528  15.331  12.544 -0.0473  0.0032  0.0991
22757W        W38941   5.139   4.427  15.486 -0.2436  0.0785 -0.1648
22758W        W38942   3.379  16.080   3.263 -0.0785 -0.1472  0.3620
22759W        W38943   9.980  13.592  16.048 -0.2163 -0.1922  0.0811
22760W        W38944  13.005  16.735   2.929 -0.1764 -0.1606 -0.0563
22761W        W38945   3.258   7.496  15.110  0.0543  0.1454  0.1788
22762W        W38946  13.900   1.838   0.236 -0.3774 -0.0586 -0.0589
22763W        W38947   1.707  17.345   4.840  0.0601 -0.2443 -0.1514
22764W        W38948  17.398   8.536   5.370 -0.3078 -0.2028  0.0362
22765W        W38949   9.893   0.592   3.800  0.2177 -0.0580 -0.0667
22766W        W38950  16.244  15.567   4.634  0.1134 -0.1664 -0.0856
22767W        W38951  14.137  15.431   0.632  0.2835 -0.2971 -0.0217
22768W        W38952  12.178  17.172  16.178  0.0520 -0.1689 -0.1482
22769W        W38953  10.701  15.808   1.557  0.0295 -0.2602  0.1284
22770W        W38954   8.478  16.069   1.248  0.2126  0.3500 -0.0056
22771W        W38955   6.323  11.981   1.258 -0.2214  0.0051 -0.1711
22772W        W38956   1.185   0.874   4.566 -0.1494 -0.0344  0.1551
22773W        W38957  17.456   9.024   0.649 -0.0867  0.1957 -0.0886
22774W        W38958   5.091   3.914   5.170 -0.0035  0.0340 -0.0419
22775W        W38959   1.651  10.729  14.573 -0.0828 -0.2270  0.0141
22776W        W38960   8.395   4.785   3.340 -0.0146  0.2079 -0.0775
22777W        W38961  11.649  17.669   1.221  0.0029  0.0633 -0.2432
22778W        W38962   4.791   3.938   1.251  0.0165  0.0138 -0.2368
22779W        W38963  14.200  16.144  14.723  0.1852 -0.3555 -0.1909
22780W        W38964   8.710  16.186   3.788 -0.0376  0.1100 -0.0664
22781W        W38965  11.124  17.186  11.535 -0.2507 -0.1574 -0.3689
22782W        W38966   1.651   5.338   3.008  0.3092 -0.0589 -0.2920
22783W        W38967   1.030  11.149   1.730 -0.1374 -0.1849 -0.0207
22784W        W38968   9.167   6.121  14.438  0.0955 -0.0661  0.0571
22785W        W38969  16.492   9.582   1.720 -0.3306 -0.0080 -0.0143
22786W        W38970   1.444   2.375   5.507 -0.0183  0.0234  0.0167
22787W        W38971   5.408  10.845   0.424 -0.2312 -0.1173  0.0368
22788W        W38972  16.945   0.109   1.756 -0.0536 -0.1829  0.1614
22789W        W38973   5.945   0.112  12.707  0.0914  0.1848  0.1283
22790W        W38974  10.879   7.904  12.448  0.3859 -0.0526  0.1079
22791W        W38975   0.606   4.311  14.316  0.1657  0.0375 -0.0337
22792W        W38976   7.946  15.522  11.653  0.1075  0.1522  0.1136
22793W        W38977  13.366  10.660   3.760 -0.1975  0.0036  0.0880
22794W        W38978   4.947   9.856  13.556  0.0686  0.0956 -0.0613
22795W        W38979  15.933   0.254   2.771  0.2246 -0.3800  0.0710
22796W        W38980   1.719   3.581   1.043  0.2475 -0.0944 -0.1991
22797W        W38981  13.868  14.457   0.735 -0.3486  0.0198 -0.0967
22798W        W38982   9.060   3.693  12.217  0.0791 -0.1601  0.0540
22799W        W38983   8.518  15.362   4.716 -0.1480  0.5068 -0.2453
22800W        W38984  12.843   0.745  16.870  0.2987 -0.3256  0.0092
22801W        W38985   2.414  12.008   1.135  0.0320 -0.0132  0.0831
22802W        W38986  12.598   0.673   1.571 -0.1045 -0.1570 -0.0215
22803W        W38987  12.003   1.767  12.725  0.3147  0.3743 -0.0266
22804W        W38988   2.365  15.198  12.051 -0.2761  0.2336  0.0459
22805W        W38989   2.952  16.458   2.652 -0.2848 -0.0891 -0.0310
22806W        W38990  17.371   8.584   3.849 -0.1825 -0.0150 -0.0640
22807W        W38991   6.785   8.693   0.344 -0.1652  0.1631 -0.1152
22808W        W38992  17.738   6.541  14.397  0.0145  0.1687 -0.1090
22809W        W38993   4.652   6.488   4.116  0.2229  0.2331  0.1818
22810W        W38994  13.809   6.607  12.572 -0.2966  0.0613 -0.2749
22811W        W38995  14.815   7.584  15.860 -0.1586 -0.1845 -0.0945
22812W        W38996  10.014  10.445   0.849 -0.1574  0.1946 -0.0452
22813W        W38997   8.992  16.106   4.650 -0.0424 -0.2559  0.0421
22814W        W38998  11.276  14.071   0.161 -0.0642  0.1363  0.2378
22815W        W38999   6.651  15.072   1.914 -0.3592  0.1371 -0.0289
22816W        W39000  15.142   9.817   0.682  0.0963  0.4137 -0.2498
22817W        W39001   0.718   0.952  13.314 -0.4080 -0.1802 -0.2087
22818W        W39002  14.670  17.100   4.556  0.1445 -0.1007  0.2269
22819W        W39003   1.700  16.924   5.826 -0.2352 -0.0884 -0.0197
22820W        W39004   0.335   9.627   4.447  0.1980 -0.0641 -0.0270
22821W        W39005   4.131  15.464  11.829 -0.0123  0.0151 -0.0343
22822W        W39006   6.406   1.512  13.391  0.0006  0.1525  0.3081
22823W        W39007   5.100   8.456   4.189  0.1825 -0.0492 -0.2271
22824W        W39008   7.453  13.245   4.846  0.1181  0.1488  0.2724
22825W        W39009   4.115  11.651   3.992 -0.1543  0.0457  0.1411
22826W        W39010  15.788  14.996  16.723  0.0183 -0.4870  0.1482
22827W        W39011  11.129   3.651   0.379  0.0671  0.0358 -0.0407
22828W        W39012  16.616   0.301  14.620  0.1348  0.0305  0.2821
22829W        W39013   2.792  11.476  15.123 -0.1762  0.0079 -0.0387
22830W        W39014  13.473   5.684   3.314  0.0990 -0.2453 -0.1130
22831W        W39015  11.430  12.643  16.357  0.0352 -0.1832 -0.0647
22832W        W39016  17.318   9.553   5.821 -0.0183  0.1024  0.1454
22833W        W39017   7.269   1.210  15.370 -0.3924  0.1500 -0.0174
22834W        W39018   6.861  16.835  14.094 -0.4016  0.0240 -0.2040
22835W        W39019   8.679  16.600   0.401  0.2260 -0.1412 -0.2525
22836W        W39020  15.443   9.033   4.976  0.1380  0.1906 -0.2355
22837W        W39021   4.445   2.447   4.413 -0.3420  0.3545  0.1143
22838W        W39022   3.978   0.531  14.858 -0.2964  0.1654 -0.0767
22839W        W39023   8.644  14.201   3.324 -0.2719 -0.0307 -0.1352
22840W        W39024   9.782  11.386   2.714  0.1200 -0.1529  0.2250
22841W        W39025  10.647   9.615  14.788 -0.1477 -0.3511 -0.1709
22842W        W39026   9.755   7.113  13.883 -0.1796 -0.1333  0.0420
22843W        W39027   9.279  12.675   1.108  0.1459 -0.0147 -0.0197
22844W        W39028  13.188  12.351   3.478  0.1176  0.1763  0.1006
22845W        W39029  17.038   5.765  12.637 -0.0257  0.1069 -0.1900
22846W        W39030  11.826   4.079   0.136 -0.3251  0.0138 -0.0839
22847W        W39031  14.661  14.990   6.449  0.0688 -0.1818  0.0570
22848W        W39032  12.030   0.405  13.804 -0.2575 -0.1614 -0.3429
22849W        W39033  13.982   7.403  12.028  0.1702  0.0689 -0.1548
22850W        W39034   5.796   2.533   3.528 -0.2410 -0.3056 -0.2363
22851W        W39035   1.181   0.061  11.918  0.1050  0.1920  0.1072
22852W        W39036   9.166   0.802  13.403  0.0767  0.0014 -0.1561
22853W        W39037  15.586   3.270   3.957  0.1712  0.0407 -0.0112
22854W        W39038   2.216  14.251  15.643 -0.1549  0.0883  0.0947
22855W        W39039  14.945  14.026   0.126 -0.0537 -0.2129 -0.1411
22856W        W39040  13.991   0.604   2.669  0.1297  0.0963 -0.2061
22857W        W39041   5.435   8.268  16.392 -0.3510  0.0005  0.0643
22858W        W39042  17.497   6.598   2.767 -0.0490  0.0894  0.0534
22859W        W39043   3.538   9.230   0.955 -0.1213  0.0469  0.1462
22860W        W39044  10.709  16.424  15.344  0.2612  0.3572  0.0040
22861W        W39045   7.737   4.702  13.426 -0.0215  0.2281 -0.0589
22862W        W39046   6.144   9.643  14.375 -0.1471  0.0076  0.1507
22863W        W39047  10.428   5.789   2.315  0.1264  0.2260  0.0645
22864W        W39048   0.374   1.797   6.441 -0.1441  0.0135 -0.2838
22865W        W39049  10.566   2.459  13.220 -0.0970 -0.0210 -0.0071
22866W        W39050  15.944  17.126   1.981 -0.0534 -0.4646  0.1428
22867W        W39051  11.567   3.604  14.582 -0.1217 -0.1980 -0.0882
22868W        W39052  11.128  14.316   5.667  0.0473  0.0817  0.0168
22869W        W39053  16.406   4.572  12.719 -0.1442 -0.0855 -0.0807
22870W        W39054  15.889   5.872  16.674  0.0751 -0.3050 -0.0092
22871W        W39055  14.387  12.650   1.541 -0.0831  0.1146  0.1210
22872W        W39056   0.540   2.318   0.025 -0.4886  0.1944 -0.0778
22873W        W39057   3.767   2.846   3.591 -0.2263  0.0051 -0.1668
22874W        W39058   7.069   5.758  11.894 -0.0332 -0.2272  0.3526
22875W        W39059  12.208  12.525   4.253  0.3451 -0.0143 -0.0067
22876W        W39060  10.081   4.356  12.608  0.1925 -0.0054 -0.1861
22877W        W39061  11.523   1.939   4.467  0.0699 -0.0796 -0.1349
22878W        W39062   8.922  15.165   4.936 -0.1577  0.2916  0.0297
22879W        W39063   5.363   9.627   3.319 -0.0038  0.2489  0.1343
22880W        W39064   0.024   2.387   3.069 -0.1924 -0.2440 -0.1587
22881W        W39065   3.095   8.059  13.895 -0.1668 -0.0555 -0.2847
22882W        W39066   4.945  10.536  15.732 -0.0113 -0.3435  0.0596
22883W        W39067   9.311   5.955  15.521  0.0951  0.3168 -0.1487
22884W        W39068  15.600  10.005  16.345 -0.4619  0.0151  0.2394
22885W        W39069   5.528   0.708  15.188  0.0869 -0.1501  0.0817
22886W        W39070  17.082   1.581  16.512 -0.2891 -0.0452  0.3756
22887W        W39071  10.182  14.217   2.886 -0.0177  0.1111  0.0197
22888W        W39072   6.792   9.720  15.133 -0.0014 -0.2088  0.1260
22889W        W39073   1.117   0.515   3.587  0.0462 -0.1752  0.0716
22890W        W39074  14.762  10.746   4.976 -0.1664  0.2109  0.3547
22891W        W39075  11.333  12.815   1.404  0.2596  0.1576  0.0420
22892W        W39076  11.165  10.102  13.053  0.0100 -0.1533 -0.0565
22893W        W39077  16.480  13.531  12.440  0.0745  0.3227 -0.2672
22894W        W39078   3.589  16.729  16.862 -0.3682  0.1868 -0.2708
22895W        W39079  12.409   4.270   3.115 -0.0831 -0.0650 -0.0315
22896W        W39080  10.205   7.356  14.058 -0.0010  0.1195 -0.0499
22897W        W39081   5.134   1.365  12.324 -0.2868  0.2054  0.1026
22898W        W39082  14.567   1.160  13.675  0.0942  0.1179  0.0859
22899W        W39083  14.500  10.841   2.857  0.1190  0.0067  0.0137
22900W        W39084   6.220  11.270  14.628 -0.3019 -0.1257  0.1018
22901W        W39085   5.923   4.747  13.727  0.0416 -0.1447 -0.1084
22902W        W39086   9.869   1.071   1.184 -0.2447 -0.1789  0.0205
22903W        W39087  12.645   9.388   3.175  0.1332 -0.1127  0.1831
22904W        W39088  12.271  15.435  12.553 -0.0468  0.0297  0.1146
22905W        W39089   9.376   9.972  15.021 -0.0504 -0.1495 -0.1781
22906W        W39090  13.778   5.842  14.770 -0.0331 -0.0353  0.1364
22907W        W39091  14.189   2.229   3.548  0.0623  0.1660 -0.2686
22908W        W39092   5.712   5.468   5.337 -0.3516  0.1619  0.0507
22909W        W39093   8.321   3.367  12.551  0.0875 -0.2027  0.0608
22910W        W39094  10.347  13.702  15.609 -0.0050  0.0802 -0.2936
22911W        W39095  11.600   7.822   4.284 -0.1013  0.0423  0.1490
22912W        W39096  10.023  13.202  16.490  0.0916  0.2855  0.0870
22913W        W39097  13.488   6.225  12.749 -0.0883  0.1668  0.2830
22914W        W39098   7.452  11.390   3.040  0.0451 -0.3197 -0.3275
22915W        W39099   5.663   7.958  12.812  0.2403 -0.0660 -0.0855
22916W        W39100  15.460   2.760   5.850 -0.0621 -0.0458  0.2784
22917W        W39101  17.650  15.958  11.648 -0.1137 -0.2731  0.0573
22918W        W39102  14.705  12.724  14.634  0.0921  0.1697  0.0207
22919W        W39103   6.422  13.480  15.716 -0.3317 -0.0667 -0.0908
22920W        W39104  17.578  14.027   3.090  0.0134  0.1848  0.1693
22921W        W39105  13.267  11.480  13.069  0.0648  0.0003 -0.0053
22922W        W39106  12.840   4.347  11.805  0.1989  0.0570 -0.2197
22923W        W39107   9.379  16.163   2.869 -0.2130  0.1707 -0.1674
22924W        W39108   1.422   3.216   5.612 -0.1369  0.1960 -0.0466
22925W        W39109  13.794   1.652   0.693 -0.1404 -0.0381 -0.2853
22926W        W39110   4.105  11.958   0.754  0.0080  0.3983 -0.0921
22927W        W39111   8.419  16.197   5.202 -0.0613  0.0400  0.0353
22928W        W39112  13.938   5.606   4.023  0.1636  0.1241  0.1350
22929W        W39113  10.291   4.249  15.527  0.1826  0.2142  0.1435
22930W        W39114   2.388   9.286  16.401 -0.1171 -0.0182 -0.0092
22931W        W39115   2.839   0.136  13.031  0.0462  0.1096  0.1097
22932W        W39116  16.780   2.990   0.470 -0.0738  0.2479  0.0527
22933W        W39117   6.814  16.475   4.567  0.3328 -0.1593  0.0098
22934W        W39118  13.358   7.541  14.972  0.2110 -0.0692 -0.2080
22935W        W39119  13.595  17.271  12.773 -0.0737 -0.3200  0.0455
22936W        W39120   3.636   7.313   5.006 -0.0781 -0.3235  0.1055
22937W        W39121  11.718   7.829  11.957  0.2237 -0.0617 -0.2152
22938W        W39122   9.826   4.549   2.707  0.0423  0.2217  0.3761
22939W        W39123   4.468   4.499  12.934 -0.1986  0.0068 -0.0401
22940W        W39124   6.071  16.738   5.102  0.0373 -0.0572 -0.2374
22941W        W39125  17.039  11.027  16.582 -0.3249  0.0190  0.0283
22942W        W39126  13.259   6.187   3.471  0.3059  0.0680  0.2498
22943W        W39127   2.164   2.975  14.032  0.1742  0.2554  0.0855
22944W        W39128  17.382   4.127  16.128  0.3130  0.0728  0.2885
22945W        W39129   7.710  14.256  11.575  0.0254  0.2724 -0.0248
22946W        W39130   4.362   5.015   1.181 -0.0854  0.2016  0.0524
22947W        W39131   2.608  14.688   1.562  0.4572 -0.2043  0.0818
22948W        W39132  13.266   8.682  13.992  0.2611  0.3227  0.0671
22949W        W39133  10.127  11.762   5.160 -0.0664  0.0752  0.1840
22950W        W39134   8.790  16.643   4.567  0.1631 -0.0832 -0.2212
22951W        W39135  17.805   3.429  15.662 -0.0199  0.0521 -0.2458
22952W        W39136   8.909   0.689  10.536  0.0155  0.1005  0.3208
22953W        W39137   3.893   8.873   3.916 -0.0774 -0.0746 -0.1542
22954W        W39138  15.799   1.801  13.348 -0.1492 -0.2023  0.0120
22955W        W39139  16.427   5.296  16.884 -0.0532  0.0835 -0.2319
22956W        W39140   6.650   5.321   4.170  0.3050 -0.0133  0.1195
22957W        W39141   8.257   5.835   0.146 -0.3502 -0.0107 -0.0315
22958W        W39142   6.451  13.461  13.377 -0.0520 -0.0318 -0.2239
22959W        W39143  15.335  17.819   3.405  0.2303 -0.1122 -0.3635
22960W        W39144  14.783  17.047   0.135  0.0222 -0.0598 -0.1051
22961W        W39145   2.031   7.353  13.287 -0.0890  0.1961 -0.3786
22962W        W39146   3.019   9.378  13.132 -0.1040 -0.1653 -0.5001
22963W        W39147   5.773  10.916  13.782 -0.1828 -0.2564 -0.3056
22964W        W39148   4.703  11.440  12.149  0.2001 -0.1447 -0.0975
22965W        W39149   2.153   5.036  10.936 -0.2934  0.0650  0.0584
22966W        W39150   0.726  14.190   5.301  0.1381  0.1441 -0.1469
22967W        W39151   6.187   8.080  14.114  0.1428 -0.0960 -0.0961
22968W        W39152  10.906  14.237  14.461  0.2223 -0.0315  0.0742
22969W        W39153  11.525  10.318   1.367  0.2089 -0.1216  0.3543
22970W        W39154   1.155  17.744   0.011  0.1983 -0.0313  0.1507
22971W        W39155   7.018   3.980   3.079  0.0541  0.2397  0.3831
22972W        W39156   2.561   1.242  15.951 -0.2416 -0.0496  0.1083
22973W        W39157   4.007   1.224   5.556  0.2142 -0.0763 -0.3142
22974W        W39158  16.538  10.398  13.269  0.0037 -0.2182  0.1009
22975W        W39159  15.582   8.597   4.075  0.0627 -0.2596  0.2347
22976W        W39160   0.176   2.586   4.331 -0.2560  0.0932 -0.0989
22977W        W39161   4.908   1.822   0.070 -0.0106  0.2043 -0.3348
22978W        W39162   3.404   6.037   0.986  0.0008 -0.1606 -0.0463
22979W        W39163   2.765  16.419  10.653 -0.0983 -0.0017  0.3967
22980W        W39164   0.528  10.603  12.610 -0.2410  0.1053  0.2302
22981W        W39165  12.458   8.245  11.939 -0.1976 -0.1311 -0.2189
22982W        W39166   3.494   6.258  11.960  0.1755  0.0196  0.1302
22983W        W39167  14.321  16.850  11.815  0.3025 -0.0761  0.2786
22984W        W39168  14.071   2.729  15.338 -0.1455  0.1825  0.1340
22985W        W39169  17.429  12.758  13.736  0.3749  0.0726 -0.0257
22986W        W39170   2.668  15.964   1.784  0.2462 -0.0582 -0.0939
22987W        W39171  12.019   8.088  15.865  0.0398 -0.0866 -0.3066
22988W        W39172   4.470   9.043  12.170 -0.1333 -0.0660 -0.0711
22989W        W39173  14.211  10.858  15.988 -0.0127 -0.4014  0.1325
22990W        W39174   5.906  16.861  16.936  0.2498 -0.0052 -0.0986
22991W        W39175   4.337   8.697   3.692  0.1765  0.2747  0.0444
22992W        W39176   8.696   4.017  12.007  0.2140 -0.2084 -0.1062
22993W        W39177   5.752   2.819   4.496  0.1936  0.1534  0.1478
22994W        W39178  12.412   1.927   4.549 -0.1200  0.0857  0.1330
22995W        W39179  10.203   5.805   4.864 -0.2038  0.2511  0.2869
22996W        W39180   3.009  11.717   2.329 -0.0497 -0.3196 -0.3621
22997W        W39181   3.217   0.536  12.883 -0.3153  0.2027 -0.2837
22998W        W39182   6.822   0.781  12.799 -0.2366  0.0697  0.0847
22999W        W39183   3.751   2.154   1.785  0.3299  0.0059 -0.1739
23000W        W39184   1.616   4.551   6.052  0.3509  0.0463 -0.2529
23001W        W39185   2.438  17.115  15.333 -0.0673  0.1702 -0.5911
23002W        W39186   1.185   6.845  16.230 -0.1386  0.3135  0.0237
23003W        W39187  14.198   6.785   6.606 -0.0495  0.2859 -0.1318
23004W        W39188  12.285   9.724  15.120  0.0784  0.1017 -0.0836
23005W        W39189  13.399   3.829   1.161 -0.2326 -0.0606  0.0724
23006W        W39190   6.908   5.816   3.162 -0.1107  0.0487  0.1523
23007W        W39191   7.837   4.348  13.073 -0.2692 -0.1987  0.0751
23008W        W39192   4.522  11.248   2.722  0.3191 -0.0931 -0.1179
23009W        W39193   6.109  14.507  15.504  0.2060 -0.0737 -0.1468
23010W        W39194  13.027  13.505   1.476  0.0257  0.1140  0.0122
23011W        W39195  11.014   0.514   2.982 -0.0302  0.1003 -0.2889
23012W        W39196  15.551   2.714   0.784 -0.3762 -0.2292 -0.0455
23013W        W39197  15.519  12.449   5.743 -0.0751 -0.0511  0.0013
23014W        W39198  10.286  11.669   2.829  0.3090  0.1514 -0.1040
23015W        W39199   9.050   2.879  12.522  0.0912 -0.0276 -0.1252
23016W        W39200   6.496  10.910  14.758 -0.1688  0.1341  0.0723
23017W        W39201   6.618   8.296  14.445  0.1453  0.1224 -0.0927
23018W        W39202   4.777   8.916   3.020 -0.0966  0.1922 -0.0117
23019W        W39203   7.149   2.824   4.572  0.1961  0.0071  0.1223
23020W        W39204   3.949  12.633  12.369 -0.0041  0.0135 -0.2463
23021W        W39205  17.187   9.598   0.824 -0.2135 -0.0749 -0.2627
23022W        W39206   5.855   2.153   2.253  0.3855  0.4148 -0.0492
23023W        W39207  14.705  11.754   3.162  0.2939  0.0604  0.1385
23024W        W39208  15.926   4.428  14.198  0.5059 -0.0687 -0.0480
23025W        W39209  17.505   1.844  11.716 -0.0431 -0.1290 -0.1201
23026W        W39210   8.936  14.169   3.754  0.1310 -0.1631  0.0662
23027W        W39211   8.386   8.840  16.403  0.1078  0.0114 -0.0575
23028W        W39212  13.368  16.427   4.120 -0.2598 -0.1384  0.1730
23029W        W39213   2.721  11.313   3.072  0.0002 -0.1298 -0.0163
23030W        W39214   9.315   8.431   3.428 -0.1415  0.5469  0.3336
23031W        W39215  14.318  10.839  11.730  0.0906 -0.1474  0.1729
23032W        W39216  14.055   3.761   4.367 -0.2361 -0.1867  0.1436
23033W        W39217  12.801  12.184  16.357  0.2787 -0.0485 -0.0503
23034W        W39218   1.075   5.845   0.606  0.2961 -0.0461 -0.1903
23035W        W39219   3.070  10.902   1.699  0.1996  0.1839  0.1247
23036W        W39220   8.984   8.288   4.643  0.0749 -0.4171 -0.0800
23037W        W39221  16.616   8.134  12.269  0.2043  0.4920 -0.0948
23038W        W39222  16.154   6.170  11.857  0.1773  0.1330  0.1097
23039W        W39223  10.632  14.490  16.312  0.2699 -0.1369  0.4318
23040W        W39224   8.456  16.199   4.668 -0.2575  0.1603  0.1231
23041W        W39225   9.498  14.924   3.299 -0.0566 -0.2259 -0.0275
23042W        W39226  13.383   5.934   1.722  0.0641 -0.0448  0.0293
23043W        W39227  16.563   6.959  13.967  0.0364 -0.1193  0.0887
23044W        W39228   6.636   9.582  14.659 -0.2741  0.1346 -0.2138
23045W        W39229   5.107   4.645   6.766  0.0256  0.3550  0.0070
23046W        W39230   4.502   5.686   1.892  0.0360  0.1004 -0.0031
23047W        W39231   1.338   3.404  15.473  0.2319 -0.0988 -0.0563
23048W        W39232   6.678   0.038  15.869 -0.2223 -0.0496  0.0005
23049W        W39233   4.942  13.524   1.482  0.1420 -0.4090 -0.1665
23050W        W39234   1.249   9.718  14.727  0.0970  0.1635 -0.0659
23051W        W39235   2.352  15.603  16.241  0.1893  0.3574 -0.0859
23052W        W39236  14.582  12.912   1.173  0.7085  0.2089 -0.0885
23053W        W39237  10.373   4.468   5.188  0.0973  0.3672 -0.0576
23054W        W39238   6.276   3.263  12.521 -0.2594  0.0415 -0.0937
23055W        W39239   8.729   8.591   4.971  0.2293 -0.0454 -0.1487
23056W        W39240   3.591   7.133   2.733 -0.0681 -0.3874 -0.1575
23057W        W39241  17.421  14.164  15.809 -0.0561  0.0708  0.0121
23058W        W39242   0.725   1.589   2.218  0.1446  0.0605  0.0301
23059W        W39243   5.048   8.504   4.855 -0.2429 -0.0920 -0.0578
23060W        W39244   5.764  11.031   0.150  0.1696  0.0922  0.3173
23061W        W39245   4.902   8.092   2.091  0.2574  0.2743  0.3181
23062W        W39246  13.444  13.977  13.237  0.3224 -0.1337 -0.3771
23063W        W39247  13.191   5.035  13.181 -0.1770  0.2238 -0.1729
23064W        W39248   8.325   8.793   4.879  0.0769 -0.1450  0.0752
23065W        W39249  13.649  15.253  13.749 -0.2157 -0.0469 -0.1121
23066W        W39250  12.693   9.217   1.066  0.0996  0.4483 -0.0596
23067W        W39251  16.683   0.582   2.063  0.0205 -0.3170  0.0977
23068W        W39252   6.006  13.953   5.094  0.0390 -0.2944  0.1607
23069W        W39253   9.236  10.215   1.173 -0.0047 -0.4002 -0.0125
23070W        W39254  16.558  16.510   4.904 -0.0061 -0.2948  0.2954
23071W        W39255   5.815   8.370  14.277 -0.0785 -0.0016 -0.1615
23072W        W39256   3.015   9.923  11.968  0.2118  0.2291 -0.1752
23073W        W39257  13.591   5.134  13.597 -0.0676 -0.0392 -0.0330
23074W        W39258  11.682  17.355   6.187 -0.1321  0.2063 -0.2975
23075W        W39259  14.239   3.170  13.246 -0.1747 -0.0469  0.4577
23076W        W39260   8.179   6.464  15.018  0.0198  0.0270  0.0672
23077W        W39261   4.865   2.679  13.089 -0.2132  0.0508  0.1763
23078W        W39262  17.047   0.415   0.237  0.1514  0.0954 -0.1789
23079W        W39263  17.343   8.115   3.013 -0.0992 -0.1859 -0.0998
23080W        W39264   7.751  16.152  12.934 -0.0609  0.1946  0.1212
23081W        W39265  12.124   8.922   0.174  0.2050 -0.1141  0.0929
23082W        W39266   7.502   5.067  11.934  0.1708 -0.3136 -0.2806
23083W        W39267   8.135   8.919  12.352  0.3003  0.2159 -0.1206
23084W        W39268   9.273   1.340   1.421 -0.0107 -0.1508  0.2021
23085W        W39269   1.105   9.222  15.717 -0.2201 -0.1155 -0.0270
23086W        W39270  16.878   8.624  13.658 -0.1713 -0.1563  0.2011
23087W        W39271   2.383   6.669   3.274 -0.0323  0.0788 -0.2124
23088W        W39272  10.406  11.666  13.805  0.1496  0.0812  0.0588
23089W        W39273   5.307   2.608  12.867 -0.0957  0.0795  0.2996
23090W        W39274   8.002   5.474  14.948  0.0227 -0.0078  0.0422
23091W        W39275   6.087   8.948   2.819  0.2702  0.0639 -0.4178
23092W        W39276   6.923   1.003   3.604  0.0319  0.1402  0.3220
23093W        W39277   7.003  17.533   2.627 -0.1254  0.2048 -0.2814
23094W        W39278   0.385  17.268   3.223  0.1727 -0.1804  0.0626
23095W        W39279   9.872  13.257   5.465 -0.4921 -0.1640  0.1162
23096W        W39280  11.522  10.966  12.195 -0.1810  0.2348  0.0621
23097W        W39281  16.521  15.116   4.722  0.1965 -0.3136 -0.2182
23098W        W39282   1.804   5.446   5.608  0.1110 -0.0084 -0.2125
23099W        W39283  13.337  15.121  16.343  0.0401 -0.1934  0.1865
23100W        W39284  15.915   4.797  11.911 -0.1540 -0.1344 -0.0486
23101W        W39285   1.775  10.001   2.513 -0.0183 -0.0780  0.2502
23102W        W39286   4.290  16.203   5.640  0.1186  0.1349  0.0237
23103W        W39287   0.046   0.760   1.055 -0.1848  0.0682 -0.0967
23104W        W39288   9.005   7.422  13.818  0.0425 -0.1365 -0.4477
23105W        W39289  11.290  11.716  15.087 -0.0376 -0.1159  0.1909
23106W        W39290  14.037  11.099   1.029 -0.2092 -0.1823 -0.0325
23107W        W39291   5.220  15.716  14.865 -0.1093  0.3069  0.0119
23108W        W39292   9.080   3.505   5.844  0.0990 -0.0320 -0.1330
23109W        W39293   2.743  12.729  15.536  0.2551 -0.0716  0.1682
23110W        W39294  16.307   4.415  16.625 -0.1417  0.0019  0.1786
23111W        W39295   6.537  16.302  16.633  0.4750  0.4108  0.1662
23112W        W39296   3.195   0.586  15.801 -0.1671 -0.1126 -0.4457
23113W        W39297   6.560  15.037  16.697 -0.1445 -0.0574  0.0529
23114W        W39298   7.781   5.863   2.578  0.2387 -0.0169 -0.1897
23115W        W39299   4.469  13.090   0.587  0.1195  0.2068 -0.0374
23116W        W39300   9.772   7.907   0.923  0.0264 -0.2306 -0.2925
23117W        W39301  14.263   0.800  13.528 -0.0387 -0.0025  0.0590
23118W        W39302   3.461  17.269  13.322 -0.1382 -0.2446  0.0469
23119W        W39303  17.855  11.155   2.890 -0.2256 -0.1900 -0.0123
23120W        W39304  14.926   7.235   3.313 -0.0530 -0.2808 -0.3183
23121W        W39305   9.343   1.497   4.715  0.1957  0.3149 -0.0571
23122W        W39306   0.202   1.406  16.585 -0.0654  0.3684  0.0323
23123W        W39307  10.890  15.539   4.257  0.4576  0.2091  0.0156
23124W        W39308  16.356  16.269  14.901 -0.5412  0.0659 -0.1318
23125W        W39309   8.413  12.852   3.345 -0.2138  0.2243 -0.0097
23126W        W39310  16.754  12.970   2.042 -0.0417  0.1590  0.3220
23127W        W39311  17.189  16.861  15.051  0.0955 -0.2664  0.2586
23128W        W39312  15.564  15.679   2.993  0.0692  0.0967  0.0886
23129W        W39313   0.189  15.239  14.464  0.2153  0.0902  0.0771
23130W        W39314  17.451   5.011   5.487  0.2003  0.1029 -0.0746
23131W        W39315  11.585  13.742  12.706 -0.1120  0.2636 -0.1082
23132W        W39316  10.497  13.999  12.569  0.1706  0.0380 -0.1084
23133W        W39317   9.937  17.093   4.637 -0.1107 -0.0563  0.3201
23134W        W39318  12.423   5.574  14.550 -0.0180  0.5590  0.1658
23135W        W39319  11.521   7.899   5.315 -0.0860 -0.3254  0.0479
23136W        W39320  15.887  15.543   5.476 -0.1302 -0.1274  0.0321
23137W        W39321   7.850   7.255  16.316 -0.3352  0.0011 -0.0188
23138W        W39322   9.305   1.204   3.331 -0.0488 -0.2109 -0.1302
23139W        W39323   1.883   0.826   5.062 -0.5647 -0.0327  0.0566
23140W        W39324   8.071  13.074   1.411 -0.1870  0.5052  0.1896
23141W        W39325   9.754   2.125   1.262  0.0074 -0.0303  0.2159
23142W        W39326  14.478  15.820  16.790 -0.1639 -0.0820  0.0093
23143W        W39327  15.001  13.523  14.213  0.0742 -0.3307 -0.3706
23144W        W39328  16.310   6.541   6.419  0.1093  0.0461  0.0338
23145W        W39329  17.216   7.626   1.361 -0.1582 -0.2680 -0.3383
23146W        W39330  13.500   8.580  13.112 -0.3825  0.0823 -0.4592
23147W        W39331   5.124  13.782   5.533 -0.0016 -0.2601  0.3396
23148W        W39332   4.365  11.774   5.700 -0.0520 -0.3786  0.1831
23149W        W39333  11.343   8.751  14.682  0.1673 -0.1478 -0.0028
23150W        W39334   1.889  11.519   5.231 -0.1638  0.2270 -0.0012
23151W        W39335   6.882   5.431   4.597 -0.0466 -0.1257 -0.0838
23152W        W39336  15.743  16.974   1.068 -0.2135 -0.0091  0.1636
23153W        W39337   5.811   3.283   4.363 -0.0161  0.0696  0.3580
23154W        W39338  15.489   4.969  15.770  0.1973 -0.1972 -0.2331
23155W        W39339  14.579   2.496  16.060 -0.1277 -0.4479  0.5246
23156W        W39340   1.384  14.916   1.311  0.2262  0.1270 -0.1829
23157W        W39341  15.398   0.742   0.404  0.0233 -0.1811 -0.0451
23158W        W39342   6.722   4.092  13.018 -0.0109  0.1738 -0.0777
23159W        W39343   4.861  17.315   1.990  0.1539  0.0571  0.0958
23160W        W39344   0.873  10.067  16.935 -0.1979  0.4642 -0.0943
23161W        W39345   3.445   5.182   6.321  0.2347 -0.0908 -0.3178
23162W        W39346   7.596   5.793  14.100 -0.2878  0.3276 -0.1024
23163W        W39347   7.381   1.206  12.801 -0.1948 -0.1368  0.1094
23164W        W39348  11.516   0.855  16.304  0.0895  0.0306  0.0489
23165W        W39349   5.568   5.196   0.558 -0.3800  0.2209 -0.1668
23166W        W39350   3.796  16.965   0.895  0.0482  0.0468  0.1742
23167W        W39351   0.048   9.508  13.983 -0.0543 -0.2726  0.1210
23168W        W39352   4.452   4.668   3.093 -0.0280 -0.1379  0.4010
23169W        W39353   0.507  14.408   3.439 -0.0557 -0.2441 -0.2336
23170W        W39354  16.065  11.702  13.270  0.2287  0.0060 -0.3832
23171W        W39355  10.559  10.698  14.161 -0.1168 -0.2025  0.0309
23172W        W39356   9.522  12.066  14.847  0.1357 -0.3982 -0.0308
23173W        W39357   4.070  12.307   0.245 -0.0193  0.0513  0.0757
23174W        W39358   2.552  13.007   0.799 -0.1534 -0.1284 -0.1411
23175W        W39359  17.771   6.691  16.758  0.1019 -0.0345  0.2223
23176W        W39360  12.259  10.396  14.393  0.0221 -0.0666 -0.1373
23177W        W39361  16.211  12.319   2.820  0.0742  0.3542 -0.1629
23178W        W39362   4.770   8.211  15.275  0.2085  0.1188  0.2766
23179W        W39363   8.341  13.116  11.062  0.1218 -0.0396  0.0415
23180W        W39364   8.879  13.522  13.439  0.1723  0.0631  0.0877
23181W        W39365  16.684  12.930   2.564  0.1866 -0.0290 -0.2378
23182W        W39366   6.213   6.074   2.050  0.4299 -0.0115  0.1499
23183W        W39367  17.858  12.188   3.466 -0.3910 -0.4300 -0.1102
23184W        W39368   3.878  14.190  11.699 -0.1407 -0.1750 -0.1296
23185W        W39369   0.915   9.620  12.559  0.2039  0.1579  0.1564
23186W        W39370  14.148   2.362  15.734  0.0497 -0.1535 -0.2256
23187W        W39371  14.764  13.081  14.285 -0.1832 -0.3590 -0.3384
23188W        W39372  11.809  17.042  13.436 -0.1056 -0.2775  0.0911
23189W        W39373  16.636  11.725   4.670 -0.1309 -0.0424  0.2621
23190W        W39374   2.568  16.665  15.491 -0.4446 -0.0800 -0.1051
23191W        W39375  15.670  10.979   0.012 -0.4484  0.0249  0.2490
23192W        W39376   8.659  14.013  11.105  0.3126 -0.1416  0.0731
23193W        W39377   3.017  15.835  13.407  0.0345  0.0344  0.0575
23194W        W39378   9.623   4.671   2.252 -0.1589 -0.4283 -0.1432
23195W        W39379  13.265  15.221   6.245 -0.0285  0.0090 -0.4081
23196W        W39380   6.163  16.411   3.023  0.3908  0.0116 -0.0764
23197W        W39381   5.892   8.863   1.371  0.0592  0.0746 -0.1611
23198W        W39382  11.614   5.646  14.233 -0.2224  0.2864  0.1260
23199W        W39383   6.718   0.411  13.936  0.1561  0.1097  0.1273
23200W        W39384   1.710   2.682  14.305 -0.0382  0.1968  0.1650
23201W        W39385   5.448  13.000  15.781  0.3214 -0.2808  0.0977
23202W        W39386  10.107   7.572   5.068  0.5084  0.1855 -0.0423
23203W        W39387   9.269  14.624  12.792 -0.0943 -0.2970  0.2998
23204W        W39388   1.778   0.028  13.993  0.0684  0.1585  0.1726
23205W        W39389   8.656   1.161   3.919  0.0654 -0.2760 -0.1152
23206W        W39390  15.434   9.770   3.894 -0.0685  0.2345 -0.4078
23207W        W39391  16.887   8.248   2.009  0.1525  0.2682  0.0663
23208W        W39392   3.530   7.009  12.293  0.0982 -0.2565 -0.4571
23209W        W39393  16.957   1.390  13.949 -0.4373  0.0317 -0.1666
23210W        W39394  15.827   5.742  14.079 -0.1601  0.0686 -0.0352
23211W        W39395  12.984  11.257  16.124  0.1059 -0.1138  0.1416
23212W        W39396  11.570   5.076  11.757  0.2428  0.0606  0.0504
23213W        W39397   3.413   3.717   4.649 -0.2549 -0.1990  0.3728
23214W        W39398   2.539   7.308   3.775 -0.1093 -0.1116  0.4059
23215W        W39399  16.629  12.890  14.409  0.1230 -0.1058 -0.3489
23216W        W39400  12.274   8.000  13.658  0.0460 -0.2550 -0.1896
23217W        W39401  10.854   2.500   2.402  0.0492 -0.0433  0.1254
23218W        W39402   9.129  16.175  12.612  0.0056 -0.3058  0.1172
23219W        W39403  11.548  12.047  13.212  0.0890  0.0838 -0.1175
23220W        W39404   0.187  13.173   5.349 -0.3006  0.1269 -0.1520
23221W        W39405  12.334  13.174   4.425  0.3069 -0.2190 -0.1763
23222W        W39406   9.847  10.563   0.387  0.4430  0.0668  0.3605
23223W        W39407   2.857  16.183   5.222  0.0088 -0.0186 -0.2320
23224W        W39408   4.007  13.055  15.234  0.2098 -0.3999 -0.3053
23225W        W39409   9.860   1.965   3.679  0.1264 -0.0567  0.0471
23226W        W39410  12.394   1.436   3.444  0.2936  0.0198  0.0930
23227W        W39411   1.390   3.891  16.683 -0.0505  0.0727  0.0077
23228W        W39412   0.383   5.454  15.096  0.1512 -0.0078 -0.1807
23229W        W39413   3.331  16.589   3.259  0.0722  0.0187  0.1819
23230W        W39414   3.173   5.186  14.852  0.1865 -0.2849  0.0090
23231W        W39415   3.798  15.445  12.208  0.0055  0.0045  0.6210
23232W        W39416   8.300  17.013   2.264 -0.3356  0.2574 -0.0020
23233W        W39417  10.726   5.317  13.496 -0.2555  0.3011  0.1477
23234W        W39418  16.804   2.246   0.711  0.2722 -0.1202  0.0798
23235W        W39419  16.712   5.952   2.403  0.0509 -0.3250 -0.1882
23236W        W39420   9.648  12.331   0.619  0.0946 -0.3074  0.2428
23237W        W39421   7.339  14.077  16.892  0.1454  0.0679 -0.0933
23238W        W39422  16.656   2.084   3.643 -0.0629 -0.1059 -0.0618
23239W        W39423  17.130   0.722   3.302  0.1172  0.1106  0.1521
23240W        W39424  14.376  17.000  14.464 -0.0939  0.0516 -0.0977
23241W        W39425  14.795   5.625   6.088 -0.1110  0.1548  0.0923
23242W        W39426   4.667   7.977  12.605  0.0865  0.0560  0.1631
23243W        W39427   5.429   6.266  16.178  0.1959  0.0950  0.1555
23244W        W39428   8.757  17.303  13.442 -0.1260  0.0185 -0.0673
23245W        W39429   5.865   5.902  14.284  0.3710 -0.0201 -0.3125
23246W        W39430   5.403   7.961   4.095 -0.3247  0.0150  0.1671
23247W        W39431  17.610  15.965   2.136  0.0569  0.2306 -0.0485
23248W        W39432   3.815   7.071  16.527  0.1857  0.2068 -0.0259
23249W        W39433  11.036   0.277   1.233 -0.1596  0.2013  0.3499
23250W        W39434   0.029   9.968  14.860  0.0859  0.2951  0.0701
23251W        W39435  15.072   5.367  12.966  0.2310  0.1783  0.0321
23252W        W39436   7.782  15.031   4.294  0.0110 -0.2169 -0.1681
23253W        W39437   7.152   2.917  16.939 -0.3330 -0.4124  0.0947
23254W        W39438  15.967  16.531  16.720  0.1431 -0.2449  0.0242
23255W        W39439  12.840   6.531  12.319  0.2127  0.1236  0.0528
23256W        W39440  17.053   0.310   1.304 -0.2621 -0.2753 -0.2384
23257W        W39441   9.894  14.936   2.435  0.2041  0.0855  0.1038
23258W        W39442  13.778   8.163   1.124 -0.0430 -0.0896  0.1731
23259W        W39443  15.759   6.486  12.888 -0.0659  0.4221  0.0838
23260W        W39444  12.456  13.266  11.826  0.2172 -0.1825 -0.2698
23261W        W39445   7.317   3.682   2.133  0.0913  0.0523 -0.0756
23262W        W39446   9.496   6.103   2.100  0.2701 -0.2296  0.2739
23263W        W39447  14.236   9.495   4.620  0.1418  0.0504  0.0932
23264W        W39448   1.625   3.231  14.474  0.1067  0.0642  0.3665
23265W        W39449   6.609   4.664  14.223 -0.0718 -0.0769  0.0668
23266W        W39450  15.370  16.737  15.503 -0.0511  0.2542  0.1054
23267W        W39451   2.077   3.885   4.068 -0.1310  0.1128  0.2767
23268W        W39452   9.434  14.407   3.998 -0.0904 -0.2990  0.0357
23269W        W39453   9.597  14.989  13.041  0.1401 -0.1202 -0.1050
23270W        W39454  11.153  10.394  15.435 -0.0689  0.2186  0.2734
23271W        W39455   7.558   3.877  14.566 -0.3110  0.1583  0.1992
23272W        W39456   3.756  12.846   1.350  0.1888 -0.0520 -0.2010
23273W        W39457   5.090   5.624  13.300  0.4315 -0.1477  0.1320
23274W        W39458  14.104  12.325   2.912 -0.0904 -0.2186 -0.0846
23275W        W39459  12.169   3.791  11.902  0.0874  0.0112 -0.0802
23276W        W39460  17.780   7.402   3.521 -0.1669  0.2096  0.2053
23277W        W39461   0.437  16.721  16.845  0.0519 -0.1383  0.2034
23278W        W39462  13.085  12.741   4.463  0.2663 -0.0423 -0.1033
23279W        W39463   6.629   2.437  12.356  0.1075  0.2301  0.2407
23280W        W39464   0.575  10.312  14.929  0.3484  0.0283 -0.2586
23281W        W39465   5.909   8.516   1.853  0.0343 -0.3706  0.1569
23282W        W39466   0.300  10.427  16.651 -0.2060 -0.1336  0.1652
23283W        W39467  17.550   8.125  15.177  0.3451 -0.0055  0.1742
23284W        W39468   1.002  14.816  12.470  0.1817  0.1344  0.0711
23285W        W39469   2.985  13.270   5.720  0.0927  0.1398 -0.2371
23286W        W39470   5.764  16.054   3.243 -0.0978 -0.2490  0.2127
23287W        W39471   7.010   9.911   0.896 -0.0012  0.2335  0.3439
23288W        W39472   8.201  14.794   4.091  0.2777 -0.0110 -0.0612
23289W        W39473   7.189  14.961  12.695 -0.1436 -0.1270  0.0921
23290W        W39474  13.684   4.627  11.377  0.1792  0.0832  0.2279
23291W        W39475   4.840   5.561  11.657 -0.1929 -0.0330  0.3282
23292W        W39476  17.390   0.324   6.059  0.0265 -0.2552 -0.2734
23293W        W39477   5.993   8.857   0.019 -0.0204 -0.1376 -0.0330
23294W        W39478   2.944  13.542  15.238 -0.0993 -0.0457  0.2054
23295W        W39479   2.273   4.779   0.407  0.0178  0.0849 -0.0641
23296W        W39480   4.037  10.697  12.510 -0.0224 -0.0695 -0.0103
23297W        W39481   6.292   1.509   3.662 -0.2400 -0.2194  0.0108
23298W        W39482  14.963  10.999   6.246 -0.0778  0.3346  0.1645
23299W        W39483   4.149  11.712   4.482 -0.1093 -0.0215 -0.0095
23300W        W39484   4.469  17.029  12.018 -0.0219  0.1892  0.0992
23301W        W39485   2.458   8.421   0.457  0.3444 -0.3298  0.0890
23302W        W39486   1.728   0.191  11.210  0.1174  0.3593  0.1918
23303W        W39487  16.643   0.523   1.545 -0.1490  0.3160 -0.1083
23304W        W39488   7.302  14.454   2.681 -0.2072  0.1302  0.0404
23305W        W39489   9.641  13.324   0.886 -0.0316  0.1448 -0.2568
23306W        W39490   9.336   1.853   3.600 -0.3097  0.1043  0.1809
23307W        W39491   9.291  12.134  15.737  0.1042 -0.0133  0.0470
23308W        W39492  14.795   4.338  12.883  0.0494  0.1334  0.0015
23309W        W39493   1.963   9.365  15.735  0.0891 -0.3919  0.1564
23310W        W39494   2.322   8.630  12.167  0.1315  0.1374  0.0501
23311W        W39495  11.858   0.597  15.972  0.0401  0.3023 -0.2466
23312W        W39496  15.016  11.331  14.676  0.1656 -0.1839  0.0697
23313W        W39497  17.602  11.789   4.001 -0.0423 -0.1893 -0.0820
23314W        W39498   6.448  14.707   2.799 -0.2745 -0.3215  0.0019
23315W        W39499  14.060   0.309   5.327 -0.4073 -0.0533 -0.1210
23316W        W39500   6.461  13.158  14.547 -0.0138  0.0484 -0.0752
23317W        W39501   4.338   3.945  16.401 -0.0489  0.1621  0.0133
23318W        W39502  17.336  16.166   4.087  0.0148 -0.1215  0.1791
23319W        W39503  17.538  10.542  13.530  0.3554 -0.2074  0.0652
23320W        W39504   5.324   0.093   3.236 -0.1493  0.1965  0.2088
23321W        W39505   6.263  11.030   2.111  0.2023  0.1875 -0.1848
23322W        W39506  16.892  13.715  16.027  0.3817 -0.0084 -0.1100
23323W        W39507  12.280  17.705   1.641 -0.0179  0.1546 -0.0450
23324W        W39508  13.245  10.157  14.467 -0.1235  0.0215  0.0833
23325W        W39509  16.327   2.645  14.191  0.1335 -0.0392 -0.0336
23326W        W39510   6.896  16.454   5.643  0.1179  0.0412 -0.1306
23327W        W39511  15.591   9.139  15.557  0.2821 -0.2911 -0.0991
23328W        W39512  17.338   5.912  15.499  0.0470 -0.0555 -0.1014
23329W        W39513  11.653  10.405  16.307  0.0607  0.0545 -0.3308
23330W        W39514   2.009   1.918   4.569 -0.1503  0.1179 -0.1358
23331W        W39515  11.861  16.618   5.620 -0.0918 -0.2043  0.2130
23332W        W39516  12.417   1.222  14.451  0.0276 -0.0745 -0.0675
23333W        W39517   7.128  12.601  11.320  0.0359  0.0688 -0.0519
23334W        W39518   2.737  10.106   6.275 -0.2980 -0.1315  0.1599
23335W        W39519  13.601  12.828   4.544  0.0175  0.0711 -0.0731
23336W        W39520  12.499   1.828   4.027 -0.0349  0.2330  0.0722
23337W        W39521  12.684   4.058   3.736 -0.2894 -0.3557 -0.1046
23338W        W39522  12.167   2.103  14.081  0.4219  0.2016 -0.0213
23339W        W39523   4.837   9.674   4.437  0.1243 -0.2753 -0.0229
23340W        W39524   4.957  10.455  16.271  0.3398 -0.1138 -0.0694
23341W        W39525   5.930  10.461   2.192 -0.1846 -0.2735 -0.1831
23342W        W39526  14.712  11.891  14.848 -0.1782 -0.1300 -0.0924
23343W        W39527   4.443  11.563  13.210 -0.0626  0.1246 -0.0366
23344W        W39528  14.062  15.064   1.337 -0.1023  0.4063  0.2284
23345W        W39529  10.431   1.042   4.041 -0.3076 -0.1453  0.2309
23346W        W39530   7.367  12.924   3.664  0.2877  0.0738 -0.1320
23347W        W39531   8.435   6.817  15.805 -0.2553 -0.2997  0.1865
23348W        W39532   6.645  14.376  11.840 -0.0228 -0.1457 -0.2948
23349W        W39533   2.598  13.989  15.392  0.1470 -0.0602  0.0486
23350W        W39534   5.161   9.391  14.828  0.0894 -0.0955  0.0518
23351W        W39535  12.315  12.171  16.217 -0.0893  0.1024 -0.4247
23352W        W39536  13.307   4.273   0.586 -0.1727 -0.0268 -0.3146
23353W        W39537  13.958  10.192   3.253  0.1034 -0.0372 -0.0825
23354W        W39538  17.621  16.019  16.760 -0.1255 -0.1376  0.0271
23355W        W39539   1.893  11.970  15.912 -0.0519 -0.4697  0.0374
23356W        W39540  16.249  15.536  15.297 -0.0448  0.2875  0.0239
23357W        W39541   0.334   8.127  12.665 -0.1245  0.0761  0.1406
23358W        W39542  14.518  16.524   2.070  0.2199  0.0729  0.1183
23359W        W39543   3.226  11.469  13.399 -0.0271 -0.3083 -0.0530
23360W        W39544   9.766  13.670   0.568  0.1390  0.0513 -0.0525
23361W        W39545   1.236  17.360  11.764  0.0153 -0.1013 -0.1474
23362W        W39546   0.854   1.712   1.052  0.0681  0.0675  0.0949
23363W        W39547  13.470  12.057   1.698  0.1062  0.0951  0.1180
23364W        W39548  16.361   6.646   5.838  0.0480 -0.4009 -0.2515
23365W        W39549   9.360   8.229   1.796 -0.2649 -0.0341 -0.0278
23366W        W39550  13.367  13.538   6.068  0.0138  0.2489 -0.3034
23367W        W39551   6.296   3.597  15.538 -0.1452  0.2504  0.4052
23368W        W39552  15.139   9.105   2.332 -0.0802 -0.1703  0.0135
23369W        W39553   0.675   2.296  12.899 -0.1183 -0.1280  0.1110
23370W        W39554   5.058   2.788  16.585  0.2830  0.3360 -0.2133
23371W        W39555   1.087  12.673  14.893  0.2131  0.1980 -0.0222
23372W        W39556  12.968   6.824   1.077  0.2790  0.0589 -0.0209
23373W        W39557  11.968  10.904  13.043 -0.0394 -0.1349 -0.1221
23374W        W39558   1.665   3.491   5.974  0.3475  0.2204  0.2592
23375W        W39559  14.575  14.021  12.256 -0.1369 -0.1868  0.3711
23376W        W39560   2.778   0.860   5.433 -0.0481  0.2070 -0.0514
23377W        W39561  12.757   8.374  14.972  0.0706 -0.0734 -0.1052
23378W        W39562  15.282   0.578   5.625 -0.2761 -0.0801 -0.4535
23379W        W39563  16.641  14.022  16.923  0.2905 -0.0454  0.0813
23380W        W39564   2.748   6.692   2.433  0.0270  0.1324 -0.4184
23381W        W39565  10.641   6.167  16.214  0.2447 -0.0664  0.0738
23382W        W39566   9.679  11.307  15.618 -0.1541 -0.1953 -0.1349
23383W        W39567  10.513  12.509  16.097  0.0745  0.0841  0.0050
23384W        W39568  10.247   8.344   2.419  0.0779  0.0764  0.1338
23385W        W39569  16.493  11.052   3.108 -0.0210 -0.2541  0.1202
23386W        W39570   2.496   2.073  14.029  0.0755  0.0455  0.3844
23387W        W39571   6.531   9.349  16.012  0.2891  0.3665  0.2642
23388W        W39572   1.054   9.897  15.653 -0.1473  0.0290  0.2074
23389W        W39573   9.353  11.069   3.806 -0.2424  0.0415  0.4013
23390W        W39574  10.953   3.568   2.034  0.1551 -0.1070 -0.0817
23391W        W39575  13.281  17.074  13.120  0.1958  0.1680  0.0909
23392W        W39576   2.734   4.980  14.722  0.1720  0.0972  0.2325
23393W        W39577   8.732  16.391  15.555 -0.2902  0.0900  0.0113
23394W        W39578  17.803   2.009   5.617  0.2551 -0.1976  0.3088
23395W        W39579  15.476  15.083  13.225  0.0358  0.1186  0.3237
23396W        W39580  14.693   2.824  13.231  0.1693 -0.0578 -0.1590
23397W        W39581   7.322   1.649  14.337 -0.0961 -0.1219 -0.0415
23398W        W39582   6.954  12.306   0.723  0.1850  0.0419  0.3245
23399W        W39583  13.298   5.919  14.937 -0.0027 -0.3326  0.2738
23400W        W39584  11.781  13.148  13.545 -0.3327 -0.0399  0.3149
23401W        W39585  14.019  12.066   0.811 -0.1399  0.1881 -0.0935
23402W        W39586  12.369  15.878  14.732  0.1963  0.0408 -0.0230
23403W        W39587  14.168   8.913   0.808  0.0933 -0.1053  0.1603
23404W        W39588   2.460  14.541  12.110 -0.3505 -0.0115  0.2080
23405W        W39589  10.083  10.851  14.110  0.3976  0.2107 -0.0908
23406W        W39590   3.498  16.125   5.330  0.1227 -0.0180 -0.1244
23407W        W39591  16.800  11.466  12.535 -0.0217  0.1299  0.0466
23408W        W39592   8.895   4.954   0.841  0.3194 -0.1621  0.1452
23409W        W39593  11.567   6.547   0.755  0.2039  0.2692 -0.2301
23410W        W39594   3.391   5.883  15.509 -0.0105 -0.1387  0.1212
23411W        W39595  15.666  12.966   1.298  0.1557 -0.3619  0.0457
23412W        W39596  12.717  13.547   2.549  0.1380  0.1122  0.2294
23413W        W39597  16.309   7.532   5.867 -0.3408  0.2909 -0.0004
23414W        W39598  12.406   6.532   1.673 -0.1663  0.2089  0.1577
23415W        W39599  14.918  14.835  11.871 -0.4722 -0.0024  0.0580
23416W        W39600   7.099  15.494  12.717 -0.1240  0.0262 -0.0798
23417W        W39601   0.155   4.348  16.849 -0.1633  0.0150  0.2131
23418W        W39602  11.025  11.252  15.905 -0.1151  0.1591 -0.2389
23419W        W39603  11.616   6.295  16.690  0.0664 -0.1931  0.1095
23420W        W39604   3.354  17.110   0.894  0.0780  0.1033  0.0534
23421W        W39605   8.126   2.741  15.740  0.0569 -0.1342 -0.0704
23422W        W39606   7.787   5.345   1.635  0.2015 -0.2613  0.0651
23423W        W39607  14.788  14.310   3.914 -0.1019  0.1528 -0.2067
23424W        W39608   6.576  12.440   3.982  0.2836  0.0976  0.1276
23425W        W39609   2.022  14.944   5.093  0.0626  0.1081 -0.5133
23426W        W39610  14.688   1.044  15.013  0.0938 -0.0629 -0.0768
23427W        W39611   8.827   8.725   1.671 -0.0174  0.1525 -0.2983
23428W        W39612   2.227  12.055   2.758  0.0908  0.1485 -0.1540
23429W        W39613   9.622  10.321  11.314 -0.0616 -0.1180 -0.0359
23430W        W39614  13.284  13.149   0.258 -0.1964  0.0549  0.0762
23431W        W39615   5.611   3.339  12.925 -0.0620  0.3197  0.0881
23432W        W39616   6.573   6.733  13.462  0.1333 -0.0126  0.1370
23433W        W39617   4.404  15.752   5.879  0.0097  0.0635 -0.1462
23434W        W39618   2.081   1.317   1.659 -0.1495 -0.0056 -0.1622
23435W        W39619  10.858  11.630   2.862 -0.0219  0.1038 -0.2002
23436W        W39620   9.292  15.254  13.290  0.1304 -0.2643 -0.0038
23437W        W39621  14.071   0.962   4.594 -0.1698 -0.0843 -0.1532
23438W        W39622   0.776  17.827  15.549  0.1473  0.1692  0.1671
23439W        W39623  13.675   0.008   5.520 -0.1501  0.0340 -0.2961
23440W        W39624  15.231  11.901  11.791  0.1281  0.2393 -0.2031
23441W        W39625   6.414   3.485   0.044 -0.0195  0.0388  0.2594
23442W        W39626  13.973   8.850  12.352  0.0715  0.3751  0.1585
23443W        W39627  16.761   7.936   0.408 -0.2745  0.0087  0.2512
23444W        W39628   6.875   1.952  16.620 -0.2285 -0.2639  0.0048
23445W        W39629  14.912   6.188   0.023 -0.1099 -0.2327 -0.3519
23446W        W39630  16.405   8.923   2.285  0.1962  0.0171 -0.1062
23447W        W39631  15.202  14.384   2.011 -0.0960  0.2384 -0.1146
23448W        W39632   0.416   1.409   0.091  0.1728 -0.0161  0.1810
23449W        W39633   8.376   9.320  16.511 -0.0204 -0.2720 -0.3121
23450W        W39634   7.954  16.482   3.472  0.2336  0.2043 -0.1520
23451W        W39635  16.445  14.895   1.178  0.0614  0.0088 -0.1538
23452W        W39636   7.835   8.834  15.820 -0.3664 -0.0817  0.1047
23453W        W39637  12.151  10.370  16.283  0.1261 -0.0039 -0.1634
23454W        W39638   5.953   3.787  11.972  0.0077 -0.3465  0.1640
23455W        W39639  17.868  10.908  13.249 -0.0466  0.1077  0.0515
23456W        W39640   3.841   9.770   3.430 -0.3182  0.1542  0.2456
23457W        W39641   9.816   1.556  16.201  0.0962 -0.0493  0.1522
23458W        W39642  10.228   3.746   0.373 -0.0931 -0.1155 -0.3327
23459W        W39643   1.619   7.069   6.308  0.2336  0.0560  0.2022
23460W        W39644  12.140   7.667   0.889  0.2003  0.1679 -0.2817
23461W        W39645  10.076   1.945  16.521  0.0061  0.2070  0.1229
23462W        W39646   4.882   0.840  12.824  0.1618  0.1154  0.1858
23463W        W39647   3.420   0.496   6.075 -0.0251 -0.1358 -0.0892
23464W        W39648   3.096   7.066   0.056  0.2321 -0.0094 -0.3925
23465W        W39649  11.246   6.217   3.354 -0.1083  0.1127  0.3042
23466W        W39650   5.592  15.890  15.355  0.2553 -0.0132  0.1227
23467W        W39651  17.229   4.576   4.122  0.0434  0.2534  0.0795
23468W        W39652   6.288  10.103  15.849 -0.1927 -0.1804  0.2226
23469W        W39653  17.350  10.414   0.283  0.2423 -0.1059 -0.0916
23470W        W39654   7.611   3.853  13.807 -0.4592  0.2732 -0.2615
23471W        W39655  13.304  12.001   4.231 -0.1581 -0.1380  0.0536
23472W        W39656   4.660  14.566   2.061  0.1062  0.3459 -0.2954
23473W        W39657   2.137   7.136   5.630  0.1878 -0.1023  0.0045
23474W        W39658  11.371  11.258  13.617 -0.1441  0.0045 -0.1040
23475W        W39659  16.905  14.176  13.045  0.1088  0.0880 -0.3393
23476W        W39660   5.442   6.379   1.959 -0.1269  0.0862  0.0754
23477W        W39661   5.875   5.632  16.829  0.1899  0.0031  0.0466
23478W        W39662  17.058   8.688   4.292 -0.2521 -0.0776  0.0857
23479W        W39663   2.146   1.542  12.258 -0.0030 -0.0303 -0.2279
23480W        W39664  13.087   3.899  13.002 -0.1138 -0.0597 -0.1278
23481W        W39665   6.173   1.633   1.132 -0.1432  0.0741  0.1393
23482W        W39666  16.180   7.378  13.240 -0.1036 -0.1373  0.1318
23483W        W39667   0.986   8.467  15.295 -0.1986  0.1618  0.0317
23484W        W39668  12.412  12.328   1.693 -0.0140 -0.0307  0.2344
23485W        W39669  13.258   6.053  14.130 -0.3425 -0.2981 -0.2034
23486W        W39670   3.732  13.431  13.527  0.0749 -0.2526 -0.2520
23487W        W39671  10.909   8.734   4.202 -0.0255  0.1236  0.0169
23488W        W39672   2.703   2.750   1.015 -0.1161  0.2321 -0.3536
23489W        W39673   7.406  15.029   0.812  0.2032 -0.2301 -0.0493
23490W        W39674  14.381  12.862  15.123 -0.1291  0.2136 -0.1643
23491W        W39675  12.732   4.602   1.095 -0.3903 -0.0682  0.0122
23492W        W39676   2.327  10.090  13.994  0.1387  0.1420 -0.0880
23493W        W39677   9.460  16.001   0.305  0.0835 -0.0227 -0.2751
23494W        W39678  17.126  11.487  16.333  0.0630  0.2875 -0.1090
23495W        W39679  16.076   8.124   0.224  0.0906  0.1954  0.3803
23496W        W39680  11.637  14.056   3.512  0.1581  0.3783  0.1178
23497W        W39681   6.816  16.470  12.543 -0.0635 -0.2972 -0.0730
23498W        W39682   1.589   1.371  13.324  0.2177 -0.2933  0.0409
23499W        W39683   0.772  11.249   2.151 -0.1108 -0.2395 -0.1005
23500W        W39684   2.995  15.430   1.941  0.1897  0.0712 -0.1906
23501W        W39685  16.945  11.938  12.544 -0.1325  0.1162 -0.3204
23502W        W39686   3.832  14.368  15.820  0.1762 -0.1748 -0.0344
23503W        W39687   9.888   4.600  13.468  0.2701  0.0493  0.0397
23504W        W39688  12.792   4.356   5.233 -0.1176  0.0916 -0.2469
23505W        W39689  10.286  10.226  13.921 -0.1354 -0.0844 -0.2989
23506W        W39690  16.834  17.059   0.581 -0.2251  0.0756 -0.1962
23507W        W39691   1.357   8.875   3.082  0.2788 -0.2242 -0.1361
23508W        W39692  13.658  14.542  13.240 -0.0500  0.1405  0.4132
23509W        W39693   9.731   6.766  11.759 -0.0625 -0.1482 -0.1651
23510W        W39694   6.137  17.776  13.477  0.0463  0.3383 -0.1628
23511W        W39695   9.004  14.852   0.406 -0.0968 -0.0464  0.1045
23512W        W39696   9.593   8.144   0.519 -0.1540  0.2021  0.0267
23513W        W39697  16.930  15.847  15.068  0.0497 -0.1184  0.3878
23514W        W39698   7.694  14.140  12.107  0.1006  0.1447  0.0952
23515W        W39699   3.055   9.616   5.602 -0.2986  0.0319 -0.2461
23516W        W39700  13.560   2.922   3.459 -0.2591  0.0751  0.0787
23517W        W39701  12.048  11.890   3.878  0.1318 -0.0561 -0.1275
23518W        W39702  13.408   4.985   0.359  0.0209 -0.1900  0.0183
23519W        W39703   2.379   9.879   0.330  0.1399 -0.0651  0.1568
23520W        W39704  16.544  17.847  15.938 -0.0634  0.0490  0.2052
23521W        W39705   9.402   0.124  16.612  0.1917 -0.0505  0.1943
23522W        W39706   9.658   8.695   2.177  0.2585 -0.1760 -0.1356
23523W        W39707   3.331   6.791   3.660 -0.2462  0.1873 -0.0386
23524W        W39708  15.255   7.288   1.769  0.1343  0.1547  0.0031
23525W        W39709  15.777   7.734  15.695 -0.0266 -0.1798 -0.3862
23526W        W39710   3.827   7.504   2.098  0.1978  0.2885  0.0217
23527W        W39711   2.395   3.422  13.948  0.1279  0.1579  0.1172
23528W        W39712   7.822  10.986   1.266  0.0694  0.1543  0.2263
23529W        W39713   2.203  13.831   1.293  0.0387 -0.0987 -0.2162
23530W        W39714   9.611   2.014   3.219  0.1590 -0.0806  0.1470
23531W        W39715   1.701   8.209   2.409 -0.0898  0.1412 -0.0198
23532W        W39716  11.321   6.034  15.095  0.3613 -0.1652  0.2880
23533W        W39717   8.905  14.782   2.726 -0.0051 -0.0734  0.1468
23534W        W39718  17.260  13.017  12.173 -0.0729 -0.2145 -0.1557
23535W        W39719  13.180   5.610  13.836  0.1008 -0.2239  0.0069
23536W        W39720   6.929   0.608  13.359  0.1475  0.1953  0.3828
23537W        W39721  13.579  15.165   3.172 -0.2409 -0.0063  0.2049
23538W        W39722   6.281   2.058  12.074  0.0310 -0.3529 -0.0666
23539W        W39723  17.254   2.268  11.565  0.0549 -0.0135 -0.0556
23540W        W39724   8.947  10.713  13.427  0.0816  0.0526 -0.2015
23541W        W39725   2.597   0.877   0.775  0.1580 -0.0467 -0.2837
23542W        W39726   9.371  11.341   1.828 -0.2073  0.0563 -0.1391
23543W        W39727   6.394   1.130   1.340  0.0083 -0.2432 -0.0810
23544W        W39728   8.850   3.266   5.391  0.3827  0.0113  0.0111
23545W        W39729  10.700   1.205   4.459 -0.1434 -0.2779  0.3571
23546W        W39730  13.360  15.955  14.952 -0.2727  0.0084  0.0743
23547W        W39731   7.601   7.118   4.389 -0.0125 -0.1747 -0.0822
23548W        W39732   6.334  13.620  11.960  0.0126  0.0529 -0.2245
23549W        W39733  10.144   1.177   0.336  0.1125 -0.1644  0.0727
23550W        W39734   2.746   4.126   2.050  0.1479  0.1050 -0.1087
23551W        W39735   0.236  13.202  14.878  0.0651 -0.2657  0.1645
23552W        W39736   9.639   8.349  11.768 -0.0703  0.1891  0.0756
23553W        W39737  10.494   4.892   4.594  0.3037  0.0563  0.0075
23554W        W39738   3.269   0.954  11.441 -0.0573 -0.1187  0.1753
23555W        W39739   0.783   1.048   5.899  0.0909 -0.2184  0.0679
23556W        W39740   0.789   0.648  12.809 -0.0597 -0.1789  0.0544
23557W        W39741  13.863   7.071   1.240  0.1905 -0.0893 -0.0698
23558W        W39742   5.470   3.601  13.351 -0.0402 -0.2700  0.0889
23559W        W39743   0.400   7.739   0.261 -0.1096  0.4501  0.1783
23560W        W39744  10.729   1.758   3.565 -0.1949  0.0801  0.2091
23561W        W39745  11.308   8.271  16.385  0.1134 -0.3321 -0.1841
23562W        W39746   1.064   4.131   1.498  0.1080  0.2564 -0.0508
23563W        W39747  11.040   2.448   4.693  0.2091  0.0044 -0.0730
23564W        W39748  10.073   9.932  13.005 -0.0805  0.0039  0.0010
23565W        W39749   4.760   6.159   5.522  0.2028 -0.0106  0.1147
23566W        W39750   3.242  12.214   4.241 -0.0245 -0.0851 -0.1128
23567W        W39751  12.694   4.976   2.217  0.2097  0.0012  0.1405
23568W        W39752  15.724   7.572  13.235  0.0611  0.0605  0.1384
23569W        W39753   9.874   7.914  14.719  0.0262 -0.1707  0.1788
23570W        W39754   7.788   2.037   3.652 -0.0498  0.0283 -0.1170
23571W        W39755   7.125  17.084  16.740  0.0463  0.2460 -0.0640
23572W        W39756   1.438   6.993   5.092  0.4804  0.1153 -0.1881
23573W        W39757  14.944   7.680  16.323 -0.1282  0.0404 -0.1514
23574W        W39758   0.553  16.229   2.409 -0.0669  0.0049 -0.0815
23575W        W39759   8.901  12.807  15.209 -0.0876  0.2697  0.0165
23576W        W39760  13.534   7.161  14.682  0.0261 -0.4261 -0.2709
23577W        W39761   0.259   7.333   4.862  0.1401  0.0812  0.1091
23578W        W39762  16.246  11.815  14.461 -0.1565  0.1911 -0.0639
23579W        W39763   5.805  12.925  16.758 -0.0507 -0.1713 -0.2671
23580W        W39764  13.233  17.842   5.314  0.4411  0.1281 -0.0114
23581W        W39765  10.595  10.743   5.291 -0.1545  0.2327  0.1774
23582W        W39766   8.124  14.214   0.027 -0.0719  0.1818 -0.0033
23583W        W39767   3.927   0.026   4.580 -0.2188 -0.1242  0.1089
23584W        W39768   7.092   5.990   5.540  0.3393 -0.0095  0.0963
23585W        W39769   0.612   1.790   3.496  0.2338 -0.0860 -0.0155
23586W        W39770   4.967   5.520  14.600 -0.1177  0.2061  0.0387
23587W        W39771  15.395   8.518  16.904 -0.1556 -0.1470 -0.0251
23588W        W39772   6.881   7.050   2.741 -0.0746  0.0239 -0.3356
23589W        W39773   0.785  16.808  15.854  0.1639 -0.0958 -0.1203
23590W        W39774   5.582  16.792  12.059  0.0237 -0.1117 -0.0632
23591W        W39775   1.720   0.632  14.770  0.0098 -0.1794 -0.5269
23592W        W39776  10.321   0.024  16.666  0.2027 -0.0903  0.2107
23593W        W39777   4.542   0.182  16.278 -0.1694  0.0871 -0.0457
23594W        W39778   8.972   5.699   2.927  0.0218 -0.3171 -0.0862
23595W        W39779   3.869  16.787  15.801  0.1008  0.0913 -0.0217
23596W        W39780   5.671   6.695   3.064 -0.1576  0.0093 -0.4050
23597W        W39781  10.288   4.732   3.640 -0.2650 -0.0724 -0.0525
23598W        W39782   6.025  10.693   0.416  0.1471  0.0627  0.2713
23599W        W39783  13.761   6.628   4.353 -0.1176 -0.0978  0.1121
23600W        W39784   9.378   4.289   2.913  0.0887  0.4075  0.3020
23601W        W39785   3.425  12.280  14.930  0.2722  0.0293  0.1410
23602W        W39786  11.637   4.485  14.250  0.1888 -0.2684  0.1683
23603W        W39787   7.212   2.854  16.371  0.0334  0.2015  0.1424
23604W        W39788   4.534  15.525   5.006 -0.1973 -0.0149 -0.1645
23605W        W39789   6.077  15.077   4.312  0.0725 -0.2105  0.0512
23606W        W39790   3.398   9.093  14.007 -0.2379  0.0059  0.3464
23607W        W39791   0.650  10.579   5.630  0.0445 -0.0544  0.0237
23608W        W39792  17.334  17.192  14.322  0.2390 -0.3184  0.0379
23609W        W39793  15.535   7.519  10.375 -0.0836 -0.1662 -0.1422
23610W        W39794   6.939   1.541   3.774  0.1552 -0.2213  0.2131
23611W        W39795  16.298   8.773   5.295  0.0590  0.0527 -0.2788
23612W        W39796   0.824   5.328  16.357 -0.1706 -0.1372  0.1273
23613W        W39797   9.687  16.246   3.646  0.4500  0.1409  0.3065
23614W        W39798  17.218   0.891   2.822 -0.1785 -0.2450 -0.0213
23615W        W39799  12.123  16.227   0.147 -0.1685  0.1109  0.2655
23616W        W39800  15.491   0.513   3.767  0.1121  0.1907 -0.1561
23617W        W39801   1.164  11.435  15.468 -0.1185  0.2764  0.0010
23618W        W39802  10.465   7.939   0.517  0.1445 -0.2466 -0.0673
23619W        W39803   9.253   8.605  15.666  0.2474  0.0420  0.2500
23620W        W39804   3.830   3.248  16.875 -0.1102 -0.3485 -0.1157
23621W        W39805  16.947  14.044   5.934 -0.0375  0.2811  0.1356
23622W        W39806   1.981  12.939  12.324  0.1143  0.1592  0.4394
23623W        W39807  14.981  12.566   1.402  0.2847 -0.1932  0.2620
23624W        W39808  16.489   9.153   0.783 -0.0355  0.1352  0.1728
23625W        W39809  15.865   3.200  14.630 -0.1969  0.1246  0.0054
23626W        W39810   3.307   2.436  13.626  0.3353 -0.0664 -0.2009
23627W        W39811  17.879   8.124   4.718  0.2872  0.0635  0.0547
23628W        W39812   2.184  13.207   0.340  0.2036  0.2690  0.0023
23629W        W39813   8.956   3.791   1.632 -0.0238  0.0127 -0.1973
23630W        W39814  15.904  16.648   4.898  0.0875 -0.1735  0.1954
23631W        W39815   7.959  13.352   0.795 -0.2687  0.2613 -0.3418
23632W        W39816  17.455   2.797  16.118  0.1569 -0.1184  0.1784
23633W        W39817  13.312   1.127  14.195 -0.1364 -0.2666  0.2281
23634W        W39818   0.699  16.167  15.689  0.0723 -0.0930  0.0988
23635W        W39819   0.679   0.321  13.205 -0.0010 -0.1379 -0.0793
23636W        W39820  12.644   5.286  16.588  0.2585  0.0193  0.0070
23637W        W39821  17.113  11.435   1.036 -0.0334 -0.2086  0.1485
23638W        W39822   8.744  16.345  13.739 -0.4066 -0.3557 -0.4441
23639W        W39823   1.314   4.348  15.865 -0.1099  0.0638  0.0455
23640W        W39824  11.588  11.436  12.379 -0.0262  0.2353 -0.0296
23641W        W39825  15.904  10.823  15.907 -0.1749  0.0028  0.2134
23642W        W39826   0.457   1.580  16.153 -0.0494  0.0336 -0.4541
23643W        W39827   0.908  10.184   5.592  0.1081  0.0365  0.3502
23644W        W39828  15.400  10.906   0.993  0.2647  0.1890  0.0179
23645W        W39829  16.043   8.509   3.351  0.1542  0.0429 -0.1193
23646W        W39830   6.930  10.162   4.845 -0.2137  0.2550  0.0917
23647W        W39831  12.944   0.502  13.703 -0.2519 -0.2911  0.0837
23648W        W39832  13.025  10.566  14.834  0.2349 -0.0464  0.0350
23649W        W39833  13.244   4.683   1.059  0.0048 -0.1884  0.3480
23650W        W39834  17.823  11.340  14.678 -0.0695 -0.3052 -0.0666
23651W        W39835  12.275   1.359  15.437  0.1017  0.1536  0.1431
23652W        W39836   9.940   6.730  15.174 -0.2625  0.0604  0.4438
23653W        W39837   9.337  10.311  16.843  0.2697  0.1139  0.0468
23654W        W39838   8.369   4.965  15.073 -0.1088  0.0582 -0.0316
23655W        W39839   5.157   7.848  15.041 -0.1750  0.1835 -0.2238
23656W        W39840   6.677   6.655   4.138 -0.1786 -0.2099  0.1091
23657W        W39841   3.367   3.313   4.269 -0.2314 -0.0441  0.0338
23658W        W39842  14.351  16.879   4.917  0.1338  0.0064  0.0548
23659W        W39843   0.001  10.134  11.668 -0.1699 -0.0009 -0.1710
23660W        W39844  14.510   8.548   0.710  0.3137 -0.0671 -0.1859
23661W        W39845   9.446   5.629  14.483  0.0675  0.1094 -0.0817
23662W        W39846  16.830  14.906  11.659  0.0047  0.0541 -0.1965
23663W        W39847   7.593   9.473   3.252  0.0434  0.0540 -0.1215
23664W        W39848   8.153   4.450   4.652 -0.0704  0.3272 -0.2265
23665W        W39849   4.828  17.822  13.147 -0.1359  0.0489 -0.0990
23666W        W39850   8.237   4.929   0.530 -0.0814 -0.2900 -0.2369
23667W        W39851   1.900  15.380  15.320  0.0879 -0.2881 -0.3123
23668W        W39852  16.517  10.986   4.655  0.0545  0.2171  0.0236
23669W        W39853   7.761   1.597  15.062 -0.6563  0.0653  0.0388
23670W        W39854   2.206  17.849  14.272 -0.1529  0.1959  0.0220
23671W        W39855  10.825  17.246   0.770 -0.0431 -0.3448  0.1028
23672W        W39856  12.634   3.778  13.804  0.1563 -0.2051 -0.1638
23673W        W39857  15.154   9.223   3.291  0.2067  0.1140  0.2675
23674W        W39858  14.944  12.704   3.450 -0.0827 -0.0494 -0.2654
23675W        W39859   8.474   7.700  15.367 -0.0180 -0.0702  0.1889
23676W        W39860  14.589   3.697  13.913 -0.1612 -0.0051  0.0385
23677W        W39861  12.665  11.624  15.449 -0.4129 -0.2180  0.0604
23678W        W39862   3.556   6.622   0.934  0.3040 -0.0788  0.1117
23679W        W39863  17.589   1.182  14.474 -0.1519 -0.1230 -0.2709
23680W        W39864  15.941   4.123   3.356 -0.0596 -0.4395 -0.2005
23681W        W39865  12.281  13.607  15.137 -0.1628 -0.2737  0.3526
23682W        W39866   8.140   2.802  14.328  0.0607 -0.0797 -0.1591
23683W        W39867   6.243   9.857  12.998  0.0359 -0.0806  0.1723
23684W        W39868   4.338  11.094   2.276  0.0691  0.2109 -0.1460
23685W        W39869   8.174   9.537  16.104 -0.1002 -0.1359 -0.1776
23686W        W39870   0.645   8.122  13.998  0.0010 -0.2284 -0.4197
23687W        W39871  13.362   8.242   5.357  0.0990 -0.0741  0.0370
23688W        W39872   3.334   3.077  14.376 -0.0549  0.1067 -0.0377
23689W        W39873   7.731   0.499   2.449 -0.0114  0.1141  0.0703
23690W        W39874   1.540  12.243  12.498 -0.1431  0.0591 -0.2077
23691W        W39875  11.868   1.684  13.390  0.0185 -0.2043 -0.3943
23692W        W39876  12.149   3.997  15.271  0.1138 -0.2269  0.0627
23693W        W39877   2.500  13.242   6.051 -0.0129  0.0101 -0.2597
23694W        W39878   2.643  10.256  12.736 -0.2074 -0.1061 -0.0270
23695W        W39879  14.829   4.223  10.924 -0.0763  0.0108  0.1021
23696W        W39880   6.268  14.779  10.741  0.0072  0.2235  0.0119
23697W        W39881   7.737  16.343  14.803 -0.1998 -0.1160  0.3932
23698W        W39882   5.938  13.063  15.106  0.0114 -0.0959  0.3700
23699W        W39883  13.811   3.164   5.262  0.1969  0.0455 -0.1243
23700W        W39884  14.716   3.313  15.580  0.0584  0.0063  0.2101
23701W        W39885   1.643   3.023   3.645 -0.4876 -0.0795  0.2550
23702W        W39886  17.652   3.313  11.975  0.0252  0.0005 -0.0881
23703W        W39887  12.899  11.968  12.653  0.3372  0.3234  0.0808
23704W        W39888   3.640   0.403   4.366  0.1044 -0.2749 -0.0179
23705W        W39889   2.560   5.165  12.891  0.0025  0.1997  0.1942
23706W        W39890   6.007   6.082  12.050 -0.1764 -0.2800 -0.1487
23707W        W39891  15.688   2.570  12.788 -0.0722  0.0170 -0.0663
23708W        W39892   6.109   9.973   2.073  0.1920 -0.2064 -0.3157
23709W        W39893   0.359   1.955   3.071 -0.0867 -0.0683 -0.0559
23710W        W39894  11.294  14.247  13.346 -0.0183 -0.2684  0.0305
23711W        W39895   6.381   9.089  16.830  0.1521  0.1217 -0.2829
23712W        W39896   1.379  10.541   0.707 -0.1708  0.0455 -0.1862
23713W        W39897  12.468  14.763   2.617  0.2280 -0.2774 -0.1628
23714W        W39898   6.629   3.093   5.660 -0.0718  0.2591 -0.0901
23715W        W39899   9.422  17.836   0.227  0.1372 -0.3754  0.2083
23716W        W39900  16.136  15.601  16.223 -0.1345  0.1712  0.3072
23717W        W39901   8.750   9.290  15.658  0.1730 -0.1392  0.0325
23718W        W39902  13.272   0.808  16.301 -0.1043 -0.3996  0.0522
23719W        W39903   0.917   3.883   4.191  0.0640 -0.1675  0.1734
23720W        W39904   7.663   9.681  16.384  0.0043 -0.0087 -0.0076
23721W        W39905   6.565   9.299  13.523  0.0295  0.0576 -0.0159
23722W        W39906  14.262   8.035   2.141 -0.1356  0.1293 -0.2755
23723W        W39907  13.844   1.954  15.734 -0.3213 -0.0613  0.0653
23724W        W39908  17.527   6.206   2.324 -0.0782  0.2168 -0.4146
23725W        W39909   8.541   0.852  13.988  0.0182  0.1445 -0.0153
23726W        W39910  12.199  15.404   6.008 -0.1649 -0.0320  0.1696
23727W        W39911   3.804  15.701  13.212  0.2226 -0.0129  0.0880
23728W        W39912   8.669   0.281   2.616 -0.0384 -0.1024  0.0593
23729W        W39913   2.320   2.495   4.598  0.1369 -0.3535 -0.2463
23730W        W39914   4.269   9.701   3.106  0.1212  0.0349 -0.1592
23731W        W39915   2.396  17.825  12.998  0.2284  0.1633  0.1541
23732W        W39916   7.704  17.570   6.313  0.2141 -0.2734 -0.2219
23733W        W39917   3.056   0.393  13.379 -0.1061  0.3042 -0.0491
23734W        W39918  13.905   7.582   4.838 -0.1325 -0.1890  0.0521
23735W        W39919  12.698  11.669  13.764 -0.1801 -0.0891  0.2167
23736W        W39920  11.024   3.441   4.757 -0.0905 -0.1316 -0.0592
23737W        W39921  15.165   5.877  16.032  0.1909  0.1076 -0.0223
23738W        W39922   2.631  13.108  15.240  0.0262  0.1458 -0.2614
23739W        W39923  13.115  14.019   0.372  0.2602 -0.0747 -0.1447
23740W        W39924   4.388   3.929   5.739 -0.0924 -0.0009  0.1914
23741W        W39925   4.050   0.500   0.859  0.0554  0.0195  0.3535
23742W        W39926  15.188  12.861   5.479  0.1095 -0.0693 -0.2687
23743W        W39927   1.109   5.834   4.464 -0.0304  0.2364 -0.0998
23744W        W39928  16.469   2.540   4.277 -0.1413  0.0999  0.0515
23745W        W39929  11.361   1.229   0.267  0.3146  0.2412  0.0044
23746W        W39930   1.324  10.723  12.909  0.1665 -0.0867 -0.1423
23747W        W39931   2.393   7.356   2.501  0.0579  0.1128 -0.0881
23748W        W39932  15.376  14.008  15.118  0.3194 -0.1484 -0.0782
23749W        W39933  10.896   8.345   1.113 -0.2448 -0.0424 -0.1074
23750W        W39934   2.345   3.635   2.682 -0.0627  0.2129  0.0519
23751W        W39935   6.619  10.665  12.889  0.1503 -0.1741  0.1171
23752W        W39936   1.915   0.561  15.230 -0.1241 -0.0523  0.1077
23753W        W39937   4.240   4.151   3.253  0.0329 -0.0853  0.0114
23754W        W39938   8.027  15.354   4.729 -0.1966 -0.1473  0.0566
23755W        W39939   8.190  14.167   2.153  0.0071  0.0496 -0.0760
23756W        W39940   5.744  14.833   4.615  0.0903  0.5622  0.0862
23757W        W39941  10.208   0.310  14.220 -0.2455  0.0732  0.1519
23758W        W39942  13.844   0.588   4.351 -0.1575  0.1671  0.2928
23759W        W39943  13.226  13.521  13.271 -0.0691  0.0279  0.0416
23760W        W39944   7.593  11.684  14.473 -0.0589  0.2802 -0.2284
23761W        W39945  10.554  11.575   3.293 -0.4031 -0.1448 -0.0419
23762W        W39946   0.508   6.540   5.027 -0.1290 -0.0475  0.3394
23763W        W39947   6.331   2.613   1.072 -0.0929  0.1506  0.1779
23764W        W39948  11.486   6.055  12.366 -0.2552 -0.1705  0.0928
23765W        W39949   8.492   9.258   2.030  0.0400 -0.1079 -0.0906
23766W        W39950  17.529  11.762  14.353 -0.1020  0.2244  0.0685
23767W        W39951  10.404  12.272  13.671 -0.4404  0.1091 -0.0746
23768W        W39952   0.914  17.297  12.285 -0.1106  0.0171  0.0434
23769W        W39953   6.183  11.318  16.558  0.1037  0.2035 -0.1246
23770W        W39954   5.937   1.954  12.986  0.1808 -0.0351  0.0928
23771W        W39955   3.169  11.799  14.151  0.0530 -0.0775  0.0785
23772W        W39956   6.976   9.048   1.315  0.0096  0.0263  0.0494
23773W        W39957  17.859  14.167  14.722  0.3609 -0.1355 -0.0651
23774W        W39958   5.712  17.727  13.082  0.0118  0.0319 -0.1739
23775W        W39959   2.551   9.761  12.035 -0.2590  0.3235  0.0092
23776W        W39960  12.074   5.349   2.657 -0.0309 -0.1130 -0.1927
23777W        W39961  15.438   6.881   2.740 -0.0070  0.1081  0.1133
23778W        W39962   2.174  17.469  15.564  0.0411  0.1255 -0.1287
23779W        W39963  11.954   5.172   2.145 -0.0703 -0.2854  0.0353
23780W        W39964  14.977   5.408  13.471  0.3603 -0.2102 -0.2221
23781W        W39965   5.898   2.836  14.546  0.1079  0.1781 -0.0245
23782W        W39966   4.924   7.502   1.077 -0.0905  0.1216  0.1343
23783W        W39967   3.593   3.191   2.193 -0.2626 -0.2412  0.0589
23784W        W39968  12.217  15.260   5.366  0.2437 -0.1358 -0.1191
23785W        W39969  15.913   4.231  15.727  0.1256 -0.1269 -0.1389
23786W        W39970  17.692  17.497  14.627 -0.3643  0.0132  0.2342
23787W        W39971   7.609   3.184  12.124 -0.1322 -0.0319 -0.1362
23788W        W39972  15.895  14.163  13.107  0.1764 -0.3710 -0.0899
23789W        W39973   2.728   4.661  15.085 -0.0678  0.1392  0.1258
23790W        W39974   0.001   2.906  15.827 -0.2526  0.0147 -0.1122
23791W        W39975  14.041   0.017   0.938  0.2491 -0.1356 -0.0094
23792W        W39976  10.056   1.745   0.403 -0.0637  0.3166 -0.1883
23793W        W39977   5.685   6.354   2.627  0.0141 -0.1325  0.0393
23794W        W39978  14.894   4.471   1.394 -0.2263  0.0561 -0.2793
23795W        W39979  14.024   7.090  15.627  0.0076  0.2861  0.1573
23796W        W39980   4.242   7.531  14.068  0.1905 -0.3223 -0.1310
23797W        W39981   9.611  17.623   0.908 -0.2222 -0.2367  0.0645
23798W        W39982   6.321  14.232  14.511  0.3307 -0.1871 -0.0518
23799W        W39983   1.311   2.110  16.306  0.4355  0.0414 -0.1105
23800W        W39984   6.393  14.455  13.646  0.1232 -0.3533  0.0832
23801W        W39985   5.114  13.620  12.467  0.0823 -0.3309 -0.2172
23802W        W39986   8.465  13.468   5.125 -0.1832 -0.0029  0.1244
23803W        W39987  11.791   4.960  14.145 -0.3374 -0.0158  0.3626
23804W        W39988   7.716   7.476   3.646 -0.0885 -0.1986  0.2910
23805W        W39989  13.990   8.439  14.469  0.1588 -0.1471  0.1329
23806W        W39990   2.753  13.141   2.149 -0.0189 -0.2879 -0.2611
23807W        W39991   5.328  14.217   2.564 -0.2132  0.1266 -0.1885
23808W        W39992  12.645  11.123  13.669  0.0025 -0.4490 -0.0612
23809W        W39993   4.745   8.237   2.751  0.0575 -0.1435 -0.0443
23810W        W39994   3.847   3.180   4.013  0.1779  0.2667  0.2559
23811W        W39995   2.843   9.911  13.972  0.3258 -0.1641  0.0082
23812W        W39996  13.517  15.748   2.318 -0.0513  0.2392  0.1184
23813W        W39997  11.515   0.507  12.822  0.3605  0.0975  0.1812
23814W        W39998   3.318  17.451   3.970  0.0180  0.0013 -0.0587
23815W        W39999   4.418   4.791  14.366  0.0176  0.2385  0.1089
23816W        W40000   1.171  16.661   5.072  0.1269 -0.0628 -0.2707
23817W        W40001  11.080  16.257  12.954  0.2233  0.2740 -0.0698
23818W        W40002   1.712   4.002   0.213  0.0158 -0.2730  0.0668
23819W        W40003  15.619   4.348  16.139  0.0968  0.2388  0.2736
23820W        W40004   3.507   4.098  16.138  0.3047  0.0604 -0.0156
23821W        W40005   8.025   7.394   4.609  0.0914 -0.3096 -0.0788
23822W        W40006  10.994   5.969   0.818  0.2108  0.1430 -0.0310
23823W        W40007   7.696  10.544   5.242  0.0351 -0.2181  0.0017
23824W        W40008  17.391   4.229   1.595 -0.2769  0.0825  0.1547
23825W        W40009   8.889   2.460   1.570  0.1664  0.2052  0.1051
23826W        W40010   8.502  14.890   0.427 -0.0826  0.3546  0.3064
23827W        W40011   7.348  16.927   5.159 -0.1682  0.0297  0.0325
23828W        W40012  16.617   2.260  13.385  0.1782 -0.1762 -0.0108
23829W        W40013  15.304  15.271  13.811  0.0306  0.1190 -0.0932
23830W        W40014   4.627   8.215  15.911 -0.0621  0.1145  0.0666
23831W        W40015  13.634  14.837  14.657 -0.0851 -0.0314 -0.0143
23832W        W40016   9.760  14.790   4.608 -0.2483 -0.1491  0.1668
23833W        W40017  14.964   2.348  12.209 -0.0147  0.0140  0.1777
23834W        W40018   8.106   5.204  14.118  0.0069 -0.0871 -0.1533
23835W        W40019   2.228  11.134   1.588 -0.1567  0.1277  0.1235
23836W        W40020  13.369  12.338  16.640 -0.3472  0.1865  0.0204
23837W        W40021   4.158   9.487  11.358  0.1817  0.1183  0.3205
23838W        W40022  11.675  17.522  16.879  0.1895 -0.3355 -0.0783
23839W        W40023   5.358   9.321   4.243 -0.1754 -0.2644 -0.0760
23840W        W40024  13.641   9.164  15.705 -0.0669  0.2053 -0.2575
23841W        W40025   0.828  15.326   2.903 -0.1680 -0.2445  0.1268
23842W        W40026  15.287   5.536  16.472  0.0289  0.0433 -0.0819
23843W        W40027   3.005   8.089   3.905  0.1463  0.0935  0.0407
23844W        W40028  10.611   0.797   3.074 -0.3307 -0.2578 -0.3313
23845W        W40029  15.794   9.578  10.382 -0.3960  0.1091  0.0694
23846W        W40030   1.863   4.475  16.415  0.0840 -0.1440  0.2634
23847W        W40031  15.958   7.416  14.946  0.0236  0.1499 -0.2123
23848W        W40032   2.838   3.272   1.108  0.0804 -0.2025 -0.2914
23849W        W40033   4.245   0.923   2.460  0.1838  0.1364  0.3159
23850W        W40034  13.814   7.344  16.053  0.2622 -0.0637  0.2328
23851W        W40035   3.738   4.055   3.164  0.1653 -0.0906  0.0199
23852W        W40036   1.322   1.734  13.570 -0.4225 -0.2740 -0.0535
23853W        W40037  11.653  14.521  15.145  0.0454 -0.0614  0.1066
23854W        W40038   1.961   9.645   3.119  0.3521  0.0992  0.0210
23855W        W40039   3.901   5.812  15.446  0.1544  0.0731 -0.1537
23856W        W40040  10.472  17.140   4.285  0.3342 -0.2675  0.0523
23857W        W40041  17.698   2.023   1.519  0.3232  0.1841  0.0681
23858W        W40042   5.803   4.799  16.720  0.0204 -0.1913  0.0730
23859W        W40043  15.015   2.865  13.606 -0.1171 -0.0553 -0.0258
23860W        W40044   1.004  12.785   0.512 -0.2375 -0.1190 -0.1452
23861W        W40045   3.472  14.431   1.278  0.3875  0.0032  0.0412
23862W        W40046  12.220  16.702  11.349  0.0245  0.0115  0.1361
23863W        W40047  13.932   0.577   4.867 -0.1625  0.2395 -0.0836
23864W        W40048   9.956  11.563  12.874 -0.1775  0.3357 -0.1310
23865W        W40049  16.430  12.549  15.631 -0.3943 -0.3377  0.1918
23866W        W40050  14.545   3.896   5.687  0.2738  0.0412  0.0977
23867W        W40051  15.160  16.878   5.400 -0.2470 -0.0974 -0.1274
23868W        W40052   1.659  12.504   3.419 -0.0478  0.0453  0.4931
23869W        W40053  16.487   1.256  16.420  0.0304  0.1349  0.1844
23870W        W40054   9.121   6.514   3.689 -0.1569  0.0145 -0.1062
23871W        W40055   8.244   6.875   2.365  0.3576  0.2116 -0.0468
23872W        W40056   8.295   6.458  16.350 -0.0409 -0.2411 -0.2581
23873W        W40057   1.393   6.468  15.940  0.0998  0.3239  0.0208
23874W        W40058   4.611   6.085   1.560  0.2237 -0.1212  0.0771
23875W        W40059  12.386   9.558   3.914  0.1241 -0.1282  0.0409
23876W        W40060  12.907  17.082   2.406 -0.2252 -0.0322 -0.0498
23877W        W40061   8.230   0.408  12.268  0.1856  0.1081  0.0783
23878W        W40062   9.609   8.381  15.121 -0.0473 -0.1798  0.0266
23879W        W40063  10.070   6.516   4.787  0.0339 -0.2360  0.3958
23880W        W40064   7.284   5.441  14.303  0.1369  0.0124 -0.0321
23881W        W40065   2.141  16.192  13.660  0.2820 -0.0605  0.0527
23882W        W40066   6.869   4.579  16.485 -0.2718 -0.1053 -0.3386
23883W        W40067   7.565   1.058  12.105  0.0129  0.0254 -0.0671
23884W        W40068   2.214   6.835   4.747 -0.1636 -0.1042 -0.3920
23885W        W40069  16.092   4.533  12.334 -0.0014  0.0367  0.1358
23886W        W40070   7.224  15.352   1.491 -0.0806  0.2237  0.1490
23887W        W40071   0.993   7.586  12.618 -0.1978 -0.4351 -0.1001
23888W        W40072  10.928  14.506   0.279 -0.2489 -0.2457 -0.0844
23889W        W40073   1.684   3.648  16.313 -0.0400 -0.0518  0.3207
23890W        W40074   7.413   1.747   3.849  0.1952 -0.3849 -0.1697
23891W        W40075  15.728   7.770   0.401 -0.0954 -0.1933 -0.3627
23892W        W40076  10.862   4.490   0.955 -0.0753 -0.0510  0.1826
23893W        W40077  17.585  13.819   1.583  0.1149 -0.1634 -0.0630
23894W        W40078  13.226   2.458  13.017  0.0396  0.2587  0.3442
23895W        W40079  14.864   0.902   0.099  0.0825 -0.1058 -0.4023
23896W        W40080  13.324   2.115  16.694 -0.0031 -0.2841  0.0284
23897W        W40081  10.950   6.555   2.112 -0.2450  0.0063 -0.0769
23898W        W40082   9.779  12.971   2.929 -0.1604  0.0526 -0.3811
23899W        W40083   3.580  15.210   0.130  0.3913 -0.1274 -0.0319
23900W        W40084   0.218  10.144   5.670 -0.1551 -0.0073 -0.0356
23901W        W40085  10.035   5.570   3.777 -0.0513  0.0873  0.0625
23902W        W40086   1.036   5.755  13.547 -0.1118 -0.0215 -0.0800
23903W        W40087   9.500   3.808   2.598  0.4789 -0.3279 -0.3806
23904W        W40088  12.325  16.260  15.250 -0.1965 -0.0967  0.1620
23905W        W40089  10.528   0.554   5.261  0.1007 -0.0260 -0.1175
23906W        W40090  15.920  17.169  15.526  0.2148 -0.0523 -0.0139
23907W        W40091  10.629  14.669  13.987  0.0435  0.0272  0.1477
23908W        W40092   2.412  12.496   4.363 -0.0207  0.2261  0.0946
23909W        W40093  13.098  14.521  13.133  0.1725 -0.0114  0.2910
23910W        W40094  14.890   5.177  16.599 -0.0896  0.0203  0.0978
23911W        W40095  13.476  11.365   4.830 -0.1378  0.1975  0.0512
23912W        W40096  16.565  15.174  11.978 -0.0548 -0.2365  0.1508
23913W        W40097   2.475   6.023   3.732 -0.0661  0.0166 -0.0452
23914W        W40098  12.187  13.443  13.220  0.3576  0.3382  0.6097
23915W        W40099   7.382  13.187  13.553 -0.1322  0.0943 -0.0102
23916W        W40100  15.084   9.366  11.980 -0.1186  0.2178  0.0413
23917W        W40101  13.825   4.603   2.409  0.2316  0.1566 -0.2568
23918W        W40102   8.272  12.768   2.459 -0.0495  0.2078  0.0379
23919W        W40103   1.351   5.236  16.525  0.1507 -0.1871  0.2449
23920W        W40104  12.429   0.922   3.352  0.2619 -0.1335 -0.3271
23921W        W40105  11.570  16.586  11.562 -0.1125 -0.0666  0.0684
23922W        W40106  16.890  10.601   0.799  0.1265  0.3063  0.3288
23923W        W40107  13.294  13.159   4.380 -0.0545 -0.1120 -0.1266
23924W        W40108  17.125  10.587  16.342 -0.2185 -0.0073  0.2053
23925W        W40109   3.523  17.052   5.090 -0.1193 -0.0225 -0.0319
23926W        W40110   3.329   7.829  16.260 -0.0382 -0.1084 -0.0895
23927W        W40111  12.219   3.295   3.930 -0.1835  0.0617 -0.3792
23928W        W40112   5.117   9.061  13.655 -0.0206  0.0959  0.0744
23929W        W40113   6.199  10.373   0.851 -0.0930 -0.2990 -0.0441
23930W        W40114   5.787  16.603  14.520 -0.2524 -0.0943 -0.0004
23931W        W40115   5.522  10.552   3.641  0.0074  0.0349 -0.0102
23932W        W40116   8.073  10.740   4.869  0.1805  0.5021  0.0297
23933W        W40117  13.111   2.320  15.959  0.3308  0.2410 -0.1977
23934W        W40118   2.923  10.042  14.906  0.1444 -0.2059  0.0119
23935W        W40119   2.777  11.453  16.055 -0.0087  0.0213 -0.1199
23936W        W40120  14.166  15.419  15.317  0.3010 -0.0641 -0.0050
23937W        W40121   1.627  17.475   0.876  0.1052 -0.0530 -0.1732
23938W        W40122   7.368   3.977  15.386 -0.0395  0.0966 -0.0636
23939W        W40123  17.610  13.261   3.666 -0.0203  0.1007  0.1654
23940W        W40124   8.610   3.014  12.300  0.1993  0.0980  0.0789
23941W        W40125   3.716   6.924   5.564  0.0253  0.2478  0.1455
23942W        W40126  10.912  11.072  14.370  0.0744 -0.0117 -0.0917
23943W        W40127   7.856   0.165  13.195  0.1265 -0.0646 -0.0044
23944W        W40128   4.327  15.526  15.113 -0.1006 -0.5421  0.1059
23945W        W40129   6.303  15.327  14.337 -0.0431  0.1589 -0.4127
23946W        W40130   7.866  10.099   0.288  0.1650  0.1276 -0.1172
23947W        W40131   6.515   5.584   2.808 -0.0322 -0.2632 -0.3371
23948W        W40132   3.903  13.779  13.180 -0.0694  0.2832  0.0458
23949W        W40133   2.211   4.126   2.741 -0.1012  0.0098  0.0083
23950W        W40134  12.671  13.843  15.988 -0.0261  0.0596  0.0124
23951W        W40135   9.958   6.143   2.316  0.2203  0.2662  0.2546
23952W        W40136   9.205  17.369   4.224  0.0004 -0.1176 -0.1097
23953W        W40137  12.534   5.192   0.201 -0.0844  0.1607  0.0144
23954W        W40138   8.047  11.329  12.213 -0.0226 -0.0849 -0.2918
23955W        W40139   5.442  11.457   4.643  0.0420  0.1963  0.2388
23956W        W40140  17.201   8.590   3.358 -0.1109 -0.0837 -0.1409
23957W        W40141  12.797   9.540   4.183  0.2272 -0.0327 -0.2276
23958W        W40142  16.525  12.719   4.344  0.0017  0.5532 -0.2783
23959W        W40143   6.732  17.166   2.800 -0.2609  0.2104  0.1639
23960W        W40144  13.049   9.904   2.081  0.1575 -0.1447  0.1013
23961W        W40145  15.422  15.981   4.230 -0.3074 -0.0917 -0.2329
23962W        W40146   7.060  17.588  13.691  0.1961 -0.0987 -0.0564
23963W        W40147  17.583  12.270  13.199 -0.2087 -0.0990 -0.1088
23964W        W40148  13.002  15.785   0.245  0.0563  0.3498  0.1358
23965W        W40149  14.551  11.039   0.989 -0.0667 -0.0570  0.0147
23966W        W40150  10.815  13.632  15.478 -0.0553  0.1542 -0.1120
23967W        W40151  16.736   1.574  16.893 -0.3423  0.0160  0.2007
23968W        W40152  15.396  12.418   4.696  0.3415 -0.0942  0.2391
23969W        W40153   1.363   1.870   2.851  0.1294 -0.3167  0.0843
23970W        W40154   8.832  10.076  16.766  0.1918  0.0519 -0.0357
23971W        W40155   5.438  17.457   0.622 -0.0940 -0.2381 -0.1827
23972W        W40156   5.237   2.867  15.687 -0.1616 -0.1602 -0.0660
23973W        W40157   1.833  13.794  15.733  0.1780  0.1261  0.0231
23974W        W40158   4.397   0.211   4.768 -0.2104  0.2058  0.0875
23975W        W40159  10.689   7.083  13.336 -0.0298 -0.0588 -0.0372
23976W        W40160   6.008   7.788   5.338 -0.1177 -0.2195 -0.0102
23977W        W40161   3.382  14.270   4.846  0.1707  0.0162 -0.1800
23978W        W40162   3.134   7.729   3.603  0.0458 -0.3116  0.2795
23979W        W40163   0.477  16.566  12.993  0.0200 -0.2105 -0.0180
23980W        W40164  10.645   0.051  11.921 -0.0025 -0.1127 -0.2871
23981W        W40165  14.794  15.239   4.583  0.0513  0.1880  0.3564
23982W        W40166  13.778   1.091  13.928  0.0116  0.2044 -0.0745
23983W        W40167   4.712   5.015  16.239 -0.3239  0.1381 -0.0137
23984W        W40168   4.225   8.570  11.869 -0.0117 -0.1248  0.0040
23985W        W40169  16.039   9.543   1.431  0.0581  0.0407 -0.1395
23986W        W40170   1.541  14.971  13.085  0.0596 -0.1209  0.1868
23987W        W40171   2.068   0.796   1.717 -0.1763 -0.1833  0.1151
23988W        W40172   7.181  11.363   5.011  0.3081 -0.1217  0.2190
23989W        W40173   1.876  15.054  15.709  0.2537  0.1422  0.0535
23990W        W40174  10.503   8.428   1.542 -0.0246 -0.0073  0.1045
23991W        W40175  10.323  16.251   2.868 -0.2634  0.3725  0.0100
23992W        W40176  17.208   2.741   1.488  0.0998 -0.0644  0.0242
23993W        W40177   3.920   2.467   3.106  0.0700 -0.0902 -0.0239
23994W        W40178  12.626  13.232  14.995 -0.1673  0.1207 -0.1084
23995W        W40179  17.096  16.652  13.142 -0.2932  0.3377  0.0344
23996W        W40180   5.343  13.409   1.049 -0.4746 -0.0203 -0.0036
23997W        W40181   2.094   9.927   3.558  0.0473  0.0350 -0.0704
23998W        W40182   2.203   7.482  13.797  0.0386 -0.0870  0.3362
23999W        W40183  14.922   0.563  14.501 -0.3659 -0.0758 -0.1993
24000W        W40184   5.444  10.441  15.769 -0.0703 -0.0456  0.1167
24001W        W40185   2.517  12.583  15.054  0.0852  0.1861 -0.2146
24002W        W40186  11.380   2.226  14.675  0.1425 -0.2474  0.0643
24003W        W40187  10.579  16.544   4.303  0.2558  0.2052  0.0690
24004W        W40188  17.193   9.284   4.491 -0.2852  0.3486 -0.2338
24005W        W40189  13.829   9.769  15.079  0.2172 -0.1563  0.0114
24006W        W40190   5.745  11.531  11.864 -0.2174  0.0080  0.1802
24007W        W40191  13.224   3.729  14.417 -0.0188  0.0657  0.2750
24008W        W40192   4.027  13.353   1.486  0.1255 -0.1665 -0.1788
24009W        W40193   2.050  17.414   5.651 -0.4022  0.0797 -0.0878
24010W        W40194   8.718   4.459  16.775 -0.1599  0.1882  0.0661
24011W        W40195  14.569   1.743   3.493 -0.1313  0.2951 -0.2562
24012W        W40196  14.720  15.985   1.733  0.2044  0.1743  0.2260
24013W        W40197   7.932  11.331   1.571 -0.2499 -0.1935 -0.2961
24014W        W40198   7.544   2.591   2.415 -0.0515 -0.0793  0.2613
24015W        W40199  14.301  12.121  13.360  0.1349  0.0450  0.2442
24016W        W40200   6.300  14.934  13.462  0.4708 -0.3186 -0.0995
24017W        W40201  12.478  12.013   2.976  0.3008  0.0782  0.2487
24018W        W40202   3.661  16.058   1.805  0.0450  0.0309 -0.0270
24019W        W40203   6.524   5.186  13.621 -0.1570 -0.1213 -0.1162
24020W        W40204   7.547  16.881  16.483 -0.0655 -0.0314 -0.1065
24021W        W40205  11.667  16.685   4.384 -0.0095  0.1989 -0.0409
24022W        W40206  13.610  13.305   4.832  0.2282  0.1426 -0.1939
24023W        W40207   2.290   3.543  11.913  0.0341  0.2099  0.2740
24024W        W40208   6.252  11.463  15.163 -0.0980 -0.0576  0.0119
24025W        W40209   8.886   4.842   2.424 -0.1213  0.0903  0.2598
24026W        W40210  11.862   5.158  15.975 -0.1755 -0.0275 -0.2215
24027W        W40211   2.729  14.626   2.342  0.0291 -0.0324 -0.0085
24028W        W40212  12.715   7.000   2.336 -0.2167  0.1312 -0.0061
24029W        W40213   0.553   2.392   3.238  0.2815  0.1110  0.0426
24030W        W40214   8.168   7.250   3.316  0.1292 -0.0577 -0.0301
24031W        W40215   8.133   5.877  16.088 -0.2218 -0.2530 -0.0855
24032W        W40216   3.267  14.721  11.251 -0.1062  0.1230  0.3326
24033W        W40217  11.856   8.759   5.586 -0.1593  0.1101  0.0741
24034W        W40218   3.450   8.207  11.993  0.0359 -0.3848 -0.4438
24035W        W40219   3.895   2.920   0.299  0.0475 -0.2464  0.0813
24036W        W40220   1.398  11.766  12.551  0.0600 -0.0631  0.1048
24037W        W40221   5.730   7.645  15.822 -0.0801 -0.0052  0.3572
24038W        W40222  14.778   6.568   4.466 -0.0288  0.1089  0.1085
24039W        W40223  13.222  13.395   2.443 -0.1077 -0.0898  0.3682
24040W        W40224   1.340   3.952   0.677 -0.2278 -0.1818 -0.2039
24041W        W40225   3.420   2.643   3.079  0.3151 -0.0469 -0.0354
24042W        W40226  14.153   1.840  14.379 -0.1085  0.0873  0.2460
24043W        W40227  11.066   6.457   0.586  0.3436 -0.0574 -0.1621
24044W        W40228  15.065  12.846   4.845 -0.0112 -0.2944  0.0886
24045W        W40229  16.202  15.856   4.180 -0.0284  0.1139  0.1906
24046W        W40230   4.563   0.738  11.880  0.3384 -0.3051 -0.0594
24047W        W40231   3.111  11.841   1.844  0.1595 -0.0764  0.0827
24048W        W40232  15.876   0.154   0.967  0.1377 -0.2306 -0.3173
24049W        W40233   4.394   3.048   0.507  0.4927  0.0295 -0.0538
24050W        W40234   0.749   7.053  13.301  0.5081  0.2265 -0.0302
24051W        W40235  14.190   0.285  13.938  0.0715  0.0620  0.0858
24052W        W40236  17.600  14.626   2.686  0.6279  0.0026  0.0383
24053W        W40237   3.220  15.996   2.782  0.2675  0.2122  0.2919
24054W        W40238   2.171   8.087   5.200 -0.0612  0.0524  0.0316
24055W        W40239  13.401  10.950  16.659  0.1663 -0.1061  0.1530
24056W        W40240   1.520   6.945  15.030 -0.1233 -0.0536 -0.1003
24057W        W40241  14.396  14.627   3.861  0.0955 -0.1709 -0.1706
24058W        W40242   1.791  13.310  15.181 -0.2245 -0.1941 -0.2734
24059W        W40243   3.360  10.131   0.148  0.2049  0.1764 -0.0711
24060W        W40244  17.743   3.566   3.534  0.3840 -0.0001  0.1881
24061W        W40245   4.139  10.763  14.975 -0.3160 -0.0428 -0.0923
24062W        W40246  13.215  17.160   3.421 -0.0687 -0.2019  0.1148
24063W        W40247  14.319  14.375  15.518 -0.0183  0.1138 -0.0069
24064W        W40248  10.315  10.404   5.779 -0.0848  0.3912  0.0183
24065W        W40249  12.885   6.288   3.838 -0.0191  0.1944  0.1147
24066W        W40250   7.087   9.850  12.903 -0.2920 -0.1872 -0.0264
24067W        W40251  13.474  11.946  14.970 -0.1766 -0.1963 -0.1742
24068W        W40252   9.554   2.566   1.377 -0.1363  0.1631 -0.1157
24069W        W40253   2.864   6.811   6.299  0.2335  0.1442 -0.0681
24070W        W40254  14.948   0.393   2.069 -0.1755  0.0712  0.0466
24071W        W40255   8.249   2.052   5.992  0.0566  0.0935  0.0128
24072W        W40256   2.677  13.757   1.428  0.0407  0.1154 -0.1870
24073W        W40257  16.713   7.482  13.223  0.3066 -0.0184  0.0092
24074W        W40258   8.114  12.732   5.440 -0.0714  0.0032 -0.3236
24075W        W40259  14.538   2.030  16.326  0.1438 -0.0444  0.3070
24076W        W40260  10.442  14.458  12.401 -0.0866  0.0356  0.2341
24077W        W40261   5.760   9.606  13.471  0.3465 -0.1018  0.1232
24078W        W40262   1.970   8.336   1.271  0.1455  0.3155  0.0255
24079W        W40263  15.281   6.323  12.609  0.1165 -0.2176  0.0258
24080W        W40264  12.784   4.898  11.932 -0.2661  0.1177  0.1088
24081W        W40265  13.195   6.737   5.113 -0.1238 -0.1887 -0.0954
24082W        W40266  16.082  10.249  10.928  0.1484  0.1102 -0.0450
24083W        W40267  16.166   9.472  15.157 -0.0327  0.1668 -0.3708
24084W        W40268   6.202   3.949  12.521 -0.1363  0.2087  0.1821
24085W        W40269  11.466  17.153   0.323 -0.1825  0.0104 -0.1916
24086W        W40270  12.166   6.686   4.953  0.1620  0.0095 -0.0578
24087W        W40271   9.004   4.770  13.205  0.1701  0.3379  0.0222
24088W        W40272   9.966  10.977   3.777 -0.2805  0.0495  0.2601
24089W        W40273   3.409  14.552  15.162  0.0737  0.1924  0.0585
24090W        W40274   3.983   4.741  12.838 -0.1275 -0.1399  0.4122
24091W        W40275  17.717  15.224  14.037  0.0520 -0.0916 -0.1679
24092W        W40276   1.080   8.168   4.332  0.0425 -0.0883  0.1093
24093W        W40277  15.933   1.767   3.211  0.0768  0.0048  0.0612
24094W        W40278  12.284   2.845  16.478 -0.2019  0.0700  0.2077
24095W        W40279  16.461  10.402  12.785 -0.2147  0.1068 -0.4479
24096W        W40280  12.705  11.043  15.413  0.0443  0.2110 -0.1166
24097W        W40281   9.069  10.247  15.290  0.0215 -0.0378  0.0860
24098W        W40282  17.507   0.418   2.597 -0.3366  0.1634  0.2598
24099W        W40283  14.603   1.515   5.413 -0.1108  0.1370 -0.2278
24100W        W40284  15.401   4.982  12.912 -0.0203 -0.0906  0.0529
24101W        W40285   8.204  13.153  12.670 -0.2107  0.1637  0.0020
24102W        W40286   4.974   9.802  12.599 -0.0376 -0.1993 -0.2838
24103W        W40287  13.310  14.006   0.838 -0.0694 -0.2133  0.0203
24104W        W40288   8.331  12.847  11.760  0.0106 -0.1636  0.0360
24105W        W40289  11.317  10.705   0.117 -0.3311  0.1387  0.2322
24106W        W40290   6.203  11.820   0.533 -0.0801 -0.0863 -0.2230
24107W        W40291  14.175  16.728  12.383  0.0659  0.1070 -0.1553
24108W        W40292   3.965  14.867   4.688 -0.1378 -0.1353 -0.2854
24109W        W40293   6.354   9.341   3.932  0.1258 -0.5110 -0.2407
24110W        W40294   6.675  13.493  15.190  0.1446 -0.3483  0.0555
24111W        W40295  11.020   2.992   2.045 -0.2869 -0.2150  0.0606
24112W        W40296  12.138  17.763   2.110 -0.1503 -0.1348  0.3996
24113W        W40297   9.703   7.109   1.959  0.3125  0.0330  0.0594
24114W        W40298   0.559  11.134  16.784 -0.0176  0.0173  0.0542
24115W        W40299  15.219  14.009   0.518  0.0353 -0.1678  0.1145
24116W        W40300   2.279  11.263   2.087 -0.1645 -0.2324 -0.1130
24117W        W40301   2.293   1.085   0.417  0.0337 -0.2335 -0.0925
24118W        W40302   1.523   6.995   3.412 -0.0668  0.0284 -0.0429
24119W        W40303   1.518   7.382  13.178 -0.0953 -0.1304 -0.3449
24120W        W40304  17.401   6.439   4.945  0.2101  0.1746 -0.1261
24121W        W40305  17.056   1.820  15.644  0.1005 -0.0679 -0.2768
24122W        W40306   5.175  10.711  12.663  0.1590  0.0552  0.1022
24123W        W40307   3.631  12.034  14.140  0.2127  0.3088 -0.3652
24124W        W40308   9.426  15.309   4.617 -0.1919 -0.0139  0.0332
24125W        W40309  13.217   9.425  15.564  0.0170 -0.1510  0.1473
24126W        W40310   3.587   9.939   1.762  0.0258  0.1063 -0.0013
24127W        W40311  10.612   0.294   0.100  0.1522  0.0232 -0.0107
24128W        W40312   2.549   2.440   5.119  0.0674 -0.1403  0.2982
24129W        W40313  11.605   8.417   5.104 -0.0561  0.0210  0.1741
24130W        W40314  12.802   0.169   0.545 -0.2079  0.1293 -0.0390
24131W        W40315  17.641  11.358  16.372 -0.1086 -0.3635 -0.0780
24132W        W40316   5.396   8.472   0.535 -0.1122  0.1499  0.0024
24133W        W40317   6.529  13.659   1.586  0.1168 -0.1030 -0.1162
24134W        W40318   2.620  14.023  14.263  0.1612 -0.2384  0.0642
24135W        W40319   5.348  11.015   1.771 -0.0691 -0.0704  0.0437
24136W        W40320  12.843  10.504   0.698  0.3834  0.2217 -0.1045
24137W        W40321   8.193   3.345   1.111  0.0621  0.0685 -0.1459
24138W        W40322  13.025  14.631   4.360  0.0809  0.1316 -0.1112
24139W        W40323   8.740   1.391  12.416  0.0418  0.0326  0.0267
24140W        W40324  14.625  16.182  12.063  0.1444 -0.0727  0.1939
24141W        W40325   8.291  14.688   2.020  0.1681  0.3077  0.0428
24142W        W40326   9.224   4.069  15.347 -0.1471  0.2710  0.0700
24143W        W40327   3.559   5.293   2.079 -0.0373 -0.1138 -0.0263
24144W        W40328  13.398  12.107   5.547  0.1324  0.1277 -0.0660
24145W        W40329  12.800  15.066   4.259  0.0315  0.2261 -0.2293
24146W        W40330   0.657  14.058  15.231  0.1688  0.1244 -0.1098
24147W        W40331   5.991  17.297   4.436 -0.0118  0.3211  0.1029
24148W        W40332   7.277  13.092   2.901 -0.1409 -0.0426 -0.2891
24149W        W40333  16.837   6.727   6.078 -0.0086  0.1912  0.0242
24150W        W40334   4.940  10.134  11.805 -0.1394 -0.0827  0.0327
24151W        W40335   8.852   9.393   3.171  0.0928 -0.1069  0.2789
24152W        W40336   6.495   5.167  14.356  0.0104  0.0843  0.5676
24153W        W40337   5.253  12.820  14.914 -0.1099 -0.0070 -0.1329
24154W        W40338  12.057   9.030  14.895  0.2750 -0.0040 -0.0573
24155W        W40339  15.247   9.487   4.328  0.0042 -0.5077 -0.0255
24156W        W40340  12.785  17.291   1.872  0.0015  0.0487 -0.2900
24157W        W40341  11.236   5.497   0.802  0.3423  0.0920 -0.0222
24158W        W40342  16.526  14.459   1.411  0.5626 -0.1398  0.0745
24159W        W40343  11.502  14.626   4.329 -0.3371  0.2424 -0.1593
24160W        W40344   8.889   3.414  13.939  0.2529  0.2678 -0.0569
24161W        W40345   6.685   6.245  14.046  0.0147  0.1245  0.1702
24162W        W40346   1.877   9.503   2.342 -0.0063 -0.1630  0.0304
24163W        W40347   1.767  13.333   0.609  0.0484  0.0862  0.0009
24164W        W40348   2.540  15.452  14.236 -0.1426  0.2546 -0.0846
24165W        W40349   7.886  17.392   1.350 -0.0688 -0.1095 -0.1465
24166W        W40350  14.045  14.996  14.018 -0.5286 -0.0122 -0.1198
24167W        W40351  11.341  15.790   6.562  0.4125 -0.1114  0.0250
24168W        W40352   7.588  15.623  15.444 -0.0905  0.2491 -0.0805
24169W        W40353  17.603  14.849   1.835 -0.2528  0.2161 -0.1104
24170W        W40354   0.198  15.090  12.126 -0.0415 -0.0995  0.1459
24171W        W40355   2.541  10.527  16.621 -0.0142 -0.2749  0.1915
24172W        W40356   6.760   4.884   5.409  0.0234 -0.1076 -0.0517
24173W        W40357   1.295   1.937   0.136  0.2751 -0.0947  0.0204
24174W        W40358  10.354  10.151  16.344  0.1504  0.2016 -0.0330
24175W        W40359   1.709   9.709   0.130  0.1347  0.3522  0.1803
24176W        W40360  12.055  14.526  12.999  0.1802  0.1039  0.1105
24177W        W40361  11.269   2.789  13.376  0.0226  0.2161 -0.1743
24178W        W40362  10.572  17.159  15.598 -0.1247 -0.2450 -0.1396
24179W        W40363   6.679  10.175   0.028 -0.0241  0.2617 -0.0292
24180W        W40364   0.305  16.632  15.817  0.1751 -0.1448  0.0179
24181W        W40365  10.243  12.866  13.996  0.4341 -0.1219  0.1142
24182W        W40366  16.188   8.924   2.720 -0.1808  0.0798 -0.2569
24183W        W40367  17.503  12.586  15.145 -0.0305 -0.0831 -0.2259
24184W        W40368  17.542  16.569  10.990 -0.1041 -0.2709  0.1016
24185W        W40369  16.964   8.278  10.675  0.0418 -0.0913  0.2152
24186W        W40370   5.678  16.536   0.286  0.2947  0.0454  0.0661
24187W        W40371  14.685  12.760   0.658 -0.0604  0.0746  0.1796
24188W        W40372  10.992   0.409  12.150  0.1923 -0.3292  0.2162
24189W        W40373   9.936   5.543   3.284 -0.1187  0.3308  0.0732
24190W        W40374   6.944  12.275  11.941  0.0460 -0.1556 -0.0669
24191W        W40375  14.924  17.604  13.753 -0.4389 -0.1329 -0.1106
24192W        W40376   9.895   7.956  15.280 -0.1079 -0.1231 -0.0693
24193W        W40377   7.128   9.669   2.221  0.1170 -0.1583 -0.2265
24194W        W40378  11.155  15.446   0.019 -0.2441  0.0308 -0.7325
24195W        W40379   9.873   9.044   1.609  0.3669 -0.3274  0.4022
24196W        W40380   8.246  12.239  15.222 -0.0727  0.3081  0.0761
24197W        W40381  17.468  10.743  12.949 -0.1246 -0.1309 -0.2598
24198W        W40382   1.460  15.075  15.971 -0.1641  0.1623 -0.1757
24199W        W40383   4.482   6.150  13.773  0.1544  0.1492  0.0196
24200W        W40384   9.800  17.170  13.544  0.2918 -0.2568 -0.2598
24201W        W40385  11.517   7.800  16.477  0.1546 -0.0467  0.1962
24202W        W40386   2.469  10.155   2.342 -0.1676 -0.2042  0.2083
24203W        W40387  14.205  11.621  16.470  0.1774 -0.2785 -0.1067
24204W        W40388   4.876   5.353   5.112  0.1107 -0.2354 -0.0891
24205W        W40389   1.737   7.812  14.806  0.0987 -0.1611 -0.0860
24206W        W40390   5.156   0.136   2.667 -0.2089 -0.1662  0.0890
24207W        W40391   8.693   2.167  13.728 -0.3486  0.1118  0.0775
24208W        W40392  12.725  11.215   2.401 -0.0658 -0.1276 -0.3988
24209W        W40393   9.474   3.847   5.034  0.2323 -0.0142 -0.0604
24210W        W40394  10.326  11.816   4.200  0.1796 -0.0911  0.3067
24211W        W40395  12.513   7.913   3.184  0.0168 -0.0859 -0.2260
24212W        W40396   2.105   8.514  12.997 -0.1826  0.2577 -0.0479
24213W        W40397  13.493  16.157  13.864  0.2366  0.4323 -0.4868
24214W        W40398   2.993   1.714   3.681  0.1974 -0.0900  0.0724
24215W        W40399   9.310   8.759   2.641 -0.0697  0.1149  0.1085
24216W        W40400   4.102   3.000   2.405  0.3846  0.2122  0.1481
24217W        W40401   8.018  16.152   3.150  0.0838  0.2430  0.0687
24218W        W40402   4.536  12.034  12.295 -0.0552 -0.1335  0.2847
24219W        W40403  12.700  15.200   6.149 -0.1054  0.2296  0.0379
24220W        W40404   5.897   5.311   3.739  0.0897  0.1434  0.1644
24221W        W40405   5.813  16.966   2.128 -0.1436 -0.1786 -0.0671
24222W        W40406   3.266   3.397  14.721  0.2201  0.1317 -0.0980
24223W        W40407  17.833   3.245   5.123 -0.2413 -0.2945 -0.1458
24224W        W40408   8.621   1.826  12.192 -0.3982  0.2278 -0.1706
24225W        W40409  17.530  17.796   3.052 -0.0250 -0.0279  0.0128
24226W        W40410  17.220  17.402  14.842 -0.0296 -0.3790  0.3327
24227W        W40411  17.865  14.702   4.917  0.0073  0.0446  0.0081
24228W        W40412   9.670   2.808   4.717 -0.1143 -0.0719 -0.3914
24229W        W40413   8.710  12.537   4.284  0.0465 -0.0169  0.1260
24230W        W40414   2.939   8.510   6.350 -0.0159  0.0984  0.2008
24231W        W40415   6.364   7.335  16.561  0.3316 -0.0759 -0.0732
24232W        W40416  13.671  10.716   5.572 -0.0420 -0.0763 -0.0137
24233W        W40417  10.139   7.445  12.776 -0.4425 -0.0489 -0.1377
24234W        W40418  10.457  11.844   5.485 -0.1515  0.1933  0.1314
24235W        W40419   9.338   4.763   4.922  0.0620  0.1316 -0.1062
24236W        W40420  11.608   8.115   3.863 -0.0378  0.1156  0.0020
24237W        W40421   0.118   4.387   3.078  0.3293  0.1338 -0.0839
24238W        W40422   5.286  10.614   2.764 -0.2439  0.0610  0.0346
24239W        W40423   4.738   2.342   3.997  0.1783  0.1614  0.2636
24240W        W40424  10.097  15.334   2.724 -0.1906  0.0420  0.0538
24241W        W40425  13.170   7.928  12.249 -0.0154  0.0386 -0.0625
24242W        W40426   9.457   5.004  16.051 -0.1605  0.1050  0.0246
24243W        W40427   8.078  17.716  16.431  0.1652  0.2216  0.0960
24244W        W40428  15.629  11.106   6.472  0.0387 -0.2205  0.1461
24245W        W40429   6.835  11.594   0.494 -0.1632 -0.1501  0.0553
24246W        W40430   8.935   7.418   1.271  0.0423 -0.1665  0.0084
24247W        W40431   2.288   6.074  15.646  0.0201  0.0466  0.0090
24248W        W40432  11.542  11.183  15.813 -0.1955  0.0385 -0.0776
24249W        W40433   7.986   7.620   6.284  0.1952  0.1326 -0.3357
24250W        W40434   9.842  13.028   5.011  0.0869 -0.1160  0.0475
24251W        W40435   4.633   9.111   4.478 -0.1242  0.1098  0.0811
24252W        W40436   9.001  11.429   3.015  0.0263  0.5188 -0.0521
24253W        W40437   0.303  10.965   5.597 -0.0329  0.1847  0.0493
24254W        W40438   2.351  15.298   0.801 -0.0862  0.2704 -0.2947
24255W        W40439   5.793   0.157   1.292 -0.3597  0.0887  0.2101
24256W        W40440   7.772  14.535  14.954 -0.1477  0.0880 -0.0013
24257W        W40441   1.633  13.260   3.678 -0.0081  0.1236 -0.1312
24258W        W40442  11.330   9.149  16.809  0.2955  0.2148  0.2438
24259W        W40443   2.847   1.276   3.494  0.0030 -0.1592 -0.0665
24260W        W40444  10.678   5.399   5.007  0.1595 -0.0448  0.0213
24261W        W40445   7.750   2.977   1.743 -0.0923  0.1333 -0.1974
24262W        W40446   6.727  15.582  13.083  0.0769 -0.1811  0.0661
24263W        W40447  17.768   8.283   0.851  0.2115  0.0659 -0.0754
24264W        W40448   3.418  13.864   2.244  0.0557  0.0968 -0.3047
24265W        W40449  17.024   5.034  13.268 -0.0092 -0.2454 -0.3149
24266W        W40450   7.782  11.996   0.528  0.2022  0.0709  0.1732
24267W        W40451   5.998   3.535   4.785  0.1980 -0.1386  0.3241
24268W        W40452   7.360  12.492   5.520 -0.1923 -0.0495  0.0029
24269W        W40453   8.941   0.147  16.453  0.3024 -0.0072  0.1531
24270W        W40454  16.232   0.881  13.747  0.2240 -0.4074 -0.1625
24271W        W40455   2.002   9.668  16.216  0.0956  0.3101 -0.1537
24272W        W40456   4.105  14.237   1.847 -0.0537 -0.1669 -0.0326
24273W        W40457   6.697  14.029  16.347  0.1733 -0.2471  0.0766
24274W        W40458   3.947   0.633   3.965 -0.1824  0.1080  0.0723
24275W        W40459   9.011  17.515   0.374  0.0734  0.2472  0.0067
24276W        W40460   3.341   8.357  16.054  0.3658 -0.1548  0.0405
24277W        W40461  11.287   7.583  16.070 -0.0125  0.0798 -0.3176
24278W        W40462   0.817  12.347  12.526  0.1482 -0.2604 -0.1870
24279W        W40463  11.985  17.234   0.309  0.0436  0.4049  0.0783
24280W        W40464   6.518   4.239  16.650  0.0062 -0.1671  0.1406
24281W        W40465   2.109  17.062   4.765  0.2135 -0.0548  0.2740
24282W        W40466   8.889   0.067  12.943  0.1416  0.0963  0.0702
24283W        W40467  13.778  11.619   3.844 -0.1294 -0.0989 -0.2129
24284W        W40468  10.802   3.490  13.444  0.2578  0.1340 -0.3725
24285W        W40469   0.222  12.708   2.271 -0.2013 -0.0143  0.1997
24286W        W40470   7.183  13.261   0.960  0.0858  0.4682  0.1142
24287W        W40471  15.450  14.152  12.960 -0.0812  0.0409  0.2680
24288W        W40472   6.437  11.500   0.056  0.3669 -0.0569  0.0277
24289W        W40473  13.996   3.765   3.265  0.2662 -0.0215 -0.1304
24290W        W40474  12.302   8.750   5.889 -0.1926 -0.0506  0.0926
24291W        W40475  16.182  11.970   3.631 -0.0408  0.1892 -0.1622
24292W        W40476  11.934   5.337  15.527  0.0146  0.0332  0.0947
24293W        W40477  13.825   6.766  15.245 -0.1832 -0.1401  0.0575
24294W        W40478  17.556  10.372  12.594  0.1632  0.0717 -0.1180
24295W        W40479   3.791   1.625   2.130 -0.1760  0.1635 -0.0346
24296W        W40480   4.610   6.229   4.581 -0.3114  0.0496 -0.1921
24297W        W40481   7.033  12.153   1.633 -0.0515 -0.0377  0.1349
24298W        W40482  16.440   0.028   1.567  0.1809 -0.0582  0.0133
24299W        W40483  10.654   0.861   4.877 -0.2771 -0.2545 -0.2719
24300W        W40484  16.642   6.822   0.694 -0.0453  0.0214  0.1166
24301W        W40485   4.680   1.191  14.812  0.0359 -0.4338 -0.0192
24302W        W40486  12.625  10.467   6.008 -0.0950  0.0106  0.1944
24303W        W40487   9.685  16.699  12.422  0.1956  0.2149 -0.0399
24304W        W40488   0.507   9.814  13.978  0.2050 -0.2029 -0.0229
24305W        W40489   8.897   2.886   4.166  0.0234 -0.3070  0.0721
24306W        W40490   0.987   5.014   1.700  0.0425  0.0971  0.0125
24307W        W40491  16.642   5.911   4.737  0.1258  0.0980 -0.1079
24308W        W40492  10.831  12.244  12.620  0.1427  0.1207  0.2751
24309W        W40493  12.953   3.349  14.251 -0.1281  0.0521 -0.0679
24310W        W40494   4.471  11.493   2.025  0.0669  0.2067 -0.1149
24311W        W40495  11.096   1.284   4.778 -0.2684 -0.0445  0.0889
24312W        W40496  17.434   4.238   5.874 -0.3273  0.2147  0.0022
24313W        W40497   8.100  17.438   2.351 -0.2573 -0.0418  0.1277
24314W        W40498   6.844   5.618  16.848 -0.1566  0.1994  0.0181
24315W        W40499   1.160   9.280   3.289 -0.1129  0.1313 -0.0847
24316W        W40500  12.877   0.413  12.164 -0.1184 -0.1761  0.0773
24317W        W40501  15.650   1.130  12.317  0.1457 -0.1066  0.1856
24318W        W40502  13.365   7.245   4.446 -0.1186  0.1861  0.0548
24319W        W40503  16.804   0.090   0.954 -0.2094 -0.2976  0.0063
24320W        W40504  16.470  15.399  13.424  0.0620  0.2105 -0.1202
24321W        W40505   9.521   6.327  15.963  0.0096  0.0101 -0.5858
24322W        W40506   5.348   1.741  15.467  0.1477  0.1796 -0.1683
24323W        W40507  12.026   7.110   4.735  0.1038  0.0031  0.2447
24324W        W40508   4.984  11.489  16.805 -0.1729 -0.0473  0.2438
24325W        W40509  13.530   6.120   1.176  0.0616 -0.2509 -0.0787
24326W        W40510  17.578   3.245  16.075 -0.0973  0.0341  0.0987
24327W        W40511  15.601  14.638   0.235 -0.0101  0.0608 -0.0962
24328W        W40512   1.181  15.754  12.992  0.0891  0.1769  0.2159
24329W        W40513   8.023  13.702   0.058 -0.1183 -0.4769 -0.2788
24330W        W40514   7.999   9.196   4.981  0.3295 -0.0749 -0.2906
24331W        W40515  10.501  12.010  14.585 -0.3681 -0.1017 -0.0673
24332W        W40516  10.211  10.955   5.610  0.1742 -0.1566 -0.1927
24333W        W40517  12.259   1.360  12.922 -0.1410 -0.3122 -0.5240
24334W        W40518   3.574   7.585  15.911 -0.4519 -0.0503 -0.1633
24335W        W40519   3.667   9.983   4.321 -0.2502 -0.0511  0.0031
24336W        W40520   1.257   7.349   3.860 -0.2322 -0.1754  0.3543
24337W        W40521   4.734   5.309  15.852  0.0900  0.1857 -0.0402
24338W        W40522  15.499   1.379  13.543  0.0575  0.1728  0.2032
24339W        W40523   1.872  11.372   4.696  0.1771 -0.0550  0.1409
24340W        W40524   3.694   1.204   2.434 -0.0751 -0.0613  0.0340
24341W        W40525   9.155  16.897   1.109  0.1280  0.2102  0.1848
24342W        W40526   2.272  14.871   3.980 -0.0645 -0.1890  0.3046
24343W        W40527   4.780   3.017   2.659 -0.2194  0.0335  0.0548
24344W        W40528   0.390   7.453   1.079  0.0373  0.2333 -0.1828
24345W        W40529   4.026   4.927  13.303 -0.2193 -0.1480 -0.0901
24346W        W40530   4.083  12.136   4.189 -0.0939  0.1264  0.0014
24347W        W40531  13.803  15.185   5.419 -0.1874 -0.1810 -0.2987
24348W        W40532  13.638  15.665   3.201 -0.1288  0.0381  0.0091
24349W        W40533  12.124   3.669  14.445  0.0555 -0.1327  0.0867
24350W        W40534  11.518  14.969  13.565  0.2278 -0.1268  0.0081
24351W        W40535  15.885   6.451   5.190  0.1955 -0.0716  0.0742
24352W        W40536  13.988  14.020  16.921  0.0726  0.2914 -0.0427
24353W        W40537   3.270  11.758  16.345  0.0711  0.0599 -0.0915
24354W        W40538  12.704  12.540   2.062  0.1355 -0.1960 -0.2348
24355W        W40539   7.195  14.311  12.907  0.0838 -0.1536 -0.1869
24356W        W40540  11.922   7.012  13.586  0.2064 -0.0671  0.2657
24357W        W40541   4.968   1.471  13.827  0.2079 -0.1001  0.0051
24358W        W40542   3.281   1.623  14.249  0.0834  0.0774  0.0504
24359W        W40543  16.600   7.054  13.504 -0.1611 -0.0296  0.2777
24360W        W40544  11.957   1.031  16.172 -0.0816 -0.0705  0.1894
24361W        W40545   3.515   4.198   4.773  0.0972  0.0573  0.0613
24362W        W40546  16.428   8.915  13.744  0.1480  0.0466  0.1088
24363W        W40547  13.388  13.953   3.747 -0.0395 -0.0681  0.1305
24364W        W40548   8.026   5.651  13.890  0.2096 -0.0004 -0.1262
24365W        W40549  16.463  12.494   0.917 -0.0003 -0.2077 -0.0994
24366W        W40550  11.781  11.533  15.236  0.1685 -0.0032  0.0547
24367W        W40551  17.705   2.913   3.520  0.0481  0.2107  0.1551
24368W        W40552  12.601   7.126   5.861  0.0783  0.0931  0.2329
24369W        W40553  10.523   8.094   0.072  0.2786 -0.0276  0.3997
24370W        W40554   2.945  12.358   0.003  0.0572 -0.0401  0.0914
24371W        W40555  11.878  10.288   1.681  0.1233  0.4832 -0.2933
24372W        W40556   5.188   2.477  15.969  0.3892 -0.1518 -0.3148
24373W        W40557   1.399   6.588  15.452 -0.2512  0.1511 -0.3327
24374W        W40558   0.099   6.513   4.143  0.1127  0.2053  0.1454
24375W        W40559   2.747   9.095  14.400  0.1638 -0.2123 -0.1378
24376W        W40560   0.245  13.899   5.343 -0.0404 -0.0588  0.0603
24377W        W40561   1.454   1.056  14.846  0.0251 -0.3802 -0.2778
24378W        W40562  12.047   0.507  12.389  0.2081  0.0688 -0.2046
24379W        W40563  13.723   1.533  16.011 -0.1344  0.1141 -0.1447
24380W        W40564   7.759  11.196   2.586  0.1137  0.2162  0.0242
24381W        W40565   0.120   4.915   2.026  0.0096  0.0414  0.0804
24382W        W40566  15.139   5.220  14.769 -0.0160  0.1216 -0.1134
24383W        W40567  11.749   8.114   1.687 -0.2829 -0.1906  0.2128
24384W        W40568  16.662   7.200   3.189 -0.3004  0.1940 -0.0305
24385W        W40569   5.837   9.759   1.546 -0.1472  0.0433  0.1230
24386W        W40570  15.245   6.316   0.582 -0.0667 -0.1588 -0.1694
24387W        W40571   5.363  11.306  13.772  0.0725 -0.2551 -0.1389
24388W        W40572   2.331   2.785   5.496  0.2073  0.2174 -0.0780
24389W        W40573  13.580  15.133   1.451  0.0779  0.0506  0.0088
24390W        W40574   8.200  11.668  15.186  0.3142 -0.1112  0.0888
24391W        W40575   3.330  15.592   3.567 -0.2348 -0.0119  0.2385
24392W        W40576  12.798   7.179   3.705 -0.0488  0.1462 -0.0754
24393W        W40577  11.436  10.519  13.345  0.1175 -0.0313  0.0185
24394W        W40578   2.579   1.963   5.329 -0.2893 -0.2774 -0.1332
24395W        W40579  10.255   2.604   0.218 -0.1195  0.1301  0.2467
24396W        W40580   6.205  15.975  13.513  0.0737 -0.1114  0.0590
24397W        W40581  14.416  10.823  13.996  0.1047 -0.0047 -0.0946
24398W        W40582   9.512   0.227  15.448 -0.2107  0.0585 -0.1831
24399W        W40583  17.735   2.749  14.641 -0.0689  0.1301  0.1538
24400W        W40584  16.738   2.517   5.256 -0.0169 -0.1382  0.0737
24401W        W40585  15.052  14.498   2.448  0.4401 -0.4445 -0.0470
24402W        W40586   2.670  13.763  13.520  0.2171  0.1445  0.0315
24403W        W40587  11.422   4.019  16.752 -0.0215 -0.1959  0.1004
24404W        W40588   4.184   7.398  14.728 -0.1019  0.0801 -0.0423
24405W        W40589   9.236  10.478  12.374 -0.0646  0.2653  0.1484
24406W        W40590   5.197   6.246  16.867  0.1442  0.4684  0.2670
24407W        W40591   5.714   0.801   4.225 -0.0694  0.0539 -0.0724
24408W        W40592   5.472  14.930  13.859  0.0719  0.2037  0.1650
24409W        W40593   1.909   3.574  12.209  0.1697  0.0087  0.1054
24410W        W40594  11.868   9.946  13.657  0.0081 -0.1884 -0.0437
24411W        W40595  15.849   9.386   5.766  0.0036  0.1143 -0.1317
24412W        W40596   3.817  13.224   3.289 -0.2213  0.0075  0.1312
24413W        W40597   1.353  14.655   3.467  0.1153  0.0747 -0.0190
24414W        W40598  17.009   9.429  11.223  0.0826 -0.1272  0.2178
24415W        W40599  13.277  16.651  16.711 -0.0982 -0.1983  0.3737
24416W        W40600  15.099   5.590   5.627 -0.0926  0.0474 -0.0479
24417W        W40601   8.290  14.174  11.858  0.1126  0.0213  0.0546
24418W        W40602  14.492  11.763   6.133 -0.0143 -0.3629 -0.3279
24419W        W40603   2.606   6.279  14.456  0.0040  0.2775 -0.3357
24420W        W40604  17.526  16.359  13.652 -0.3119 -0.3325 -0.4022
24421W        W40605   9.110   6.995  10.366  0.0464 -0.1806  0.0107
24422W        W40606   7.363  17.342  13.359 -0.1474  0.2676 -0.1839
24423W        W40607   1.930   3.830   4.574 -0.0064 -0.1624 -0.1326
24424W        W40608   6.950  12.264  13.797 -0.2331 -0.1497  0.0795
24425W        W40609   5.447  10.546   2.261 -0.1715  0.0189 -0.0379
24426W        W40610   9.437   0.687  15.240  0.2167 -0.0797 -0.0856
24427W        W40611  12.769   6.538  14.652  0.0066  0.0265 -0.1728
24428W        W40612  11.844   1.163  12.245  0.0597  0.0776  0.0877
24429W        W40613  16.041  13.329   3.822 -0.0114  0.2007  0.0208
24430W        W40614   4.343   1.414  16.363  0.2390  0.0215 -0.0751
24431W        W40615   0.570   1.787  15.228  0.0128  0.0772 -0.2570
24432W        W40616   6.327  17.622   1.772 -0.2161 -0.0859 -0.3062
24433W        W40617  14.532   7.495   0.646 -0.0559 -0.1572 -0.1215
24434W        W40618   3.641   6.878   3.230  0.1152 -0.0145 -0.0926
24435W        W40619  13.332  11.840  16.842 -0.0443 -0.2127 -0.1935
24436W        W40620   9.591   5.025   0.417  0.0139  0.0274 -0.1535
24437W        W40621  10.766  14.424   3.568 -0.1052 -0.0626  0.1419
24438W        W40622   7.066  17.389   4.728 -0.3452  0.1251 -0.2260
24439W        W40623   9.191  13.089   0.759 -0.0531  0.0636 -0.0552
24440W        W40624  14.001   6.306  15.471 -0.2646  0.1596  0.2174
24441W        W40625   7.543  11.499   0.782  0.2127  0.2135  0.0511
24442W        W40626  15.391   9.078  14.779 -0.3409  0.1604  0.2061
24443W        W40627   0.964   2.756   2.437 -0.1734 -0.3356  0.1973
24444W        W40628   2.446   4.560   1.789  0.0076 -0.1786 -0.0268
24445W        W40629  16.322   0.500  12.759  0.1171  0.1894  0.1210
24446W        W40630   3.239   9.094   1.409  0.3238 -0.1567  0.2211
24447W        W40631   8.923   1.275  13.312 -0.0861  0.0456 -0.0185
24448W        W40632  17.636   3.763  12.136  0.1572  0.0892 -0.1056
24449W        W40633  14.424   9.344   4.107  0.0992  0.0063  0.0913
24450W        W40634   3.366   9.383  13.585  0.1045 -0.1016  0.0940
24451W        W40635   0.698   0.480   0.184  0.1181  0.0432  0.0108
24452W        W40636   4.828   9.714   3.566  0.3421 -0.0176  0.1187
24453W        W40637   7.562  17.268   2.634  0.1224  0.5404 -0.0611
24454W        W40638  15.584   3.537   0.300 -0.0279  0.1011  0.1671
24455W        W40639   6.118   6.192   4.256  0.0035  0.2753 -0.2069
24456W        W40640   8.224   7.259  16.009 -0.2315 -0.1516  0.1892
24457W        W40641  16.642  15.071   3.418 -0.2447 -0.1437  0.0536
24458W        W40642  15.184   7.643   2.220 -0.1661  0.0950 -0.0054
24459W        W40643  10.261   7.969   5.893 -0.3964  0.3058 -0.2227
24460W        W40644  17.715  11.884   3.040 -0.4204  0.1474 -0.1121
24461W        W40645  10.066   8.235   0.729 -0.1263 -0.0663 -0.0626
24462W        W40646  16.727  11.090   0.870 -0.1668 -0.0245  0.1721
24463W        W40647   3.795   7.626   2.625  0.2077  0.0638  0.1357
24464W        W40648  16.884  14.301   0.276  0.0756  0.4375  0.0706
24465W        W40649   1.670   8.979  13.917  0.1375 -0.0643 -0.1204
24466W        W40650  15.622  15.840  16.938 -0.0437  0.1830  0.3093
24467W        W40651  17.776  17.456   4.100 -0.1145  0.3092  0.2417
24468W        W40652   5.656  17.639  16.704  0.1409 -0.0609 -0.3316
24469W        W40653   9.634  12.464   3.993  0.1524 -0.1326  0.0819
24470W        W40654  14.498  11.287  14.199 -0.1260 -0.1593 -0.0617
24471W        W40655  11.546   1.035  13.994  0.1210 -0.1536 -0.1329
24472W        W40656  13.025  10.280   0.275  0.2573 -0.0732  0.1891
24473W        W40657   3.759   6.141   2.606 -0.1813  0.0616 -0.0283
24474W        W40658   1.729   4.866  16.726  0.1192 -0.2842  0.0302
24475W        W40659   3.683  11.495   1.094 -0.1089  0.2351  0.0103
24476W        W40660  13.933   5.546  13.515  0.0078  0.3204 -0.0114
24477W        W40661   7.157  14.708   5.202  0.3906 -0.0828  0.0758
24478W        W40662  13.575   1.432  12.609  0.0426  0.0901  0.1880
24479W        W40663   4.033   0.670   0.030  0.2613  0.1653 -0.0028
24480W        W40664   6.090   8.756   4.212  0.3037  0.0152 -0.0614
24481W        W40665  17.396  12.545   2.689  0.2051  0.2681  0.1796
24482W        W40666   7.984   1.716  11.515  0.1526  0.0156  0.0866
24483W        W40667   2.626  11.876   2.042  0.1143  0.1866  0.1520
24484W        W40668   2.693   0.336  16.026 -0.0694  0.1027 -0.0938
24485W        W40669   2.631   5.762  14.382  0.2206 -0.1341 -0.1842
24486W        W40670   6.582  13.801   0.654  0.1558 -0.2276 -0.0488
24487W        W40671  10.694   2.409   0.338 -0.2821 -0.1501  0.0696
24488W        W40672   6.966  16.627   1.463 -0.1293 -0.2511  0.1092
24489W        W40673  11.024   6.961  14.015 -0.0796  0.2102  0.1157
24490W        W40674  13.512  12.330  14.403 -0.0700 -0.0213 -0.1325
24491W        W40675   4.820   5.761  12.901  0.0999 -0.3866 -0.3514
24492W        W40676   4.501   5.830  16.594  0.2424 -0.0226 -0.0614
24493W        W40677   9.903  12.657  12.142  0.3111  0.1051  0.2593
24494W        W40678  10.038  17.417  16.061 -0.4782  0.0516  0.0984
24495W        W40679   7.104  16.228   2.995  0.0724 -0.0856 -0.2029
24496W        W40680   2.163   7.846  12.083 -0.0362 -0.1848  0.0051
24497W        W40681  12.135   9.255   2.182 -0.0946 -0.0650  0.0341
24498W        W40682   7.644   5.716   1.360 -0.2622 -0.2638 -0.1112
24499W        W40683   8.401  10.515   4.029 -0.0681  0.0379  0.1277
24500W        W40684   8.873   7.328  11.716  0.1168 -0.0717  0.2825
24501W        W40685   0.915  12.980   4.657 -0.0922  0.2098 -0.2307
24502W        W40686  17.695   4.779  15.629 -0.1508  0.1570 -0.1011
24503W        W40687   4.494   5.172   2.248  0.3629  0.1268 -0.0188
24504W        W40688  15.884  11.692   5.266  0.3296 -0.0455 -0.3652
24505W        W40689  11.165   6.546  12.227  0.1449  0.0905  0.0286
24506W        W40690   2.670   5.789  11.561 -0.1057  0.0874 -0.1443
24507W        W40691  11.288   3.162   4.440 -0.0763  0.1050 -0.0505
24508W        W40692   3.155   0.233   4.139 -0.0458 -0.0047  0.0333
24509W        W40693  14.421   3.305   0.285  0.2063  0.0128 -0.1368
24510W        W40694  15.083   7.040   4.360 -0.0709 -0.0440 -0.2944
24511W        W40695   7.619  10.897   3.065 -0.1428 -0.1448 -0.1355
24512W        W40696   8.132  16.029   2.200  0.0964  0.0071  0.3423
24513W        W40697  15.739  12.240   5.187  0.1442  0.1259  0.3962
24514W        W40698   9.574   5.584   0.475 -0.1944  0.3739 -0.1148
24515W        W40699   6.361   7.045   4.004  0.0829  0.0497  0.0939
24516W        W40700   6.396   0.771   5.109 -0.3230  0.2915 -0.0671
24517W        W40701  11.157  14.968   1.849 -0.1490  0.1177  0.2064
24518W        W40702  13.723   6.092   4.328 -0.2645  0.1313  0.1171
24519W        W40703  13.614   4.769  13.175  0.1178  0.1169 -0.1116
24520W        W40704  17.870   4.298  16.250 -0.0107 -0.1618  0.2068
24521W        W40705  16.129  11.374   1.426  0.2284 -0.1002 -0.2313
24522W        W40706  12.741   1.982  13.482  0.1453  0.3097 -0.0001
24523W        W40707   5.024   5.912  12.414  0.0812 -0.2325 -0.0712
24524W        W40708  11.810  10.216  12.352  0.0282  0.1269  0.0809
24525W        W40709  13.869   9.181  11.511  0.3560  0.1318 -0.1224
24526W        W40710   5.317  16.439  13.720 -0.3922 -0.0054  0.0484
24527W        W40711   5.703   4.243   4.913 -0.1968 -0.0802  0.1277
24528W        W40712   9.812   7.626  13.203 -0.1004  0.0619 -0.3532
24529W        W40713   6.227   3.395   3.818  0.1134 -0.1565  0.0043
24530W        W40714  12.962  16.797  13.364  0.2851  0.0886  0.0686
24531W        W40715   9.119  16.399   2.461 -0.1179  0.0858 -0.1235
24532W        W40716   1.984   5.855   1.620 -0.1188  0.1487  0.2040
24533W        W40717  10.539   4.018   1.247 -0.1658  0.0581  0.0515
24534W        W40718  14.636  12.753  12.496  0.3592  0.2365 -0.1153
24535W        W40719   6.364  15.874  16.868  0.3051 -0.0004 -0.1291
24536W        W40720   4.045   1.199   0.339  0.1919 -0.0066  0.1988
24537W        W40721  10.533  10.352   2.429 -0.0588 -0.1467  0.0697
24538W        W40722  15.805  12.704   4.929 -0.2476  0.1826  0.0077
24539W        W40723  14.252   1.419  14.017 -0.1111 -0.1937  0.1202
24540W        W40724  10.581  14.722  16.796  0.0716 -0.1263 -0.1494
24541W        W40725   8.390   0.860   1.382  0.2204 -0.1864 -0.2033
24542W        W40726   5.968   6.769  12.484 -0.0188 -0.0889 -0.0442
24543W        W40727   5.334   5.004  12.376 -0.4026  0.0344  0.0062
24544W        W40728  14.471   6.240   4.924 -0.1058  0.0504 -0.1975
24545W        W40729  13.027   7.104  12.315 -0.0263 -0.2555 -0.0104
24546W        W40730   0.198   6.440  14.819 -0.2576  0.1309  0.2876
24547W        W40731  10.114   4.630  12.198 -0.2568  0.0122 -0.2925
24548W        W40732  10.044   6.203   5.171 -0.0868 -0.1317  0.2654
24549W        W40733  13.701  16.037   1.909 -0.3114 -0.1485  0.1468
24550W        W40734   2.370  11.516   1.169  0.0843  0.3851 -0.0082
24551W        W40735   5.994  10.095  13.778 -0.0582 -0.3435  0.0083
24552W        W40736   5.486   3.576   1.219  0.0999  0.0356 -0.0761
24553W        W40737   8.286   7.714   2.461 -0.1033 -0.2255  0.0373
24554W        W40738   8.475  10.569  15.930  0.1822  0.0368 -0.0330
24555W        W40739  17.628   4.606   2.052  0.0872 -0.2060  0.1229
24556W        W40740   8.694   5.258  16.458  0.1517  0.0738 -0.3081
24557W        W40741   2.416   3.612  12.415  0.2729 -0.2696  0.0319
24558W        W40742  15.814  12.735  15.291  0.1940 -0.4589 -0.1808
24559W        W40743   9.064   0.004  15.566 -0.4138 -0.0494  0.2292
24560W        W40744  15.437   7.162   3.139 -0.0674 -0.1514  0.2459
24561W        W40745   5.734   9.128   0.949 -0.0170 -0.0174  0.1180
24562W        W40746   9.058   7.045  16.598  0.1890  0.0381  0.2838
24563W        W40747  15.354   1.416  12.036  0.1967 -0.3669 -0.2469
24564W        W40748   0.866   6.802  12.290 -0.0155 -0.1184  0.2848
24565W        W40749  11.573   6.256   4.347 -0.0325  0.0843 -0.0833
24566W        W40750  10.840  16.052   5.812 -0.2142 -0.1854 -0.0088
24567W        W40751   1.934   6.544  13.673  0.1444 -0.1212  0.1018
24568W        W40752   2.180  16.997   1.395 -0.1002 -0.1176  0.1315
24569W        W40753   7.369   2.044   0.998  0.0614 -0.1608 -0.0623
24570W        W40754   6.187   0.119   4.647  0.4182  0.5563 -0.1739
24571W        W40755  13.786  10.581  13.322  0.3344 -0.0828  0.1193
24572W        W40756   3.224   4.546  13.791  0.0571  0.0553  0.0798
24573W        W40757  12.495  15.817  11.666  0.4007  0.0067 -0.0159
24574W        W40758  16.908  13.218   1.515 -0.1616 -0.4147  0.1257
24575W        W40759   7.171   9.044   3.508 -0.0546 -0.0274 -0.0201
24576W        W40760  11.259  14.439   3.274 -0.0971 -0.1310 -0.0659
24577W        W40761   2.946   9.442  14.084 -0.0605  0.1830  0.0419
24578W        W40762  12.947   5.439   6.164  0.0651 -0.1572 -0.0546
24579W        W40763  16.479   4.187  15.054  0.0724  0.1558  0.1303
24580W        W40764  14.560   8.094   3.510 -0.0894  0.1254  0.0002
24581W        W40765   7.232  13.858  14.688 -0.4488 -0.3021  0.2151
24582W        W40766  13.684  11.852   5.169 -0.2031  0.1295 -0.2776
24583W        W40767  10.505   7.553   2.173  0.0508 -0.0248  0.1193
24584W        W40768  13.139   9.409  13.322 -0.2597 -0.2519  0.0624
24585W        W40769   3.944   6.741  15.400 -0.0687  0.0788 -0.1680
24586W        W40770   1.201  12.147  12.853 -0.5316  0.1231  0.1460
24587W        W40771  10.652   1.443   6.075  0.3297 -0.1259  0.0408
24588W        W40772  12.029  11.317  15.761 -0.1819  0.0140 -0.0339
24589W        W40773   2.121  10.804  12.270 -0.0779 -0.0581 -0.2252
24590W        W40774  17.353   1.647   4.236 -0.1520 -0.1181  0.0021
24591W        W40775  10.071  10.557   4.010 -0.1918  0.2692  0.2413
24592W        W40776  14.742   9.537   4.483  0.3306 -0.0536  0.0858
24593W        W40777   4.562   6.570  11.478  0.0672 -0.1588 -0.0682
24594W        W40778   6.569   5.353  15.905 -0.0284 -0.1117 -0.2993
24595W        W40779   0.546   0.958  14.644 -0.2686 -0.0938 -0.0707
24596W        W40780   4.222   6.345  15.667 -0.1143  0.1038 -0.0086
24597W        W40781  15.965   5.286  13.288  0.0749  0.1376 -0.1715
24598W        W40782  10.282   5.730   4.243 -0.2633  0.3021 -0.0843
24599W        W40783   2.473  11.788  11.906 -0.2587 -0.0465 -0.0815
24600W        W40784  14.082   3.640   3.851  0.0065 -0.1564  0.0745
24601W        W40785   7.700   8.509  16.815  0.2361 -0.0675 -0.1025
24602W        W40786   1.424  13.509   4.122 -0.1014 -0.0287  0.1001
24603W        W40787   0.817   2.083   0.358  0.2422 -0.1649 -0.0453
24604W        W40788   9.793   5.627   4.485  0.1141  0.1447 -0.2197
24605W        W40789   4.020   1.517   4.110  0.1622  0.0875  0.0988
24606W        W40790   0.164  10.290  15.289  0.3010  0.3550  0.0084
24607W        W40791   1.092  13.886   4.889 -0.1690  0.0798  0.6342
24608W        W40792  15.059   7.551  12.750  0.0265  0.1335 -0.1325
24609W        W40793   5.183  12.776  10.565 -0.3089 -0.0471 -0.0445
24610W        W40794  16.701   3.827   5.450  0.2107  0.0073 -0.1573
24611W        W40795   9.367  13.800   0.214  0.0982  0.2196  0.1879
24612W        W40796  17.668   4.505   5.448  0.1406  0.0922 -0.0607
24613W        W40797  15.447  10.197   3.043 -0.1851 -0.2083  0.0004
24614W        W40798   1.313   7.761  15.417  0.1697 -0.0846  0.0894
24615W        W40799   5.200  15.654   4.639  0.2995  0.1022 -0.1232
24616W        W40800   3.391  15.767  14.272  0.1105 -0.1136 -0.3376
24617W        W40801  14.928   9.689   5.730  0.2761 -0.1857  0.0327
24618W        W40802   9.485   3.298   3.215  0.2631  0.1096  0.0334
24619W        W40803   3.688   9.880   2.938  0.0061 -0.1290  0.1305
24620W        W40804   8.363  17.804   3.860 -0.0045  0.1031 -0.2266
24621W        W40805  12.742  10.225   1.836 -0.0790 -0.4135  0.3882
24622W        W40806  13.335   7.188   3.588  0.1448  0.1205 -0.1628
24623W        W40807   3.058  16.538  15.733 -0.0668  0.0579 -0.2487
24624W        W40808   0.849   7.479   4.347 -0.0087 -0.1999  0.0327
24625W        W40809  11.744   2.405   4.370  0.0516 -0.1480 -0.3352
24626W        W40810  16.908  13.491  13.632 -0.2313 -0.1397  0.0756
24627W        W40811   1.566  16.152  12.833  0.0035 -0.2427  0.2969
24628W        W40812   2.038  16.172   4.610  0.1406  0.1071 -0.0725
24629W        W40813  13.855  16.939   0.309 -0.0749  0.1043  0.0554
24630W        W40814  11.547   7.526   3.054  0.2679  0.2095 -0.0264
24631W        W40815  13.745  14.756   1.077 -0.0002 -0.1507 -0.4143
24632W        W40816  17.870  15.930   2.612  0.1016 -0.6420  0.2450
24633W        W40817  12.594   5.591  12.656  0.0476  0.1417  0.1660
24634W        W40818   2.927  17.619   0.539  0.0485 -0.0952 -0.0622
24635W        W40819  14.067   2.578  12.075  0.0229 -0.2903  0.0978
24636W        W40820   3.833   7.865   3.118 -0.0538 -0.1985  0.2818
24637W        W40821  12.085  10.964   1.060 -0.0399 -0.3074 -0.1428
24638W        W40822   7.645  15.296   1.243  0.0462 -0.2597  0.0348
24639W        W40823   4.444   7.497   4.185 -0.0179  0.3075  0.0226
24640W        W40824   1.802  16.117   0.802 -0.0447  0.2038  0.2552
24641W        W40825  10.304   0.878   3.530  0.2554  0.0622 -0.1498
24642W        W40826   8.548  11.917  12.706 -0.1173  0.1043 -0.0937
24643W        W40827   3.852   1.709   3.592  0.0409 -0.4214  0.2062
24644W        W40828  17.212   1.624  12.085  0.4191 -0.2299 -0.1786
24645W        W40829  15.319  14.277   3.673 -0.2602  0.1626  0.2987
24646W        W40830   1.721  12.273  16.263 -0.0047  0.1107 -0.0916
24647W        W40831  15.360   7.536   0.123 -0.1920  0.1058  0.2417
24648W        W40832  10.213  10.943   0.339 -0.1308  0.0364  0.0650
24649W        W40833   7.071   6.247  13.052  0.1287 -0.1754 -0.0680
24650W        W40834  10.204   0.617   4.818 -0.0046 -0.0598  0.1184
24651W        W40835   9.588  16.750   1.444  0.0519  0.0624 -0.1247
24652W        W40836   4.760   1.544   6.077  0.1016 -0.0155 -0.2402
24653W        W40837  13.271   1.199   2.366 -0.1194 -0.0795  0.2005
24654W        W40838   5.441  16.968  15.452  0.1598  0.1906 -0.0776
24655W        W40839   9.704   7.377   2.788  0.0558 -0.1075 -0.0346
24656W        W40840  13.965   1.835   2.320 -0.1074  0.0844 -0.3000
24657W        W40841   7.714   9.311   0.483  0.3312  0.0652  0.1840
24658W        W40842  10.489   4.798   1.689 -0.0516 -0.0418 -0.1016
24659W        W40843  15.491  13.077  13.022 -0.2859  0.0547 -0.1388
24660W        W40844   1.669  17.543  14.393 -0.1091  0.0694 -0.0002
24661W        W40845  15.861  14.786   6.575  0.0065  0.0785  0.3280
24662W        W40846   4.237   2.733   1.113  0.0074  0.0162  0.1310
24663W        W40847   8.218   4.346  12.279  0.2185  0.2564  0.2123
24664W        W40848  17.073   2.027   4.978  0.0962 -0.0686 -0.2180
24665W        W40849   5.624   3.958  13.680 -0.2820  0.1552 -0.3886
24666W        W40850  15.119  17.404   4.544  0.1051 -0.2305 -0.0390
24667W        W40851   2.330   5.311  14.518  0.1892 -0.0831 -0.2095
24668W        W40852   6.925  15.708  14.014 -0.1524 -0.1765 -0.2586
24669W        W40853   2.356   5.178   4.777 -0.0562  0.0589 -0.4401
24670W        W40854   6.057   9.267  14.698  0.0570 -0.0546 -0.0599
24671W        W40855  12.690  12.242   1.192  0.1965 -0.2067 -0.0540
24672W        W40856  14.995   2.852  15.808  0.1466 -0.1118 -0.3676
24673W        W40857  14.474   0.726   4.872 -0.0121 -0.1644  0.1696
24674W        W40858   0.067   6.590   3.634  0.0243  0.0151 -0.1512
24675W        W40859  13.774   9.158   2.779  0.0010  0.1824 -0.3238
24676W        W40860   6.390  15.905   1.741 -0.1171 -0.1663  0.1328
24677W        W40861  13.871   8.477   4.083 -0.0859 -0.0119  0.1504
24678W        W40862  14.671  14.379   2.923 -0.0371  0.2123  0.0485
24679W        W40863   2.773   7.654  16.745 -0.0250  0.0987  0.1855
24680W        W40864   6.868  10.135   3.285  0.1624  0.0643  0.1213
24681W        W40865   6.054  15.080  15.907 -0.0343  0.2110  0.1006
24682W        W40866   7.840  11.998  11.647  0.2894  0.1656  0.1104
24683W        W40867  15.235  10.983  12.044 -0.1326 -0.0649  0.2261
24684W        W40868  15.665  11.314  14.087  0.1088  0.1991  0.1852
24685W        W40869   6.183   6.026  14.781 -0.1746  0.0642  0.3842
24686W        W40870   0.417   4.789   0.669  0.3337 -0.0380  0.2841
24687W        W40871  13.287   4.061   1.894 -0.0437  0.0130 -0.0510
24688W        W40872  13.963   1.016   4.080  0.2304  0.3725 -0.2609
24689W        W40873  11.121   4.562   3.344  0.0303 -0.2464 -0.0017
24690W        W40874  16.516   1.899  11.479 -0.0057  0.0284 -0.0223
24691W        W40875   6.836   1.896   2.467  0.2187 -0.1312  0.3193
24692W        W40876   9.712   6.064   0.727 -0.2966  0.2759  0.0915
24693W        W40877  17.437   7.871   6.057 -0.0755 -0.2103 -0.1484
24694W        W40878   2.062   6.940  13.936 -0.3326 -0.1252 -0.0288
24695W        W40879  12.031   0.902   5.451  0.0933  0.1719  0.0286
24696W        W40880  11.716   0.638  15.442  0.0162 -0.0087 -0.0733
24697W        W40881   7.909  16.110  11.695 -0.2827  0.1415 -0.3930
24698W        W40882  14.735  11.445  15.614 -0.0868  0.4597 -0.3983
24699W        W40883  15.378  15.954  12.130  0.0373 -0.0799  0.0900
24700W        W40884   6.824   0.589  11.968  0.1089 -0.1230  0.2801
24701W        W40885   2.191   0.029   3.036 -0.0151 -0.1052 -0.0668
24702W        W40886  14.853  17.135  13.353 -0.0089 -0.0866  0.1538
24703W        W40887  15.941  17.322   4.754 -0.0780  0.1184  0.0710
24704W        W40888  11.592  15.127   0.119 -0.0986  0.2872  0.0593
24705W        W40889   0.010  15.721  15.188 -0.0362 -0.1469 -0.0561
24706W        W40890  11.194  10.948   1.525 -0.0772 -0.0117  0.3496
24707W        W40891   3.367   4.167  12.428  0.1430  0.1708  0.1855
24708W        W40892   1.551   6.867   2.422 -0.1717 -0.1361 -0.0054
24709W        W40893  11.309  13.918   0.900  0.0428  0.2572 -0.0033
24710W        W40894  15.156  12.164   4.332 -0.3563 -0.1729  0.2541
24711W        W40895   1.351   3.857   2.484 -0.0986 -0.1960 -0.1648
24712W        W40896   3.408   6.162   4.414  0.2897  0.3266  0.2077
24713W        W40897   9.481  15.986  13.650 -0.2415  0.1055  0.0562
24714W        W40898   1.934  11.637  10.701  0.2638  0.2239 -0.0547
24715W        W40899   3.256  14.033   4.390  0.2960 -0.0093 -0.0671
24716W        W40900   4.474   3.064  14.048 -0.1931  0.2064  0.0483
24717W        W40901  17.233   0.578   2.064 -0.1228  0.0823 -0.2325
24718W        W40902  12.618  17.175  16.444  0.1028  0.0235  0.1436
24719W        W40903   1.463   0.188   0.194  0.0943  0.1568 -0.0875
24720W        W40904  13.386   0.381  16.063 -0.2144 -0.2035  0.3599
24721W        W40905   6.206  12.637  11.487 -0.0730  0.0250  0.2008
24722W        W40906   3.640  16.936   1.466  0.2737 -0.1520  0.1298
24723W        W40907   3.514   7.865   2.294 -0.3059  0.0330  0.3790
24724W        W40908  16.862   6.267   1.881 -0.2372 -0.5324 -0.0478
24725W        W40909  15.549  16.393  16.112  0.1644 -0.1730 -0.1981
24726W        W40910  13.084   1.863  15.360 -0.1086 -0.0741  0.0342
24727W        W40911   6.374   2.810  13.220 -0.1078  0.1361  0.0212
24728W        W40912  17.562  15.582   1.116  0.1042 -0.0036  0.0951
24729W        W40913   9.333  11.059  13.409  0.0177  0.1410  0.0584
24730W        W40914   7.983  10.114  11.816 -0.0436 -0.2023 -0.1108
24731W        W40915   8.950   7.852  13.511 -0.5404  0.0473  0.1232
24732W        W40916  10.865   8.757  14.536  0.2583  0.1719  0.1399
24733W        W40917  15.636   2.332  14.820  0.2308 -0.3345  0.2114
24734W        W40918  11.805  11.182  13.931 -0.2233  0.1385  0.0720
24735W        W40919  16.915  12.816   3.338  0.2501  0.0307 -0.1280
24736W        W40920   2.598   5.619   3.931  0.0750  0.0292 -0.1543
24737W        W40921   2.422  17.159  13.652 -0.1562 -0.0383  0.1198
24738W        W40922  11.075   6.960  15.085 -0.1287 -0.0673 -0.1277
24739W        W40923  17.704   5.278   5.900  0.0241 -0.0678  0.1010
24740W        W40924   8.041  12.911  16.894 -0.0623  0.5511 -0.0751
24741W        W40925   5.460   5.033   3.708 -0.0076 -0.3705  0.1407
24742W        W40926   6.153   6.031  16.584 -0.0899 -0.0251  0.2038
24743W        W40927   3.295   7.137   5.369  0.0425 -0.0748 -0.2651
24744W        W40928  16.054   6.491  16.258  0.0255  0.2480  0.1708
24745W        W40929  17.572  16.313  11.967 -0.2476  0.3017 -0.1234
24746W        W40930  11.978  15.758   1.696 -0.1294  0.0923  0.1792
24747W        W40931  15.614  12.199  14.009 -0.0160 -0.1107  0.3368
24748W        W40932  17.010   9.473  15.209 -0.0180  0.0599 -0.2010
24749W        W40933   8.786  13.130  13.811  0.1044 -0.1028  0.0780
24750W        W40934   3.777   3.471   1.728  0.0559 -0.0307 -0.0525
24751W        W40935   8.555  15.793   2.430  0.3925  0.1037  0.0358
24752W        W40936  10.320  14.068   1.001  0.3152  0.3099 -0.0826
24753W        W40937   7.624  13.115  16.603 -0.2144 -0.1271  0.0242
24754W        W40938   9.034   5.752   1.294  0.0050  0.1840 -0.0073
24755W        W40939  10.766  17.653   4.139 -0.1471  0.0729 -0.0815
24756W        W40940   7.316  13.618   2.938  0.1526 -0.1517 -0.2483
24757W        W40941  17.738  11.934   0.998 -0.0584 -0.1230  0.2257
24758W        W40942   7.074  10.887   1.794  0.2170  0.0051  0.1975
24759W        W40943   1.480  11.310  16.743 -0.1403  0.2180 -0.2494
24760W        W40944  15.923   3.406  15.712 -0.3051 -0.0307 -0.0455
24761W        W40945   4.842   2.829   4.459  0.1665 -0.0296  0.0611
24762W        W40946  10.305   8.458  13.339 -0.0736  0.0616 -0.1303
24763W        W40947  14.837   7.170   3.802 -0.1789 -0.0793 -0.3025
24764W        W40948  15.968  14.876  15.307 -0.2265  0.3183 -0.0962
24765W        W40949  13.168   0.953   4.797  0.1339 -0.0356  0.1462
24766W        W40950  14.143   0.782   5.257  0.1930 -0.2219  0.0265
24767W        W40951  15.362   2.498  13.681  0.2774 -0.1225 -0.3213
24768W        W40952   2.913   4.941   4.685  0.0901 -0.1311 -0.0520
24769W        W40953   9.167  12.802  12.984 -0.1409 -0.1086  0.0384
24770W        W40954   5.754   7.279   4.759 -0.0545 -0.3836  0.7423
24771W        W40955   6.431  15.372  11.757  0.0559  0.0889  0.1571
24772W        W40956  17.068  12.191   2.553 -0.0126 -0.1324 -0.5755
24773W        W40957  17.486   9.023   5.575  0.4524 -0.4256  0.0206
24774W        W40958   7.933   2.901   4.178 -0.3122 -0.1087 -0.1269
24775W        W40959  14.736   7.541   1.838  0.1205  0.1956  0.1446
24776W        W40960  15.044   3.578  14.629 -0.4475  0.0463  0.0997
24777W        W40961   5.964  11.531   0.109 -0.0348 -0.0559  0.0585
24778W        W40962  17.446  10.592   0.802  0.1253 -0.4576 -0.2932
24779W        W40963  14.552   6.123  14.736 -0.0608  0.2141 -0.0249
24780W        W40964   9.900   9.147   0.261  0.2630  0.3228 -0.2404
24781W        W40965  17.102   5.004  16.436 -0.0426  0.2021  0.0147
24782W        W40966   2.310  14.671  14.659 -0.1079 -0.1119 -0.0315
24783W        W40967   3.501   7.675  13.010  0.1719  0.2429 -0.2343
24784W        W40968   1.083  12.240  14.107 -0.1658  0.0139 -0.0955
24785W        W40969   8.290  12.649   4.537  0.0700 -0.0581 -0.1322
24786W        W40970   9.391  11.207  12.029  0.1534 -0.1018 -0.1180
24787W        W40971   8.412   9.671   3.902 -0.1117  0.0358 -0.1808
24788W        W40972  17.456   6.852   0.183 -0.0366 -0.1797  0.2271
24789W        W40973   0.725   5.525  15.555  0.0166  0.1631 -0.0552
24790W        W40974   9.228  16.783  15.948  0.0822 -0.0306 -0.0624
24791W        W40975   8.553  17.848  15.452 -0.0046  0.0440  0.3209
24792W        W40976   2.484  15.862   5.339  0.0419 -0.2534  0.0239
24793W        W40977   0.323   1.676  13.969 -0.0987 -0.1748 -0.0110
24794W        W40978  13.642  11.434  13.476 -0.0853  0.0796 -0.0033
24795W        W40979   6.298  11.681  15.823 -0.1109  0.0412  0.3120
24796W        W40980  14.224   5.162  14.572  0.2713 -0.3403  0.1559
24797W        W40981   5.878  16.340  13.653 -0.0930 -0.1042 -0.0585
24798W        W40982   7.670   8.360   0.348  0.1085  0.3212 -0.2733
24799W        W40983  16.140  14.184   2.564 -0.1306 -0.2455  0.2144
24800W        W40984  13.751  12.273  16.220  0.2673  0.1591 -0.3342
24801W        W40985   7.652   1.591   0.009 -0.2965  0.0574  0.2002
24802W        W40986   6.835   9.788   6.085 -0.2041  0.1337 -0.2207
24803W        W40987   8.577  15.673   3.674  0.0517 -0.1222 -0.1528
24804W        W40988   4.481   9.831  12.616  0.0326  0.0740  0.2195
24805W        W40989   8.564   7.385   4.594 -0.0660  0.1682  0.0850
24806W        W40990  11.293   5.582   0.175 -0.0143 -0.1659  0.1810
24807W        W40991   8.971   9.872   3.478  0.1067  0.2361  0.0156
24808W        W40992  15.773   5.273  13.846  0.0908  0.4299  0.2983
24809W        W40993  14.385   4.184  15.181 -0.0328  0.1859  0.0474
24810W        W40994   6.120   9.391  13.201 -0.1098  0.0217 -0.0119
24811W        W40995  10.734   6.511  12.502 -0.0716 -0.1328 -0.2090
24812W        W40996  10.760  17.839   0.456 -0.0087 -0.0675  0.3620
24813W        W40997   6.249   2.952  13.689 -0.0943 -0.3317 -0.1387
24814W        W40998  11.801   3.335  15.222  0.3474 -0.0568 -0.0304
24815W        W40999  17.224  14.634   4.023  0.2461  0.1297  0.0750
24816W        W41000  12.891  10.033  13.358 -0.4738  0.0828  0.0210
24817W        W41001   7.995   1.637   3.901  0.0203 -0.1721  0.0931
24818W        W41002   6.861  11.005  11.791  0.2012 -0.1381  0.0241
24819W        W41003  15.558  11.010  15.558 -0.0993 -0.0342 -0.2634
24820W        W41004  14.425   3.190   3.876  0.2323  0.0083  0.1461
24821W        W41005   2.691   6.672   4.465 -0.0326  0.0791 -0.0671
24822W        W41006  16.933   6.630  14.181 -0.0260 -0.0684 -0.3153
24823W        W41007   8.717  10.631   2.500 -0.2454 -0.1143 -0.0171
24824W        W41008  10.345   2.492  15.382  0.3530 -0.0015  0.1143
24825W        W41009  11.230   0.693   2.090  0.1024  0.0721 -0.3504
24826W        W41010   2.142   3.760   0.787  0.0720  0.1010 -0.0730
24827W        W41011   8.529  13.991   5.157 -0.0551  0.0316 -0.4473
24828W        W41012   6.364  14.346   5.731 -0.0852  0.4011 -0.0472
24829W        W41013  11.986   4.299   4.056 -0.1059 -0.3102 -0.0224
24830W        W41014   9.153   7.818   1.525  0.2791 -0.2919 -0.1302
24831W        W41015   4.573  15.914  13.405 -0.1931  0.2217  0.0941
24832W        W41016  15.381   9.678   6.461 -0.0842 -0.1318 -0.0213
24833W        W41017   3.988   0.163  16.134 -0.2457 -0.0372  0.0002
24834W        W41018   7.321   5.793   1.022  0.1991  0.1660  0.1538
24835W        W41019  17.793   2.080   4.361 -0.1056  0.0411 -0.0084
24836W        W41020  16.317   8.428  16.735  0.0722  0.1824 -0.1311
24837W        W41021   8.110   3.979  13.802  0.1029  0.1461  0.1859
24838W        W41022   1.192   9.685   0.149 -0.2476 -0.2926 -0.0502
24839W        W41023   7.611  16.613   1.588  0.1107 -0.2816  0.0560
24840W        W41024   6.772   1.424  15.397  0.0398 -0.0225  0.0121
24841W        W41025   5.915  13.257  15.817 -0.1222  0.1253  0.2083
24842W        W41026   9.239   2.018  13.004 -0.1708  0.1632  0.3788
24843W        W41027  10.329  10.347   4.411 -0.5246 -0.3277 -0.1461
24844W        W41028   1.431   1.435   0.384  0.2565  0.0527  0.1064
24845W        W41029   6.965  13.063  11.469  0.1358 -0.0752  0.1567
24846W        W41030   0.497   4.060   3.015  0.0277 -0.0024  0.2131
24847W        W41031   4.638  15.701   2.537 -0.0214  0.0920  0.1890
24848W        W41032   3.055  13.274   4.180 -0.2868  0.2527  0.0710
24849W        W41033   4.273  16.024  16.141 -0.0843  0.1270 -0.3479
24850W        W41034   1.550   3.934   3.954  0.2325 -0.2152  0.2847
24851W        W41035   7.738   3.561   0.779 -0.2266 -0.1114  0.0365
24852W        W41036   8.399   3.945   1.507  0.1120 -0.3081 -0.1715
24853W        W41037   7.448  11.135   1.587 -0.2863 -0.4684 -0.1844
24854W        W41038   8.474   2.092   1.498 -0.2740  0.1063 -0.0630
24855W        W41039  14.545  12.936   2.134 -0.2901 -0.0848  0.2210
24856W        W41040  12.624  13.790  13.113 -0.0924 -0.0842 -0.0889
24857W        W41041   2.081  16.622  13.038 -0.0256  0.2192  0.2823
24858W        W41042  17.156   4.588  13.459 -0.0394  0.0253  0.3381
24859W        W41043   6.964  13.125   3.376  0.2810  0.0207 -0.1594
24860W        W41044  14.639   4.208   3.072 -0.1818 -0.0422  0.0117
24861W        W41045  11.985  14.880  14.999  0.0497  0.1493  0.3027
24862W        W41046   3.626   2.431  12.078  0.0297  0.0870 -0.0061
24863W        W41047  12.199   1.828   3.139 -0.1141 -0.0007 -0.1833
24864W        W41048  16.555   8.064  11.327 -0.1502 -0.1257 -0.1815
24865W        W41049   3.479   0.417  14.885  0.0049 -0.0587  0.0219
24866W        W41050   9.038  15.910  14.842  0.0178 -0.3290  0.1464
24867W        W41051  14.463   4.006  11.236 -0.3171 -0.2335 -0.4322
24868W        W41052   0.621  13.009   2.235  0.0327  0.0882  0.2534
24869W        W41053   0.077  11.515   6.126 -0.1305 -0.2836 -0.1831
24870W        W41054   7.439  16.103   5.506 -0.0968 -0.2325  0.4560
24871W        W41055  11.583   3.062   2.365 -0.1168  0.0654  0.0131
24872W        W41056  13.882   0.170   4.040  0.0658 -0.3379 -0.0335
24873W        W41057   0.159  14.591  12.336 -0.1697 -0.1488  0.1174
24874W        W41058  10.219   6.994  15.801  0.4625  0.1183 -0.0828
24875W        W41059   6.505   6.122  15.656 -0.2346 -0.2338  0.1009
24876W        W41060   9.523   8.639  12.216 -0.0598  0.0688  0.1029
24877W        W41061  12.025  13.457  16.737 -0.1092  0.2003 -0.2045
24878W        W41062   1.611   2.685  11.950  0.1346  0.0972  0.0467
24879W        W41063  14.621  15.002  14.546 -0.0981 -0.0873 -0.1730
24880W        W41064   2.104   7.843   2.566 -0.4046  0.1910  0.0306
24881W        W41065   5.202   9.032   4.957 -0.0089  0.3048  0.0801
24882W        W41066  13.762   0.292   1.190 -0.2937 -0.2003  0.0260
24883W        W41067  11.788  17.544   5.328  0.0698  0.0462  0.3918
24884W        W41068  14.333  17.677   5.260  0.1792 -0.0853  0.1384
24885W        W41069   1.550  10.259  13.844  0.2163  0.0034 -0.1980
24886W        W41070  10.076  10.340  15.337  0.0206 -0.1615  0.0528
24887W        W41071   3.815  12.350   1.544  0.1241 -0.1653 -0.0588
24888W        W41072  15.948  16.916  12.393 -0.2101 -0.0751 -0.0869
24889W        W41073   3.041   0.327   5.066 -0.0172  0.2366  0.0768
24890W        W41074   6.098  14.632   3.265 -0.3642  0.0567  0.2383
24891W        W41075   7.097   8.342   0.549  0.1336 -0.0351  0.1848
24892W        W41076   3.620   6.321  15.461  0.1343 -0.1433  0.0553
24893W        W41077  10.710  11.759   1.234  0.0493  0.0241  0.3278
24894W        W41078  14.329  11.111   0.561  0.2557 -0.0607 -0.0865
24895W        W41079   1.279   4.614  12.701  0.1688  0.1494 -0.1703
24896W        W41080  11.366  17.713   4.736 -0.0386  0.0181  0.0233
24897W        W41081  11.675   4.861  12.212 -0.0800  0.3391 -0.0305
24898W        W41082  14.300  16.357  15.963 -0.1550  0.0907 -0.2634
24899W        W41083  11.753   3.416   4.385 -0.1534  0.0705  0.0368
24900W        W41084  10.824   2.311   1.539  0.1466 -0.1496 -0.0926
24901W        W41085   5.037   4.630   5.795  0.1729 -0.0012  0.1275
24902W        W41086   2.421  13.206  13.215  0.0858 -0.0703 -0.0370
24903W        W41087   9.342   3.105   3.643  0.0299  0.0626  0.0862
24904W        W41088  10.533  17.276  16.110 -0.0618  0.2579 -0.0965
24905W        W41089  12.395   4.855   4.965 -0.1321  0.0373 -0.1925
24906W        W41090  12.946  17.224  12.742  0.2432 -0.3565  0.1178
24907W        W41091  10.887   5.206  16.355 -0.0462 -0.3896 -0.1528
24908W        W41092  15.622   0.625   2.913  0.1139  0.0810  0.1009
24909W        W41093  11.163   7.363  16.582  0.2496  0.1606  0.4412
24910W        W41094   4.280   2.645  13.334 -0.0542 -0.0028 -0.0578
24911W        W41095   3.268  10.146   0.814  0.2160 -0.1951  0.1420
24912W        W41096   3.941  15.042   0.429  0.3007  0.1458 -0.0666
24913W        W41097   1.818   3.480  14.845  0.3854  0.1557  0.1447
24914W        W41098   9.173   9.447  15.795  0.1644 -0.2222  0.0993
24915W        W41099   2.639   3.548  15.400 -0.3175 -0.3614  0.0232
24916W        W41100   3.767   2.750  15.253 -0.0233  0.2609 -0.1282
24917W        W41101   2.513   1.951   2.049  0.0524  0.1566 -0.0128
24918W        W41102   9.831   2.889   3.992  0.1147  0.1597  0.0196
24919W        W41103   0.798   6.444  16.389  0.0248  0.4624  0.1585
24920W        W41104   8.075  14.991   0.262  0.0684 -0.3399  0.1408
24921W        W41105   3.317   7.744   0.783  0.2018  0.1004  0.1950
24922W        W41106  16.697   6.991   6.511 -0.1609  0.3423 -0.0344
24923W        W41107  11.791  14.022   5.064 -0.1758  0.0977 -0.0199
24924W        W41108   2.345  16.510   0.025 -0.2332 -0.2098 -0.1055
24925W        W41109  15.037   5.618  14.340 -0.1261  0.1208 -0.0334
24926W        W41110   9.995  16.851  13.239 -0.0633  0.0505  0.0535
24927W        W41111  16.316   5.736   1.627 -0.0856  0.1574  0.3218
24928W        W41112   6.020   2.881   2.634 -0.1908  0.2278 -0.0256
24929W        W41113   7.787  17.267   4.084 -0.0209  0.0840  0.0597
24930W        W41114  15.835   9.792   3.564 -0.0240  0.2541 -0.1088
24931W        W41115  13.942  17.549   4.228 -0.0191  0.0673 -0.2661
24932W        W41116   6.831   8.485  16.643  0.2830  0.1232  0.2322
24933W        W41117   9.897  15.267  12.524  0.1044  0.4192  0.0602
24934W        W41118   7.057  16.769  16.130 -0.1044  0.2897  0.0808
24935W        W41119  15.514   7.148  14.856  0.4171 -0.2200 -0.1814
24936W        W41120  11.532  17.605  14.372  0.3051 -0.0292 -0.0835
24937W        W41121  11.423   1.832  13.387  0.2381  0.0435 -0.0380
24938W        W41122   8.770   3.888  16.753  0.1386 -0.1527 -0.3801
24939W        W41123   9.829  10.075  15.678 -0.0827 -0.2591  0.0874
24940W        W41124   7.213   9.923  16.269 -0.3189  0.2234  0.0101
24941W        W41125   9.357  15.920   1.249  0.0744  0.2714 -0.1922
24942W        W41126  13.708  16.119   5.370 -0.3340  0.0569 -0.4044
24943W        W41127   7.929  10.664   2.222 -0.3747 -0.0473  0.2046
24944W        W41128   5.941   4.523   3.920 -0.0880 -0.2273 -0.0613
24945W        W41129  16.132   3.827  15.376 -0.1979  0.0914  0.5031
24946W        W41130  13.451   6.551  15.597  0.1828  0.1119  0.2243
24947W        W41131   9.805   7.251   5.418  0.0199 -0.4156 -0.0506
24948W        W41132  11.383   5.606  14.649  0.3398 -0.0122 -0.0095
24949W        W41133  11.453   8.549   1.702  0.0600  0.0831  0.1858
24950W        W41134  13.824  17.653   5.109  0.0091 -0.2532  0.1062
24951W        W41135   2.323  11.465  16.770 -0.1107 -0.3871 -0.1481
24952W        W41136   3.760   5.497   3.291  0.3209  0.0940 -0.2252
24953W        W41137  12.530   4.752  16.805  0.1049  0.1768  0.1601
24954W        W41138   6.161  15.950   2.723  0.0134 -0.1374  0.4338
24955W        W41139   4.465   6.799   2.328 -0.2312 -0.1200 -0.0722
24956W        W41140   0.915  14.616   3.704 -0.2328 -0.0727 -0.0661
24957W        W41141   2.468   8.446  16.568 -0.3756 -0.1098  0.2331
24958W        W41142   3.726  16.517  12.514 -0.0095 -0.0039  0.1328
24959W        W41143  12.391   5.521   5.630 -0.1080  0.0157  0.2676
24960W        W41144   7.139   8.918   5.517  0.0387 -0.0820  0.0010
24961W        W41145  10.353   4.695   4.172  0.0367 -0.0989  0.2640
24962W        W41146   7.656  14.043   1.803  0.1195 -0.1018  0.0605
24963W        W41147   1.747   8.548   0.613 -0.1715 -0.0004 -0.1531
24964W        W41148   0.471  15.186   4.249 -0.1434 -0.0043  0.1962
24965W        W41149   4.813   5.750  15.608 -0.1161  0.1379 -0.3095
24966W        W41150  11.272  17.204  13.698  0.1953 -0.1170  0.1145
24967W        W41151  12.036   4.180  13.066 -0.1797  0.0992  0.0673
24968W        W41152   1.096   7.657   2.531  0.2020  0.1125  0.0483
24969W        W41153   0.600   4.311  16.639  0.1127  0.0937  0.1071
24970W        W41154  12.192   5.538  15.957 -0.3633  0.0027 -0.1315
24971W        W41155   5.340   0.044   4.488 -0.0949  0.1598 -0.2528
24972W        W41156  14.807  17.697   2.704  0.0855 -0.2005 -0.1553
24973W        W41157   5.844  11.392  13.699 -0.1027 -0.2874 -0.0954
24974W        W41158   2.457  14.222  16.630 -0.5120  0.0041  0.0766
24975W        W41159   2.455   3.218   0.611 -0.1407 -0.1412  0.2277
24976W        W41160  16.005  16.319   2.398 -0.1400 -0.1735  0.0894
24977W        W41161  11.739   1.943  13.887  0.1686 -0.3401  0.1577
24978W        W41162   4.949  17.513   2.780  0.1134 -0.3733  0.1542
24979W        W41163  15.692  14.488  15.398 -0.0104  0.0732  0.2109
24980W        W41164   0.978   5.749   4.995 -0.0956  0.0829 -0.2181
24981W        W41165   1.299  16.178   1.107 -0.0732  0.2261 -0.1524
24982W        W41166  14.809  12.279   2.398  0.0114  0.1843 -0.2116
24983W        W41167  12.508  12.004   5.148  0.4057  0.2100  0.1732
24984W        W41168   6.823  16.000  14.876  0.0855 -0.2419 -0.2371
24985W        W41169  13.788  11.632   3.361  0.0277 -0.0143  0.1994
24986W        W41170   8.820   7.933   2.389  0.1174  0.5563  0.1158
24987W        W41171   8.555   2.653  15.535  0.1433  0.1430  0.2831
24988W        W41172  14.389   6.446  15.201  0.0584  0.2548 -0.1336
24989W        W41173  13.922  11.898   2.872  0.0050 -0.0391 -0.2198
24990W        W41174   2.344  11.276  12.610  0.0803 -0.0047 -0.1485
24991W        W41175  17.744  11.833  16.233 -0.2760  0.3528 -0.1320
24992W        W41176   1.492   1.190  16.157 -0.0063  0.0530  0.2370
24993W        W41177   9.787  12.476   5.237  0.0713 -0.1037  0.2324
24994W        W41178   1.890  12.112   0.179  0.0614 -0.1386  0.1283
24995W        W41179  17.023  10.405  11.981  0.0994 -0.1511 -0.0980
24996W        W41180  14.894   9.678  15.802  0.1841 -0.0708  0.2666
24997W        W41181  11.743  12.648   2.112  0.1305 -0.0821  0.2067
24998W        W41182   3.627  16.834  13.538 -0.1351 -0.5854 -0.2181
24999W        W41183   7.380   5.716   1.844 -0.0420 -0.1364 -0.1808
25000W        W41184  11.283  16.812   5.703  0.2821  0.0328  0.2379
25001W        W41185   8.797  15.341   6.282 -0.2389  0.1549 -0.0440
25002W        W41186   5.940  16.955  11.162  0.3285 -0.0978  0.0056
25003W        W41187   5.193   5.183   3.214  0.1317 -0.3066 -0.0317
25004W        W41188   2.266  10.758  16.290 -0.1817 -0.0022  0.0414
25005W        W41189  13.355  16.558  13.027 -0.1157  0.0789  0.0438
25006W        W41190  11.922  13.750   1.696  0.1717 -0.0553 -0.3315
25007W        W41191   4.121   8.007   2.022  0.1484  0.0451 -0.3818
25008W        W41192   4.304  17.636   0.018 -0.0959 -0.0429  0.0360
25009W        W41193   0.728   3.916   6.310  0.0338 -0.2879  0.1265
25010W        W41194   8.596  15.710  13.942 -0.2588  0.0010 -0.2121
25011W        W41195   4.605  10.598  15.229  0.2074 -0.1712  0.2969
25012W        W41196   6.451   0.560  15.015  0.0643  0.0361  0.0185
25013W        W41197   9.767   8.333  15.633 -0.1448 -0.2321  0.1541
25014W        W41198  17.450   5.316   3.266 -0.0614 -0.0373  0.0428
25015W        W41199   1.170   6.479  14.014 -0.0920  0.0468  0.1176
25016W        W41200  14.635  15.604   5.281 -0.0979  0.0331  0.0999
25017W        W41201  15.872   5.543   2.683 -0.3022 -0.1282  0.0121
25018W        W41202   8.559  11.954   2.010  0.1968 -0.0484 -0.2752
25019W        W41203  16.165   7.797   1.201  0.1751 -0.0991 -0.0484
25020W        W41204   6.866  12.231  13.234  0.0559 -0.4374 -0.2159
25021W        W41205  15.014   3.710   2.655  0.0931 -0.1806 -0.0839
25022W        W41206   3.406   6.764  15.577 -0.1490 -0.1576  0.2289
25023W        W41207  11.824   7.361  12.898 -0.1950 -0.3657 -0.1103
25024W        W41208   3.581   4.997  14.005 -0.1050  0.1175 -0.1555
25025W        W41209   2.691   9.590  14.533 -0.0734  0.2165  0.0258
25026W        W41210   0.791  17.421   2.339  0.0494 -0.1944 -0.0619
25027W        W41211   9.447  13.312   0.361  0.2907 -0.1439 -0.1425
25028W        W41212   8.381   5.116  13.643  0.0395  0.0854  0.1138
25029W        W41213   6.586   4.446   5.753  0.0395 -0.0562 -0.1553
25030W        W41214   4.657   5.604  13.615  0.1769 -0.1967  0.4448
25031W        W41215   9.082  15.342   3.806 -0.0638 -0.1067  0.1787
25032W        W41216  11.737  14.534  13.467 -0.2753  0.2133  0.1063
25033W        W41217  10.815   4.041  14.080 -0.1226  0.2394 -0.1112
25034W        W41218   5.178   4.183  15.920  0.1748 -0.0317  0.0665
25035W        W41219   8.761   5.420   2.491  0.2892 -0.2626 -0.1059
25036W        W41220  12.577  10.073  15.462 -0.0537 -0.0571 -0.2423
25037W        W41221   0.478  12.084  14.944  0.0659 -0.0828  0.2621
25038W        W41222   5.837   5.664   6.240 -0.1742  0.0709 -0.0167
25039W        W41223   1.734  14.438   5.198 -0.0646  0.1151 -0.2155
25040W        W41224  16.129   0.569  14.697 -0.1884  0.2962  0.2253
25041W        W41225   6.644   3.345  15.302 -0.3658  0.1139  0.1151
25042W        W41226   0.390   0.432   1.524  0.2981  0.1252 -0.0412
25043W        W41227  10.880   2.224  14.103  0.4065  0.1973 -0.1007
25044W        W41228   6.554   2.133   4.634  0.0660 -0.1725 -0.1377
25045W        W41229  11.691   2.589   3.361 -0.1874  0.3103  0.0885
25046W        W41230   6.708   3.397  11.859  0.2270  0.0544 -0.0791
25047W        W41231   7.067   4.487   5.638 -0.2405  0.0441  0.2494
25048W        W41232  11.496   4.554  11.758 -0.0385  0.2890 -0.0744
25049W        W41233   5.197  16.591  15.268 -0.1108  0.2027 -0.0214
25050W        W41234  15.215   1.681  12.994  0.0344 -0.1476 -0.1600
25051W        W41235  15.263   8.764  15.734 -0.3229  0.2500  0.0425
25052W        W41236   6.382  16.988   0.220  0.1859  0.2450  0.1641
25053W        W41237   3.788  12.023   1.124  0.1484 -0.0809 -0.0508
25054W        W41238  12.197  17.410   3.590 -0.1909 -0.3159 -0.2123
25055W        W41239   6.688   4.431   4.516 -0.1118  0.1201  0.0953
25056W        W41240   4.672   7.823   2.998 -0.0587  0.2342  0.0421
25057W        W41241   9.682  11.406  13.416  0.1058 -0.1085  0.2093
25058W        W41242  14.134   6.649   0.645  0.2612  0.0937 -0.0208
25059W        W41243  16.226   2.316  16.185  0.2477 -0.2867  0.3221
25060W        W41244   0.215   2.213  13.780  0.0901 -0.0793 -0.2840
25061W        W41245   0.505   7.711   5.431 -0.1763  0.0244 -0.3356
25062W        W41246   9.721   5.313   1.756  0.2835 -0.1162  0.1617
25063W        W41247   5.507   3.104  10.900  0.5008 -0.0301  0.3637
25064W        W41248  13.705   5.375  14.433  0.0243 -0.0206 -0.0042
25065W        W41249  16.486  14.535  11.703 -0.3705 -0.0494 -0.2627
25066W        W41250  16.810   7.889  11.778 -0.1595 -0.3483  0.2884
25067W        W41251  11.614  16.072  15.783  0.1633 -0.0865 -0.2443
25068W        W41252  13.806   7.483   3.256 -0.2097  0.0174  0.0672
25069W        W41253  11.439   5.075   2.100  0.0525 -0.0757  0.0193
25070W        W41254  14.682  10.460   0.035  0.0892 -0.0577  0.2831
25071W        W41255   8.954  11.104  12.555 -0.1033  0.1560  0.0815
25072W        W41256   9.927  12.650   0.281  0.0698 -0.3139 -0.1324
25073W        W41257  13.015  15.525   5.927  0.0823 -0.0206  0.2849
25074W        W41258   6.853  17.451   5.165  0.0272 -0.0664 -0.2356
25075W        W41259  13.746   9.477  16.596 -0.1636 -0.0161 -0.1020
25076W        W41260  15.475  17.120   2.890 -0.1120  0.1647  0.1189
25077W        W41261   0.365   0.615   0.686  0.0347 -0.0741  0.1320
25078W        W41262  16.727  14.038   1.205 -0.0072 -0.3714 -0.1224
25079W        W41263  13.819   1.149   5.420 -0.0458 -0.2917  0.2754
25080W        W41264  16.342   2.025   3.257  0.0663 -0.2931 -0.0754
25081W        W41265   1.402   8.012   4.721 -0.0012 -0.0506 -0.0001
25082W        W41266   5.662  14.399   2.885 -0.4108 -0.4233 -0.0132
25083W        W41267  16.742  14.930   4.263  0.1986  0.0850  0.0186
25084W        W41268   4.591  17.735   3.923 -0.0705 -0.0501 -0.0587
25085W        W41269  16.629   5.519   2.026  0.0329  0.0125 -0.0465
25086W        W41270   8.422   3.767  13.396  0.4072 -0.1434 -0.1789
25087W        W41271  14.319   0.607  16.460  0.1754  0.1033  0.1622
25088W        W41272  10.242   4.868   2.699 -0.2221 -0.1715  0.0300
25089W        W41273  14.618   6.974  13.602 -0.0177  0.0143  0.1970
25090W        W41274   8.246  16.535  14.787  0.2331 -0.1566  0.4006
25091W        W41275  11.232  10.834   3.686 -0.1968 -0.1030  0.0313
25092W        W41276   0.721   3.439   1.187  0.3608 -0.0001 -0.1955
25093W        W41277  13.375  11.434  16.442  0.0279  0.0770  0.0336
25094W        W41278  11.323   0.876   2.760 -0.2782 -0.0238  0.0472
25095W        W41279  10.684   8.263   3.345 -0.1552  0.0336  0.1709
25096W        W41280  17.567  15.497   0.516  0.0826 -0.1917 -0.0878
25097W        W41281  13.131   4.545   2.007 -0.0539 -0.2822  0.0654
25098W        W41282   8.090  14.836   5.596  0.2231 -0.1543  0.0658
25099W        W41283   6.775   5.925   1.727  0.1199  0.1835 -0.2284
25100W        W41284  15.657   5.658  13.036 -0.0459 -0.2380 -0.2192
25101W        W41285  15.985   9.552  12.482  0.1982  0.1092  0.0526
25102W        W41286   4.863   0.215  12.688  0.0915 -0.1439  0.2890
25103W        W41287   3.534  13.309   1.429 -0.0246 -0.0850  0.0167
25104W        W41288   5.934   4.332  15.022 -0.1623 -0.2157  0.3758
25105W        W41289  13.043  12.661  16.516  0.2383  0.1841  0.3656
25106W        W41290   6.409  12.939   0.318 -0.0630 -0.0449  0.1465
25107W        W41291  15.148   3.808  16.765 -0.1770  0.3899  0.0811
25108W        W41292   0.662  15.904   0.708 -0.1808  0.1562 -0.1354
25109W        W41293  14.286  14.091  14.978 -0.0752 -0.0948  0.5094
25110W        W41294  14.648   7.970  16.886  0.1388 -0.3072 -0.1918
25111W        W41295  11.674   7.954   2.826  0.1098 -0.1210 -0.0750
25112W        W41296   1.488   4.496  11.290 -0.1890  0.0493 -0.0140
25113W        W41297  16.894   9.644   6.134 -0.2543 -0.1486 -0.1001
25114W        W41298   9.603   2.483   2.260  0.3585 -0.1515 -0.0710
25115W        W41299   3.271   5.521  12.100  0.1605 -0.2590 -0.0868
25116W        W41300   9.758  14.541   3.062 -0.1670 -0.0745  0.0699
25117W        W41301   1.623   8.015   5.353  0.0743 -0.0579  0.1090
25118W        W41302  12.737   1.682  12.275  0.0343 -0.1325 -0.1762
25119W        W41303   9.086   3.248   0.362  0.0904 -0.1156 -0.0079
25120W        W41304   5.039   8.559  13.810  0.0580 -0.1470  0.0435
25121W        W41305  13.160  15.831   2.056 -0.2896 -0.1569 -0.0067
25122W        W41306   1.467   2.114   3.738  0.0067 -0.1305 -0.0457
25123W        W41307   8.243  13.390   4.620  0.1584  0.0686 -0.0232
25124W        W41308   2.087   8.115   0.743  0.2590 -0.0510 -0.1647
25125W        W41309   8.877  14.950  10.847 -0.2617  0.1777 -0.0304
25126W        W41310   9.261  12.714  11.965  0.0246  0.0325 -0.3431
25127W        W41311   3.811   8.325  12.513  0.0187  0.0662 -0.5148
25128W        W41312  11.008  12.903  14.280 -0.2257 -0.1689 -0.0114
25129W        W41313  13.065   9.471   1.942  0.0593 -0.2355 -0.1634
25130W        W41314  10.086  12.467  13.194  0.0071  0.2946 -0.0994
25131W        W41315  16.578  10.169  14.953 -0.0806 -0.0353 -0.1725
25132W        W41316   8.708   4.463  12.272 -0.4656  0.4331 -0.0514
25133W        W41317  17.819  13.677   2.746  0.0246  0.1244 -0.1013
25134W        W41318  12.995   2.114   0.932  0.0871  0.0493  0.2134
25135W        W41319   0.813  14.773   5.945 -0.1043 -0.3926 -0.0809
25136W        W41320   1.511  17.293  13.469  0.0635  0.2954  0.2426
25137W        W41321  17.399  14.774  15.993  0.0145  0.0949 -0.2343
25138W        W41322  15.910   1.298  16.448  0.3090 -0.2717 -0.4032
25139W        W41323   9.389   7.675   1.159  0.3922  0.0423 -0.2297
25140W        W41324   1.816  14.775  12.718  0.0755  0.1304  0.1939
25141W        W41325   6.401   8.197  13.200  0.2728 -0.4599 -0.0444
25142W        W41326   4.617  10.863  13.517  0.3723  0.2412 -0.0820
25143W        W41327  11.810  10.664   3.750  0.1513  0.4049  0.0597
25144W        W41328  13.573   0.446  11.938 -0.1078 -0.3474  0.2580
25145W        W41329  15.048   6.823   3.028  0.0705  0.2054  0.1182
25146W        W41330   1.742   7.416  16.817  0.0804  0.1344  0.0004
25147W        W41331  15.067   5.416  12.145  0.1278  0.2901 -0.0050
25148W        W41332  16.441  12.374  14.730 -0.1211  0.0443 -0.0470
25149W        W41333   5.296  16.724   5.884  0.1462 -0.1145  0.4574
25150W        W41334   6.727  10.433   0.968 -0.2086  0.3204  0.0700
25151W        W41335   9.852   6.386   1.092  0.0643  0.3703 -0.0179
25152W        W41336   9.440   9.866   6.281  0.2497 -0.2035  0.1313
25153W        W41337  11.908  15.527  15.758  0.2365  0.1983  0.0269
25154W        W41338  10.032   5.872   5.560 -0.1608  0.1611 -0.0601
25155W        W41339  17.411   0.648   0.616  0.0819 -0.0051 -0.1450
25156W        W41340   4.478   1.231  13.520  0.0894  0.1734 -0.0588
25157W        W41341   5.475  11.964  12.019 -0.0642 -0.1001  0.0576
25158W        W41342   7.893  15.726  13.972  0.2029  0.1710  0.0509
25159W        W41343  14.383  10.179  12.425  0.2057  0.1182  0.0105
25160W        W41344  16.486  13.942   2.242 -0.0652  0.0500 -0.0457
25161W        W41345  14.942  13.477  13.716 -0.1313 -0.0067 -0.0353
25162W        W41346   4.418  15.684  15.789  0.1399  0.0218 -0.1474
25163W        W41347   3.528   8.064  15.701  0.0006  0.0682 -0.3144
25164W        W41348   7.588  12.666  16.356 -0.0071  0.1353 -0.1677
25165W        W41349   2.072  11.677   3.697 -0.1990  0.0053  0.0195
25166W        W41350   3.338  11.391   2.195 -0.0184 -0.1551 -0.0498
25167W        W41351   3.588  16.253  11.961 -0.1687 -0.1253  0.0750
25168W        W41352   6.784  13.889  12.116  0.0190 -0.3288 -0.3606
25169W        W41353   5.314   9.334   0.946  0.0281  0.2129 -0.0848
25170W        W41354   8.894   3.355  16.815  0.2240  0.1467  0.0950
25171W        W41355   8.442   5.941   0.612 -0.2886  0.2248  0.2763
25172W        W41356  17.031   5.534   4.836 -0.1647 -0.1691 -0.2507
25173W        W41357   5.480   0.684  15.696 -0.2414  0.0641  0.2783
25174W        W41358  17.876  10.980   5.125  0.1757  0.2109 -0.1763
25175W        W41359  11.406  11.086   5.795 -0.0839  0.0277 -0.2056
25176W        W41360   4.200   6.611   5.601  0.1805  0.0544  0.1920
25177W        W41361   8.221  16.341  12.015 -0.2316 -0.1419 -0.0121
25178W        W41362  16.259   0.647   5.591 -0.1091 -0.1959 -0.0114
25179W        W41363  13.655  17.502  13.752 -0.0134  0.1143  0.1729
25180W        W41364  10.077  15.166  13.935 -0.0888  0.2412 -0.3329
25181W        W41365  14.121   7.003  12.294 -0.0944  0.1311  0.0782
25182W        W41366   3.365   9.580   2.629  0.1002  0.1639 -0.0862
25183W        W41367  10.598   2.944  12.401 -0.3275 -0.4964 -0.0846
25184W        W41368   3.752  12.328  12.871  0.2303 -0.3821 -0.0538
25185W        W41369   5.782  11.306  14.234 -0.2562 -0.0762 -0.2026
25186W        W41370   8.538   7.168   4.106  0.2268  0.3256 -0.1272
25187W        W41371   1.553  10.227   1.699  0.2670 -0.2189 -0.1588
25188W        W41372  16.071   1.972   5.692  0.3835  0.1203 -0.1006
25189W        W41373  14.215   1.475   0.116  0.3685  0.2452  0.0359
25190W        W41374   6.037   3.664   2.966 -0.1351  0.1818 -0.1480
25191W        W41375   0.759   3.810   5.505 -0.0737  0.3472 -0.1923
25192W        W41376   0.815   0.894  16.826  0.1278 -0.2469 -0.3464
25193W        W41377   3.808  14.564   5.707  0.3530  0.1696 -0.0258
25194W        W41378  16.014  17.373  12.582  0.0256  0.3205 -0.1875
25195W        W41379  10.388  13.334  13.055 -0.2243 -0.0513  0.0457
25196W        W41380   1.884   1.281   5.292 -0.0627 -0.0307 -0.0356
25197W        W41381   6.466  11.364  11.675  0.2940  0.2112  0.1779
25198W        W41382  13.259   0.813   3.727 -0.1757  0.0294  0.0588
25199W        W41383   2.358   4.487   5.389 -0.2360  0.5882  0.2125
25200W        W41384   3.206   1.908   2.814  0.2804 -0.0409  0.0362
25201W        W41385  17.849   4.156   1.367 -0.0359  0.2569  0.0830
25202W        W41386  10.637  10.399   1.080  0.0906 -0.1816 -0.0908
25203W        W41387  13.768  14.240  14.826 -0.3113  0.1404 -0.0805
25204W        W41388  15.859   3.045   0.094  0.1255 -0.0523 -0.4955
25205W        W41389  10.298  10.651  14.990 -0.2194  0.3730 -0.1439
25206W        W41390   8.096  10.082   5.756 -0.0922 -0.3684  0.0322
25207W        W41391  13.990  17.168  12.205 -0.1673  0.3645  0.1824
25208W        W41392   0.559   2.164   1.811 -0.1454  0.3976  0.3991
25209W        W41393   7.235   7.607  13.247  0.2288  0.1668  0.0995
25210W        W41394  17.509  11.011   2.484  0.1937 -0.1511  0.0449
25211W        W41395   5.698   2.941  15.352 -0.1484 -0.0484  0.2037
25212W        W41396   0.136   5.556  13.481  0.1353 -0.1973  0.2470
25213W        W41397   6.860   4.435  13.869 -0.0316  0.2403  0.3047
25214W        W41398   6.963  14.862   1.587  0.0405  0.1498 -0.0212
25215W        W41399   7.391  14.802  14.772  0.1680 -0.2405 -0.0492
25216W        W41400   7.017   7.864   3.111 -0.2549 -0.0199  0.0937
25217W        W41401  16.385   3.720   1.625 -0.0113  0.0015  0.0788
25218W        W41402  14.110  16.185  15.504 -0.4256 -0.2353 -0.0641
25219W        W41403  10.792   6.511  15.357  0.0771 -0.0433 -0.1868
25220W        W41404  13.784   7.775   1.444 -0.1062 -0.1032  0.0868
25221W        W41405  12.258  16.333  16.163  0.2864 -0.0391 -0.1290
25222W        W41406  17.810   1.149   5.379 -0.0781  0.0622  0.0426
25223W        W41407   1.362  10.166  12.886  0.2711 -0.1515 -0.0338
25224W        W41408  13.300   2.259  15.110  0.0227 -0.2183  0.1706
25225W        W41409   3.120   0.490   4.639 -0.1380 -0.0124 -0.1852
25226W        W41410  13.027  11.535  15.167  0.1431  0.0388 -0.1873
25227W        W41411  14.116  15.406  12.271 -0.1243 -0.2675 -0.1312
25228W        W41412   2.652   0.246   2.312  0.0436  0.1207  0.2686
25229W        W41413   8.292  12.158  15.802  0.2477 -0.1108 -0.3332
25230W        W41414   3.655  10.644   0.501  0.1514 -0.1008 -0.3300
25231W        W41415  13.966   4.922  12.867  0.0930  0.0054  0.0065
25232W        W41416   4.050  10.687   3.968 -0.1287 -0.0016  0.1766
25233W        W41417   3.071   0.512  16.298  0.1448 -0.0399  0.0063
25234W        W41418  10.049   6.445   2.843  0.1873  0.0970 -0.1444
25235W        W41419  13.970   8.699   2.089  0.3768  0.1774  0.2721
25236W        W41420  11.384  14.536  12.457 -0.0136 -0.0545  0.0143
25237W        W41421   1.201  13.417   4.612 -0.1060  0.0142  0.0462
25238W        W41422   1.838  16.587  13.945  0.0217  0.1752 -0.0732
25239W        W41423   7.531   8.672  13.467  0.4891  0.1269 -0.0686
25240W        W41424  13.793   0.167  12.281  0.1133 -0.0056 -0.1228
25241W        W41425   0.340  10.478  11.888 -0.0129 -0.0544  0.1752
25242W        W41426   3.095   4.379  15.410  0.2219  0.0473  0.3434
25243W        W41427   7.185   4.825   0.885  0.0306 -0.1623 -0.0379
25244W        W41428  12.455  17.588  16.278  0.0317 -0.1585  0.2153
25245W        W41429  14.543  12.498  12.108 -0.3898 -0.2071  0.0743
25246W        W41430   8.896   2.932   1.509  0.1512  0.0685  0.3269
25247W        W41431  16.906   1.436  16.039  0.0388 -0.0099 -0.0843
25248W        W41432   1.958  10.230  14.904 -0.3131 -0.1310  0.0034
25249W        W41433   5.350  11.786  16.002 -0.4375  0.5150  0.0941
25250W        W41434   5.919   2.841  13.040  0.0267  0.4336 -0.2169
25251W        W41435   6.324  10.611  16.056  0.2771 -0.1529  0.2565
25252W        W41436   7.290  12.867   0.581  0.0790  0.0172 -0.1701
25253W        W41437   9.697   4.559   4.528 -0.1676  0.0766  0.1465
25254W        W41438   2.264   4.822   3.437 -0.1411  0.1669  0.0806
25255W        W41439   6.355   8.836   3.798 -0.0718  0.0268 -0.0491
25256W        W41440   8.226   7.047   5.609 -0.0442 -0.1754  0.0721
25257W        W41441   4.008  11.533  12.850  0.0944 -0.1120 -0.1597
25258W        W41442   3.630  17.004   3.528 -0.0866  0.0042 -0.2676
25259W        W41443   8.606  16.281   0.034  0.0981 -0.1050  0.0012
25260W        W41444   9.346   3.325   5.320  0.0878 -0.1936 -0.0671
25261W        W41445  16.877   4.428  14.340  0.0664  0.0176  0.0849
25262W        W41446   1.030   4.201  16.322  0.1531 -0.0061  0.1189
25263W        W41447   9.014  16.625   2.010  0.2028  0.2053  0.0314
25264W        W41448  15.735   5.075   3.465  0.0427  0.1382  0.2282
25265W        W41449  16.441  17.506   0.325  0.0544 -0.0703  0.2149
25266W        W41450   4.309  13.676   3.983  0.0855  0.0430  0.0434
25267W        W41451   8.609   1.923   5.376  0.1339  0.1797 -0.4295
25268W        W41452  16.098  11.964   3.146 -0.1153  0.2984  0.0704
25269W        W41453  16.241   6.582   2.576  0.4343 -0.0493 -0.1934
25270W        W41454  14.596   5.710   0.350 -0.2675  0.2943  0.0798
25271W        W41455   5.237  15.678  11.361 -0.0164 -0.0385 -0.0670
25272W        W41456  11.321  14.517  13.815  0.0581 -0.1954 -0.1459
25273W        W41457   4.317   2.626   3.361 -0.2914  0.2823  0.2643
25274W        W41458  12.581  14.901   0.717 -0.2650  0.0058  0.3015
25275W        W41459  14.367  17.361  11.813  0.1084 -0.0080  0.1125
25276W        W41460   8.365   9.964  12.643 -0.0977 -0.0706 -0.3108
25277W        W41461  16.764  10.040   3.060  0.1935 -0.3574  0.2208
25278W        W41462  12.745   1.195  12.145  0.3725  0.0684  0.2642
25279W        W41463  11.851  17.362  12.040 -0.0143  0.1167 -0.2470
25280W        W41464  17.521   8.021   1.249  0.0395  0.1427 -0.0605
25281W        W41465   1.573   0.624  10.361 -0.1549  0.0401  0.0514
25282W        W41466  14.350   2.685   2.872 -0.2378  0.1947  0.1743
25283W        W41467  17.112  12.005   3.973 -0.0705  0.1207  0.1922
25284W        W41468   8.410   7.181  11.538 -0.1505  0.1117 -0.3481
25285W        W41469   2.270   1.461  14.620  0.0651  0.1857 -0.3581
25286W        W41470  11.573  14.064  11.666 -0.2239  0.2291  0.0502
25287W        W41471   3.089   0.159  14.734 -0.2494  0.0168 -0.2245
25288W        W41472  10.675  13.560   5.452  0.0222  0.0033  0.0412
25289W        W41473  13.913   4.572   4.098 -0.0297 -0.2024  0.0509
25290W        W41474   9.615  15.655   0.703  0.1463 -0.2215  0.3118
25291W        W41475   0.495  12.754  13.713 -0.0306  0.0964 -0.0072
25292W        W41476   1.962  14.311  12.705 -0.1640 -0.3161 -0.1644
25293W        W41477  15.754   6.518   1.257 -0.0585  0.3486 -0.0584
25294W        W41478   6.524  13.427   4.059  0.0307  0.0948 -0.1987
25295W        W41479  14.568   4.621   1.735  0.0318  0.1111 -0.0286
25296W        W41480   8.585   9.857   5.746 -0.0719 -0.1893 -0.2342
25297W        W41481   0.392   7.695   5.943 -0.1477  0.2662 -0.1392
25298W        W41482   6.476  17.463  11.081 -0.1807  0.3007 -0.0144
25299W        W41483   4.464  13.152   4.083 -0.0442  0.0280  0.2282
25300W        W41484   4.497   7.346  16.278 -0.0853 -0.0567 -0.2648
25301W        W41485   4.266   7.612  15.239  0.0818  0.0580  0.0377
25302W        W41486   6.753  17.332   1.744  0.2759 -0.1072  0.1646
25303W        W41487  10.665   6.038   4.142  0.3124 -0.0548 -0.0243
25304W        W41488  13.961  16.489   6.063 -0.3446  0.1674 -0.3170
25305W        W41489   8.480  16.606   2.105  0.2281  0.1132  0.1777
25306W        W41490   6.268   4.887  15.849 -0.0213 -0.0754 -0.3106
25307W        W41491   8.702  16.519   5.536  0.1892 -0.1631  0.2296
25308W        W41492   6.093   0.162  13.935  0.2198  0.1825  0.1753
25309W        W41493   3.469  10.688  11.787 -0.1569  0.2136 -0.1006
25310W        W41494   2.300  11.315   0.515 -0.1204  0.1547  0.1129
25311W        W41495   1.692   6.890   3.858  0.1415  0.0714  0.1429
25312W        W41496  17.624   4.737  14.245  0.3446  0.1573  0.0156
25313W        W41497   6.741   7.213  12.188  0.0190  0.1433  0.2212
25314W        W41498  15.951   7.211   1.891  0.0703 -0.0204 -0.0111
25315W        W41499  14.076  15.988  11.520  0.2656 -0.1550 -0.3500
25316W        W41500   7.574   2.133   1.481  0.1613  0.1145  0.3227
25317W        W41501   6.654  11.857  13.997  0.1396  0.0612 -0.2117
25318W        W41502   9.351   1.222   2.727  0.0185 -0.1139  0.1516
25319W        W41503   0.419   9.846   6.367  0.1474 -0.3774 -0.1012
25320W        W41504  10.411   2.479   0.733 -0.3241  0.0153  0.2118
25321W        W41505  15.673   9.717  14.908 -0.0714 -0.2977  0.0589
25322W        W41506   9.423   2.808  12.885 -0.0449 -0.1319  0.0403
25323W        W41507  13.865   9.605  13.664  0.3968 -0.2650  0.1356
25324W        W41508  14.237   2.096  12.139 -0.0470 -0.3078 -0.0911
25325W        W41509  11.420   5.850   5.370  0.0696 -0.2815 -0.1303
25326W        W41510   1.023  15.419   0.036  0.1869 -0.2011  0.1053
25327W        W41511   7.981   7.567   1.776  0.1273 -0.1497  0.0951
25328W        W41512  16.777  15.316  12.393  0.3265  0.0754  0.0672
25329W        W41513  16.953   9.144  12.541 -0.0996  0.1714  0.0171
25330W        W41514   0.639   2.354   4.178 -0.2727  0.0293 -0.0161
25331W        W41515   6.159  12.909  15.523  0.0850  0.1168  0.4111
25332W        W41516   0.312   1.713  12.177  0.0970 -0.0659  0.0589
25333W        W41517  16.067  12.776   1.573  0.0293 -0.2449 -0.0089
25334W        W41518  13.169   4.531  16.136 -0.0918 -0.2830  0.0666
25335W        W41519   4.231   0.879  11.561  0.2315  0.0433  0.0232
25336W        W41520  14.411  16.708   0.599  0.0997 -0.0847  0.1889
25337W        W41521   2.763  16.901  13.908  0.2563  0.0035 -0.0522
25338W        W41522   9.460   9.852  16.046  0.0059  0.0315  0.3317
25339W        W41523  14.634  16.134   5.354 -0.0930  0.0565  0.1935
25340W        W41524   5.794   4.782   0.791 -0.0161 -0.1289 -0.3806
25341W        W41525   4.434   6.622   0.982 -0.0566  0.2880 -0.1926
25342W        W41526   9.592   0.357   2.095 -0.2035  0.3228  0.0655
25343W        W41527   7.840   7.165   1.104  0.0180  0.1020  0.0651
25344W        W41528   0.517   2.682  13.661  0.1551 -0.0103  0.0650
25345W        W41529  16.566  12.059  12.010 -0.1843  0.0024  0.0062
25346W        W41530   7.727   5.592   4.217 -0.0277 -0.0412 -0.2298
25347W        W41531  10.535   6.116  12.885 -0.1694 -0.2530  0.1051
25348W        W41532   1.337   7.288  16.394 -0.0482 -0.2110  0.0495
25349W        W41533   3.489   1.014  14.043 -0.3161  0.1015  0.0497
25350W        W41534   7.806   1.095  15.146  0.1502 -0.2577 -0.0327
25351W        W41535  17.542   9.966   0.093 -0.0609  0.0604  0.4003
25352W        W41536   2.725   1.699   5.758 -0.1585 -0.3805  0.0115
25353W        W41537   4.701   5.763  12.076  0.1169 -0.3171  0.0228
25354W        W41538  16.700   8.993   4.605 -0.1540  0.1814 -0.3959
25355W        W41539   3.265  13.793   3.148 -0.2030 -0.1074 -0.1713
25356W        W41540   9.313   5.441  15.206  0.0843 -0.0017 -0.3084
25357W        W41541  10.664  14.089   5.743 -0.2005 -0.3577  0.1858
25358W        W41542  10.471   3.732   1.723  0.1665 -0.3480  0.1660
25359W        W41543   3.528   0.751   4.765  0.0564  0.2378  0.1711
25360W        W41544  10.376  15.096  10.918  0.1835 -0.0717  0.2600
25361W        W41545  12.427   6.718   3.973  0.1258 -0.1337  0.3001
25362W        W41546  13.106   3.552   4.938  0.2117 -0.0744  0.0567
25363W        W41547  13.335  13.219  16.210 -0.0159  0.4896  0.1842
25364W        W41548  11.442  10.978   0.564 -0.2952 -0.1597  0.0596
25365W        W41549   0.157  11.682  14.318 -0.1857 -0.0070 -0.3126
25366W        W41550  13.552   4.133  13.139 -0.2749  0.1778 -0.2366
25367W        W41551   6.157   6.534   3.017  0.2712  0.1224 -0.0219
25368W        W41552   0.926  13.871   4.398 -0.2397 -0.1335 -0.0079
25369W        W41553  16.590  17.225  13.713  0.1723 -0.0629  0.2730
25370W        W41554   3.376   1.994  13.875  0.1428 -0.0020 -0.1101
25371W        W41555   9.366   3.348   4.693  0.1360 -0.2835  0.1711
25372W        W41556   7.995   4.820  16.059 -0.1490 -0.1309  0.1006
25373W        W41557  12.863   0.351   5.448 -0.1953  0.0856  0.2971
25374W        W41558   0.702   0.422  11.067  0.2530 -0.4810 -0.1115
25375W        W41559  15.085  13.742  16.135  0.2005 -0.3163  0.1208
25376W        W41560   8.100  14.081  13.829 -0.0802  0.0359 -0.1552
25377W        W41561   9.285   5.383   5.580 -0.2878 -0.3050 -0.1798
25378W        W41562   9.616  12.777  13.312  0.1928  0.0969  0.2450
25379W        W41563  13.190   5.586  15.329 -0.0393 -0.4049  0.1289
25380W        W41564  15.960   2.981   2.809 -0.1927  0.0601 -0.0880
25381W        W41565   1.953  14.016   4.491 -0.0298 -0.2458 -0.0640
25382W        W41566  15.115   2.624   0.469  0.1883 -0.2029 -0.2307
25383W        W41567  16.239  12.772   2.434  0.2533  0.0556  0.0444
25384W        W41568  14.194  16.352   5.564  0.3559 -0.0214  0.2376
25385W        W41569  17.632  13.059  14.958 -0.0417  0.1932  0.1770
25386W        W41570   4.128  13.618  11.250 -0.1115 -0.1886 -0.0474
25387W        W41571   7.737  11.567  12.880  0.1984 -0.0013  0.0006
25388W        W41572  14.898  12.267   0.609 -0.1571 -0.0082  0.0401
25389W        W41573   0.868   1.677   0.048  0.3167  0.0879  0.0425
25390W        W41574   8.873  13.587   5.521  0.0947 -0.0568  0.1105
25391W        W41575  10.082   5.418  15.217  0.0495  0.0368  0.3304
25392W        W41576  10.631   3.292   4.196  0.0492 -0.1849  0.0954
25393W        W41577   2.763  11.624  12.437  0.0706  0.1545  0.5056
25394W        W41578   2.598  10.990  12.215  0.1146  0.0388  0.0355
25395W        W41579  14.234  16.813  13.980  0.0447 -0.0338 -0.2192
25396W        W41580   8.672  13.993   4.260 -0.0500  0.0305 -0.0485
25397W        W41581   5.222  16.112   2.477  0.0085  0.3208  0.1424
25398W        W41582  17.247   3.413   2.105 -0.0528 -0.0983  0.0630
25399W        W41583   7.122   5.818  13.284  0.2770 -0.2755  0.1347
25400W        W41584   6.624  16.131   3.015  0.5348  0.0211  0.2066
25401W        W41585   3.293   0.697   4.244  0.1407  0.0587 -0.0687
25402W        W41586   8.092   1.498  16.794  0.1613  0.1570  0.2789
25403W        W41587  16.587   7.729  15.085 -0.0373 -0.4289  0.0803
25404W        W41588  13.916   4.323  15.021 -0.0951 -0.4595  0.1763
25405W        W41589   0.519  17.365   6.087  0.0423 -0.1978 -0.0251
25406W        W41590   0.893   3.946   0.956  0.0754  0.2150 -0.0340
25407W        W41591   3.965   3.921   5.919  0.2093 -0.0724  0.1302
25408W        W41592   7.924   0.987   0.856 -0.2128 -0.0463  0.0261
25409W        W41593   6.295  11.372   5.604 -0.4906  0.2928  0.1966
25410W        W41594   4.704   7.473  11.135  0.1201  0.0600 -0.3182
25411W        W41595   5.178  14.401  13.102 -0.3580  0.1742 -0.1382
25412W        W41596   0.458  17.115  16.563  0.0319 -0.1284  0.2067
25413W        W41597  15.294  16.237   0.119 -0.1426  0.2136 -0.0124
25414W        W41598  16.558   2.273  11.801 -0.0748  0.0693  0.0369
25415W        W41599   9.214   5.923   5.213  0.0050 -0.1593 -0.1883
25416W        W41600  10.428  17.840  14.493  0.2548 -0.0099 -0.1085
25417W        W41601   8.428   8.778   2.506 -0.1103  0.0706 -0.0402
25418W        W41602  16.116   1.612   2.329 -0.1405  0.0812  0.1546
25419W        W41603  15.746  12.575  10.690  0.1767 -0.2184  0.1446
25420W        W41604  11.092   2.504   1.927 -0.0594 -0.1828 -0.2808
25421W        W41605  17.699  11.547   1.710 -0.2333 -0.0762  0.2143
25422W        W41606   0.904  16.842   3.133  0.1317 -0.1760 -0.1976
25423W        W41607  14.303   0.126   5.712 -0.2343 -0.0158  0.0329
25424W        W41608  12.098   7.735  16.739  0.0706 -0.0425 -0.3773
25425W        W41609   7.304   3.358  12.605  0.1223  0.0709 -0.0128
25426W        W41610   6.590   5.560  12.701 -0.0976 -0.1346 -0.0863
25427W        W41611   1.283   7.834   3.030 -0.0358 -0.1633  0.1275
25428W        W41612  13.248  14.286   2.316  0.2453 -0.3518 -0.2661
25429W        W41613  15.167  16.771  11.988  0.1366  0.0815 -0.0284
25430W        W41614  10.633  16.125   2.483  0.2436  0.0917  0.2987
25431W        W41615  16.078  10.958  15.495 -0.3782  0.1611 -0.1249
25432W        W41616   1.573  11.523  15.718  0.1022  0.0836  0.0807
25433W        W41617   5.812   2.067  12.484  0.0011  0.1417  0.3171
25434W        W41618  11.559   0.464  12.357 -0.0586  0.0950  0.2906
25435W        W41619  15.609  16.849  13.972 -0.1080 -0.0312  0.3733
25436W        W41620  12.647  15.937  13.544 -0.0287  0.1827 -0.0887
25437W        W41621  17.072  10.682   2.561 -0.0883  0.0719  0.0853
25438W        W41622   2.131   0.824  13.826  0.0173  0.0199 -0.1656
25439W        W41623   8.047   5.019   4.740 -0.3028 -0.1759  0.1582
25440W        W41624   4.524   8.322   3.421 -0.2169  0.0856 -0.0070
25441W        W41625   1.064   1.297   0.771  0.4564  0.0944  0.0835
25442W        W41626   4.324   7.019  14.247 -0.0515 -0.0009 -0.0206
25443W        W41627  12.176   9.062  14.388 -0.1748 -0.0502  0.0520
25444W        W41628   7.701  14.143   2.956  0.0955 -0.4956 -0.1122
25445W        W41629   2.787   0.154  16.493 -0.1635 -0.1198 -0.2084
25446W        W41630   4.944   5.894  14.924 -0.1080  0.0292 -0.0705
25447W        W41631   7.464   4.326   4.087  0.0595  0.2382  0.0414
25448W        W41632  16.816  12.764  12.559 -0.2599  0.0064 -0.1359
25449W        W41633   8.278  10.481  12.502 -0.0735  0.3012  0.0796
25450W        W41634  15.779   1.228  15.606 -0.1372 -0.0981  0.4740
25451W        W41635  13.258   3.571   5.543 -0.2387  0.0095  0.4050
25452W        W41636  16.927   2.950  14.257 -0.0416 -0.3082 -0.2269
25453W        W41637   9.565   3.871  11.990  0.1209  0.0886 -0.0417
25454W        W41638  14.461   1.007  16.703 -0.3298 -0.0156  0.2435
25455W        W41639   9.254  15.453   1.019  0.1726  0.4248 -0.2686
25456W        W41640  12.130   7.300  15.846  0.0260 -0.2728  0.0179
25457W        W41641  11.833   2.144   1.048  0.1201  0.0538 -0.4910
25458W        W41642   4.411  12.153  15.142 -0.0993  0.2220  0.4382
25459W        W41643   0.683  10.927   0.282  0.0993 -0.3464 -0.1978
25460W        W41644   9.905  10.477   4.544 -0.0067  0.3016 -0.1360
25461W        W41645  10.180   9.756  14.537 -0.0584 -0.1452  0.0415
25462W        W41646   5.124  14.798   5.424  0.1229  0.0582 -0.1775
25463W        W41647   9.398   6.125   1.222 -0.3842 -0.1499  0.0268
25464W        W41648   5.846   7.898   1.232  0.1758 -0.0236 -0.0762
25465W        W41649  17.104   2.267   6.065 -0.0351  0.0592 -0.0059
25466W        W41650  12.068  17.391  14.702 -0.0905 -0.2262  0.0057
25467W        W41651   6.130   2.570  13.980 -0.0752  0.0882  0.2068
25468W        W41652   5.789   0.331   4.000 -0.1736 -0.2580 -0.3632
25469W        W41653   5.804  13.587   1.149 -0.0834  0.0362 -0.2329
25470W        W41654  16.427   4.562   2.622  0.2167 -0.1449  0.2355
25471W        W41655  16.619  16.405   3.161  0.2024  0.0768  0.0778
25472W        W41656  10.195  11.378   0.093  0.1265 -0.1480 -0.0908
25473W        W41657   0.729   8.393  12.837  0.0361  0.1690  0.0394
25474W        W41658   0.133   0.466  14.723 -0.2198 -0.1794  0.1878
25475W        W41659  11.886   7.444   1.712 -0.0259 -0.2259  0.0334
25476W        W41660  17.443  11.646  14.826  0.0853  0.0262 -0.1826
25477W        W41661  14.645   3.633   4.292 -0.3560  0.1762 -0.1531
25478W        W41662  11.475  16.988  12.790  0.1299 -0.2182 -0.0894
25479W        W41663   0.303  17.660  11.818 -0.0731  0.0560  0.1005
25480W        W41664  12.465  12.212  14.437  0.3944 -0.1055  0.1325
25481W        W41665   8.498  17.463   2.086 -0.1216  0.0022 -0.0401
25482W        W41666  13.630   3.873   0.743  0.1506 -0.1760 -0.1898
25483W        W41667  11.815   1.886  14.373  0.2565  0.0422  0.4329
25484W        W41668   7.537  15.968   2.815  0.1487 -0.0806 -0.3288
25485W        W41669  11.875  10.025   1.188  0.2844  0.0763 -0.1166
25486W        W41670   6.511   1.435   2.859 -0.2933 -0.1292 -0.2349
25487W        W41671  12.392  12.574   3.023  0.0571 -0.1467  0.0011
25488W        W41672  10.190  13.793  13.031  0.1221 -0.2435  0.0175
25489W        W41673  16.603   6.530  15.942  0.0667 -0.2496  0.0789
25490W        W41674  14.634  15.344   1.679 -0.0828  0.4275 -0.1249
25491W        W41675   0.222   2.284  14.291  0.1226 -0.4375  0.2036
25492W        W41676  15.905   9.263  15.966  0.0560 -0.2830  0.2296
25493W        W41677  15.150  13.994   1.439 -0.2154 -0.1845 -0.1590
25494W        W41678   8.202   2.188   4.043 -0.2323 -0.2553  0.0167
25495W        W41679  17.284  13.225   5.965  0.0975 -0.0408  0.0677
25496W        W41680  12.937   8.676   2.297  0.1660  0.0965  0.3028
25497W        W41681   3.208   9.291   1.890  0.1124 -0.0113 -0.1132
25498W        W41682  11.419  16.691  14.406  0.3622  0.0953  0.0555
25499W        W41683   7.787  17.001   3.666 -0.2266  0.2135  0.2844
25500W        W41684  10.680   2.916  15.676  0.2407  0.2796  0.1751
25501W        W41685  17.127  13.652   1.449  0.2254  0.2651  0.1134
25502W        W41686   1.819   8.409   3.273 -0.0787  0.0946  0.0530
25503W        W41687   0.153   2.378   5.849 -0.2046  0.0911 -0.1824
25504W        W41688   6.466   5.083   2.745 -0.1096 -0.4849 -0.3602
25505W        W41689  15.598   2.443  14.176 -0.1117 -0.0783  0.0525
25506W        W41690   8.429   1.861   6.458 -0.1778 -0.2068 -0.0029
25507W        W41691   1.752   5.185   5.107  0.1379  0.0745  0.0128
25508W        W41692  14.559   6.929  16.914 -0.1302 -0.1201  0.1127
25509W        W41693   3.970  16.455  14.966  0.0867 -0.1634 -0.0572
25510W        W41694   4.387   1.446  14.037  0.1690 -0.3010 -0.1049
25511W        W41695  11.419   0.890  15.861 -0.0075 -0.2087 -0.1059
25512W        W41696  13.698  16.202  12.946 -0.2120  0.0758 -0.1288
25513W        W41697   9.117   2.689   3.314  0.1421 -0.0501  0.0035
25514W        W41698  16.572  14.543  16.890 -0.0284 -0.2152 -0.1096
25515W        W41699   1.343  15.565   2.320 -0.1267  0.0627 -0.0594
25516W        W41700  11.291   9.553  14.967  0.1012  0.1793  0.0693
25517W        W41701   1.436   7.855   2.132  0.0749 -0.1803  0.1139
25518W        W41702  16.044   0.410  13.476 -0.2985  0.0932 -0.0360
25519W        W41703   6.587   8.926  13.885 -0.0785 -0.0042  0.1132
25520W        W41704  16.778  15.039   2.893 -0.0107 -0.0207  0.2087
25521W        W41705  13.375   2.234   5.518  0.2834 -0.2013 -0.1453
25522W        W41706  11.769  11.665  13.700 -0.1497 -0.0322  0.0886
25523W        W41707   8.284   4.597   1.809  0.0199 -0.1311  0.0347
25524W        W41708  10.747   8.933   1.044 -0.2001 -0.1130 -0.0502
25525W        W41709   2.540   4.468   3.022 -0.0093 -0.3886  0.0593
25526W        W41710  13.728   5.983   3.018  0.2218  0.1809  0.0427
25527W        W41711   6.601  11.313   1.786 -0.2550  0.0375 -0.0526
25528W        W41712  10.784   4.172  15.345  0.0599  0.0780  0.0348
25529W        W41713   1.184  16.531  15.015 -0.0497 -0.2178  0.0891
25530W        W41714   9.780   0.727   3.320 -0.0356 -0.0438 -0.1730
25531W        W41715  11.605  17.481   2.248  0.0664 -0.3112  0.2106
25532W        W41716  17.130   5.401   1.144  0.0279  0.1797 -0.1820
25533W        W41717  10.482   2.346  12.173  0.1247  0.2153 -0.1869
25534W        W41718   5.613   1.205   3.490 -0.0338 -0.1296 -0.0047
25535W        W41719  13.037  12.666   1.141  0.2341  0.1547 -0.2513
25536W        W41720   8.525   5.510  12.634  0.1843 -0.1984  0.1355
25537W        W41721   0.033  13.021   3.244  0.3560 -0.0315 -0.1321
25538W        W41722  14.607   1.701  15.422 -0.3191  0.2210 -0.1030
25539W        W41723  17.768   4.271  15.057 -0.1647  0.3540  0.3102
25540W        W41724   4.500  17.138   5.590 -0.2402 -0.0780 -0.3797
25541W        W41725  14.897  15.472   0.896  0.1510  0.0051 -0.0320
25542W        W41726  13.759   5.426  12.599 -0.0925 -0.0833  0.0946
25543W        W41727   0.081  14.956   2.263 -0.2277 -0.1729  0.2552
25544W        W41728   0.898   1.166   4.879  0.3142 -0.0768 -0.0810
25545W        W41729   1.172  14.893  15.171  0.0487 -0.5480  0.2577
25546W        W41730  12.556   6.984   1.822 -0.2405  0.1440 -0.1274
25547W        W41731  16.584   2.138  12.771 -0.0707  0.0291  0.2300
25548W        W41732  15.529   5.928   1.577 -0.2869 -0.3021  0.1796
25549W        W41733   6.639   6.262   5.458 -0.2361 -0.0384 -0.2993
25550W        W41734   0.447  16.748  11.669  0.0444  0.3246  0.0208
25551W        W41735  14.549  12.763   4.550 -0.2145  0.0411  0.0451
25552W        W41736  17.815   7.718   0.205  0.3149  0.2608  0.0167
25553W        W41737  13.910   0.233   3.544 -0.1739  0.1862 -0.0557
25554W        W41738  11.592   1.006  12.622  0.2053  0.0115 -0.3073
25555W        W41739   5.783  11.210   1.566  0.1971 -0.4139  0.0745
25556W        W41740  17.750   4.020   5.500  0.1431  0.2463  0.0705
25557W        W41741   0.734   4.575   3.800 -0.1023 -0.1843  0.1531
25558W        W41742   2.135   3.396  15.563 -0.0176  0.0329 -0.2072
25559W        W41743  10.548   3.676  14.302  0.1764  0.3026  0.0083
25560W        W41744  16.448   0.338   2.481 -0.0594  0.0423  0.1268
25561W        W41745  15.195   9.054  12.890  0.2768  0.0449 -0.0045
25562W        W41746   3.689   9.259   1.753  0.1842 -0.1262  0.0494
25563W        W41747   3.756   3.403   0.430 -0.1422 -0.1821 -0.0914
25564W        W41748  15.814  17.025   0.590  0.2447  0.3649  0.0742
25565W        W41749   4.061   5.803  16.320 -0.0542 -0.0658  0.1929
25566W        W41750   3.859   9.598   3.971 -0.0127  0.1949 -0.1171
25567W        W41751  13.973   3.435   4.830 -0.2893  0.0419 -0.0026
25568W        W41752  12.435   3.959   5.652  0.1183 -0.2151 -0.1718
25569W        W41753  13.711   8.049   3.871  0.1731 -0.1343  0.0736
25570W        W41754   0.629   1.642   0.494  0.0851  0.1249  0.0433
25571W        W41755   5.043   3.720  14.424  0.2552 -0.2114  0.1033
25572W        W41756   1.775  16.613  13.423 -0.0090 -0.1516 -0.4021
25573W        W41757   2.258   4.334  15.874 -0.3300 -0.1346 -0.2221
25574W        W41758   2.544  17.375  15.881 -0.0756 -0.0925  0.2200
25575W        W41759  12.256   2.538  13.248  0.0564  0.0534 -0.0446
25576W        W41760  11.507   6.618   0.209 -0.1721 -0.0585 -0.2276
25577W        W41761   7.926   7.946   2.690 -0.1557 -0.0979 -0.0503
25578W        W41762  13.605   0.897   2.912 -0.3407 -0.0315 -0.1061
25579W        W41763   1.115   2.759   5.695  0.1653  0.2464 -0.0485
25580W        W41764   0.208  17.575   5.769  0.0927  0.2302  0.1712
25581W        W41765  12.839   5.074   1.266  0.3254  0.2287  0.0161
25582W        W41766   2.790   2.269  12.011 -0.0722 -0.2593  0.0133
25583W        W41767   5.075   6.518   5.767  0.3496 -0.3091  0.0599
25584W        W41768  14.235  11.513   0.980  0.2531 -0.0736  0.0547
25585W        W41769  12.549   2.036   1.639  0.1583  0.3474  0.0812
25586W        W41770   0.912   9.640   0.638  0.1077 -0.0592  0.0030
25587W        W41771  12.925   8.986  12.999  0.0050  0.1784  0.0839
25588W        W41772  11.898   9.538   1.287 -0.0558  0.1667  0.1885
25589W        W41773  12.929  15.905  14.681 -0.2810  0.0049 -0.1173
25590W        W41774   5.127  16.987   3.413  0.0076 -0.1016  0.0248
25591W        W41775   0.996   7.068   1.851  0.2278 -0.1521 -0.2477
25592W        W41776  15.664   0.856   3.337  0.1380 -0.1511 -0.0442
25593W        W41777   6.794   2.666   5.448 -0.0464 -0.1620  0.2249
25594W        W41778   3.472  11.229   2.667  0.1524  0.1194  0.0413
25595W        W41779  13.882   5.643   1.932 -0.1254  0.0765 -0.5772
25596W        W41780   6.686   4.916   5.922 -0.1752  0.3794  0.2052
25597W        W41781  15.300   2.226   2.444 -0.3064  0.2598 -0.1501
25598W        W41782  15.002   9.031  11.616 -0.0731 -0.0603  0.0795
25599W        W41783   9.243   3.773   4.146 -0.1053 -0.1075 -0.1271
25600W        W41784  17.723   4.645   4.083 -0.2265  0.2510  0.0947
25601W        W41785  16.547   7.369  11.853 -0.3185  0.1701 -0.0221
25602W        W41786  17.559   3.706   2.523 -0.1244  0.1963 -0.1645
25603W        W41787   5.586   1.757   1.764 -0.2292  0.2151  0.1484
25604W        W41788  17.849   1.658   2.315  0.3924 -0.1255  0.0682
25605W        W41789   4.245   7.132   5.465 -0.5164 -0.0175 -0.1003
25606W        W41790  14.891  14.477  16.801  0.0466  0.0686  0.0456
25607W        W41791  14.390   7.574  16.627 -0.0060  0.0813  0.1789
25608W        W41792   7.199  17.202   3.018 -0.0557  0.0409 -0.0382
25609W        W41793  10.777   4.842  15.099 -0.2016  0.3689  0.0427
25610W        W41794  12.025   1.169   4.260 -0.0789  0.3311 -0.0075
25611W        W41795  14.777   0.787   4.499  0.0697  0.0905  0.3086
25612W        W41796   8.622   1.001   4.404  0.2764 -0.1410  0.0863
25613W        W41797  11.438  11.672   2.182  0.0266 -0.2386  0.1466
25614W        W41798  13.257   2.043  13.356  0.0090  0.2276  0.0583
25615W        W41799   7.291  13.677   5.068  0.1144 -0.1073 -0.3591
25616W        W41800   6.486   7.772  13.459  0.1041  0.1958  0.2131
25617W        W41801   1.597   5.953  15.855  0.0894 -0.0172 -0.0577
25618W        W41802  11.301  12.941   4.382  0.2885 -0.0334 -0.2215
25619W        W41803  10.778  10.447  11.845 -0.1371  0.1009  0.2890
25620W        W41804   1.546  13.731  15.313  0.1275  0.1552 -0.0140
25621W        W41805  11.838  11.873  16.031  0.0259 -0.1840  0.1820
25622W        W41806   4.548   3.048  12.067  0.1924 -0.1700  0.4298
25623W        W41807  17.731   8.920  12.544  0.1496  0.4326 -0.0684
25624W        W41808  14.443  10.483  15.340 -0.4728  0.2326  0.1720
25625W        W41809  16.314   9.968  15.815 -0.1216  0.0939  0.0558
25626W        W41810  14.613   9.265  14.211 -0.1469  0.0361  0.0243
25627W        W41811   9.130  13.940  13.588 -0.0427 -0.0519 -0.1076
25628W        W41812  12.263   3.672   2.714  0.0725 -0.2340  0.0178
25629W        W41813   3.323   7.648   1.661 -0.1365  0.0684 -0.0061
25630W        W41814   8.587  13.673  16.388 -0.4621  0.1992 -0.0990
25631W        W41815   2.554  11.505   1.722  0.0930 -0.1825 -0.0686
25632W        W41816   4.018  16.251  16.562 -0.1667 -0.0727  0.0080
25633W        W41817  16.896  12.663   3.975  0.1468 -0.0231 -0.0649
25634W        W41818   4.192  13.376   2.575  0.2645  0.2570 -0.1200
25635W        W41819  16.843  10.646  15.043  0.0710  0.1358  0.0213
25636W        W41820   7.132   6.135  12.541 -0.1873  0.0398  0.1045
25637W        W41821   8.201   7.716  15.807 -0.0211  0.2087  0.0429
25638W        W41822   1.141   8.186   1.179  0.2617 -0.0815  0.1228
25639W        W41823   0.875   4.771   3.387  0.0625 -0.1396 -0.1087
25640W        W41824   4.640  13.621  15.754  0.0420 -0.0690  0.2054
25641W        W41825  10.255   6.014   3.765 -0.1464  0.1170 -0.0818
25642W        W41826   1.113   0.301  16.769  0.1157 -0.0377 -0.1957
25643W        W41827   8.672  16.199   6.154  0.1330  0.0585 -0.0161
25644W        W41828  11.139   1.770  12.430  0.0366 -0.2385  0.0142
25645W        W41829  12.950  12.966  14.234  0.4303 -0.1973 -0.2859
25646W        W41830   0.798  14.721   0.884  0.2363 -0.1612  0.0039
25647W        W41831   8.602  16.734  12.216  0.4820  0.2846 -0.1426
25648W        W41832   9.879   8.702   0.502 -0.3446  0.0692  0.1354
25649W        W41833   4.472  10.838  16.446 -0.2144 -0.0779  0.0132
25650W        W41834  10.321   7.497  12.311  0.1750 -0.0559 -0.5145
25651W        W41835   9.787  14.578  14.999 -0.0059 -0.0274 -0.1218
25652W        W41836   6.754  12.221   1.208 -0.2586 -0.1007  0.1594
25653W        W41837  10.794  10.978   3.519 -0.0933 -0.1394 -0.1778
25654W        W41838   3.947  15.364  14.811  0.0924 -0.1107  0.3351
25655W        W41839  14.912  10.255  13.681  0.3871  0.1935  0.1206
25656W        W41840   5.765  12.167   0.617  0.1591 -0.0269 -0.1434
25657W        W41841   1.752  16.854  11.079  0.1600 -0.2675 -0.2591
25658W        W41842  13.372   6.527   5.576  0.0773 -0.1431  0.1471
25659W        W41843   6.553  15.631   4.444 -0.0189 -0.0391  0.1132
25660W        W41844  16.886   3.076   5.847  0.1329 -0.0763 -0.0464
25661W        W41845  15.907  13.835  13.530  0.2829 -0.1664  0.1541
25662W        W41846   1.721  17.046  13.101 -0.1729  0.2089 -0.1788
25663W        W41847   3.213  11.307   4.607 -0.1596  0.0689 -0.3653
25664W        W41848   8.773   9.937   0.404 -0.1241 -0.1742 -0.4198
25665W        W41849   4.385   7.094  12.214  0.0548 -0.1770 -0.1829
25666W        W41850   8.123   5.441   0.542 -0.1608 -0.1541  0.0744
25667W        W41851  10.460  12.129  15.081 -0.0567  0.2163 -0.1577
25668W        W41852  11.115   5.848  13.041 -0.1125 -0.0470  0.2905
25669W        W41853  14.534  10.134  14.039 -0.0442  0.0230  0.2130
25670W        W41854   0.314  13.321   2.652 -0.1328 -0.2722  0.0951
25671W        W41855   8.851   5.778  12.338  0.1748 -0.2549  0.1104
25672W        W41856   1.891  14.042   3.455 -0.1806 -0.0346 -0.1079
25673W        W41857   2.128   8.502   2.495 -0.0508  0.0553 -0.0256
25674W        W41858  15.782   5.084   2.012  0.0607  0.0285 -0.1815
25675W        W41859   5.390   5.706  16.509 -0.4145 -0.0109  0.3216
25676W        W41860   1.375   8.807   5.509  0.1355 -0.2682 -0.1759
25677W        W41861  16.990   0.077  15.047  0.1135 -0.1037 -0.2043
25678W        W41862  11.535  15.445   1.610 -0.2390 -0.1229  0.3708
25679W        W41863  17.458  14.955   3.619  0.0117 -0.1109 -0.0537
25680W        W41864   5.710   6.202   5.611 -0.3280  0.3410  0.1307
25681W        W41865   7.169   2.673  15.089  0.0179  0.0355 -0.0093
25682W        W41866  14.582  13.673  14.575 -0.4424 -0.0148 -0.0592
25683W        W41867  14.324   3.373   5.244 -0.1485  0.0450 -0.3370
25684W        W41868  15.899  13.303   0.795  0.1615 -0.0083  0.0564
25685W        W41869  11.573   1.364   4.028  0.1568  0.3231  0.0711
25686W        W41870  16.063  13.092   5.575 -0.1324 -0.1735  0.0057
25687W        W41871   0.502  12.116   3.537 -0.1227  0.0345 -0.1657
25688W        W41872   7.830   9.910  13.971  0.1169 -0.3568 -0.0872
25689W        W41873  14.796   3.899   0.324  0.1393 -0.0769 -0.3526
25690W        W41874   1.557  14.321  16.415 -0.2092  0.2813 -0.0573
25691W        W41875   7.619  14.411  13.125 -0.1829  0.0559 -0.0481
25692W        W41876   3.967   6.734   2.746  0.0127 -0.5070  0.2481
25693W        W41877  15.681  10.497  16.244 -0.0615 -0.1596  0.0899
25694W        W41878  14.401  11.972  16.790 -0.0195 -0.3967 -0.1524
25695W        W41879  13.747   6.862  16.815 -0.5137  0.0153 -0.1259
25696W        W41880  10.943  13.085   0.639  0.1047  0.0164  0.1178
25697W        W41881   8.500   8.164  15.126 -0.0074 -0.0422  0.0335
25698W        W41882   2.052  11.742  16.326  0.3840  0.1732  0.0846
25699W        W41883   2.573   0.388  16.938  0.2285  0.0713  0.0737
25700W        W41884   5.574   6.653  12.766 -0.0547  0.1591 -0.1996
25701W        W41885   6.206   7.064  13.901  0.3356  0.1944  0.0922
25702W        W41886   6.201  11.990   0.067  0.0853 -0.1355  0.0809
25703W        W41887   2.317   8.480  14.604 -0.2642 -0.0360  0.0747
25704W        W41888   3.402   8.890  16.156 -0.2437 -0.0427  0.0892
25705W        W41889   8.705   8.274  13.902 -0.0032 -0.2284 -0.1395
25706W        W41890   5.198  17.383   2.352 -0.0670 -0.4473 -0.0167
25707W        W41891   7.513  14.811  16.637  0.1353 -0.0918 -0.0124
25708W        W41892   8.106  12.716   2.991  0.0924  0.2494  0.1253
25709W        W41893  13.557  10.386  16.495 -0.0047 -0.0040 -0.1249
25710W        W41894  13.152  15.758   6.356  0.0685 -0.0990  0.0209
25711W        W41895   1.635  15.216  16.698 -0.0758  0.1287 -0.3804
25712W        W41896   4.994  11.088   0.251  0.1936 -0.4072 -0.2292
25713W        W41897  13.286   2.885  15.792 -0.1230  0.2655  0.0029
25714W        W41898  11.035   2.646  16.507 -0.1806 -0.1511  0.0586
25715W        W41899   8.076  17.779   1.948  0.0952 -0.3160 -0.2223
25716W        W41900  16.439  15.254  16.792  0.3144 -0.3490  0.2435
25717W        W41901   3.708  16.831   4.151  0.1791  0.0203 -0.1146
25718W        W41902   3.463  12.365  13.310 -0.0732  0.2703 -0.1127
25719W        W41903   9.173  10.909  12.966 -0.1372 -0.0117  0.0338
25720W        W41904  13.738   6.441  11.630 -0.4231 -0.0569 -0.0949
25721W        W41905   1.384   8.528   4.660  0.1114  0.1550 -0.0096
25722W        W41906  12.816   0.054  13.973  0.0110 -0.2177  0.0531
25723W        W41907  16.043   3.792  12.361  0.0127 -0.0985 -0.0965
25724W        W41908   1.237  11.972  13.722  0.0691  0.3316  0.0566
25725W        W41909   5.551   1.811  16.384  0.0490 -0.0960  0.0557
25726W        W41910   5.900  10.087   5.804 -0.2563  0.0503  0.1882
25727W        W41911  10.339   2.018   3.330 -0.1431  0.2201 -0.2520
25728W        W41912  11.816  12.251   0.876  0.0188 -0.2102 -0.2657
25729W        W41913   3.108  14.865  14.094 -0.1367 -0.1313  0.2479
25730W        W41914   1.081   9.428   4.280  0.0855 -0.1663 -0.0352
25731W        W41915   1.977   9.127  16.185 -0.0783 -0.1786  0.0222
25732W        W41916   3.425  13.632  11.880 -0.1099 -0.0981 -0.0274
25733W        W41917  13.787  13.367   0.895  0.1585  0.3778  0.0655
25734W        W41918  16.447   0.253  16.522 -0.0238 -0.0211  0.1488
25735W        W41919   6.076  14.494  13.238 -0.0184  0.0358  0.1808
25736W        W41920  14.609  16.508   3.281 -0.2163  0.0367 -0.1220
25737W        W41921  15.215   4.811  16.314 -0.0769 -0.1705 -0.0808
25738W        W41922   5.865  16.755  15.626 -0.1662 -0.0499  0.1233
25739W        W41923   8.566  17.409   3.061 -0.2888  0.4294  0.1243
25740W        W41924   1.640  12.818   3.964  0.0816  0.2411 -0.2051
25741W        W41925   7.642   1.300  14.088  0.1093 -0.1524  0.3541
25742W        W41926  15.349   7.753   5.751  0.2119  0.0846 -0.4968
25743W        W41927   2.799   6.264   1.560  0.1956  0.0255  0.0542
25744W        W41928  17.125  14.469  15.577  0.1096  0.0836  0.1623
25745W        W41929  12.062   8.155  12.811  0.2408  0.0856 -0.1836
25746W        W41930   3.734   6.724  15.947  0.1356  0.0495  0.0568
25747W        W41931  17.485  12.769  13.153  0.0645  0.2130  0.0712
25748W        W41932   9.079   4.261   2.487  0.0985 -0.2658 -0.0049
25749W        W41933   3.873  12.027  11.714 -0.1792 -0.1741 -0.1473
25750W        W41934   1.739  15.551   4.271 -0.1546  0.2684  0.3521
25751W        W41935   6.783   4.935   3.203  0.0789  0.1817 -0.1544
25752W        W41936   6.468   6.044   0.668 -0.2174  0.1714  0.0313
25753W        W41937   3.638  12.227  12.256 -0.2131  0.1172 -0.6245
25754W        W41938  10.233   9.981   2.591  0.2456 -0.2423 -0.1867
25755W        W41939   2.081   8.295  11.845  0.0699 -0.1615  0.1785
25756W        W41940   8.072   0.016  15.937 -0.2334  0.0827 -0.0541
25757W        W41941   2.329   9.389  12.332  0.1293 -0.0886  0.0526
25758W        W41942  10.806   2.731  16.919  0.0202  0.1524  0.0290
25759W        W41943  10.097   9.246   1.170  0.1440  0.1675  0.1284
25760W        W41944   4.465  16.156   2.314 -0.2495 -0.1608  0.1347
25761W        W41945  15.993  10.285   1.063 -0.0607  0.0161  0.2408
25762W        W41946  13.104   5.470   4.865 -0.2744 -0.0768  0.1801
25763W        W41947   2.900  11.384   4.220  0.0948 -0.0797  0.1362
25764W        W41948   0.359   1.299   2.375  0.1187  0.2592 -0.2058
25765W        W41949   5.626  10.808  14.541  0.1540 -0.1776  0.2881
25766W        W41950  12.866   4.722  14.849  0.1609  0.2319 -0.1482
25767W        W41951   7.263   6.666  14.762  0.1330 -0.1907 -0.2004
25768W        W41952   3.757   8.011  16.156 -0.0302  0.1519 -0.4268
25769W        W41953   3.765  16.688  14.392 -0.0154 -0.1259  0.2515
25770W        W41954  11.097  16.440   3.213 -0.0050 -0.1925  0.0305
25771W        W41955  15.295   4.436  15.789  0.1411 -0.0590  0.1108
25772W        W41956  11.586  17.878  16.167 -0.0640  0.1320  0.2701
25773W        W41957   3.251  16.562  13.805 -0.3601 -0.0783  0.0736
25774W        W41958  11.630  17.510  15.425 -0.0365  0.0497  0.1266
25775W        W41959   4.349  16.895   3.146 -0.0595  0.1034 -0.0601
25776W        W41960   0.874   7.523  14.198 -0.0987  0.1198 -0.2082
25777W        W41961  15.665   3.722   3.317  0.1428  0.0035  0.2805
25778W        W41962   4.277   0.230   3.123 -0.0907 -0.2040 -0.2020
25779W        W41963   6.657   8.680   6.215 -0.1587  0.1497 -0.0305
25780W        W41964   0.104  16.859   3.427 -0.1567  0.3601  0.1663
25781W        W41965   4.873  11.565   0.452 -0.1670 -0.0165  0.2020
25782W        W41966   6.020   1.530  12.617  0.0289 -0.0227 -0.0422
25783W        W41967   2.490   9.094   3.996 -0.2244  0.0916 -0.0255
25784W        W41968   6.862   2.833  15.999  0.1417  0.4449 -0.0972
25785W        W41969   2.134  14.271   2.956  0.1231  0.3254  0.0715
25786W        W41970  15.696  14.366  12.184 -0.2202 -0.4369 -0.2668
25787W        W41971  13.745   3.693  15.756  0.3986 -0.2334 -0.0466
25788W        W41972   4.955  13.529  12.937 -0.1808  0.2119  0.1442
25789W        W41973  15.369  12.635  13.992 -0.3197 -0.0137 -0.1543
25790W        W41974  11.727  17.364  13.880 -0.0996 -0.3902 -0.1110
25791W        W41975   2.878  16.440   4.718  0.1018  0.1819  0.0795
25792W        W41976  14.709   3.888  14.406 -0.2953 -0.4180  0.2998
25793W        W41977  11.499   3.717  16.387  0.0533  0.3250  0.0215
25794W        W41978   8.167  15.791   2.828 -0.3028  0.1862 -0.1382
25795W        W41979   9.030  16.049  16.804  0.0164  0.1149  0.2383
25796W        W41980   9.285  15.490  15.700 -0.0723 -0.0852  0.0223
25797W        W41981  10.162  11.401  13.349 -0.1181  0.1330 -0.0137
25798W        W41982   0.737   4.817  14.511 -0.0880  0.0213 -0.1288
25799W        W41983  11.793  16.598   0.203  0.1916  0.2699  0.0456
25800W        W41984   9.804   5.409   4.950  0.3264 -0.1366 -0.1030
25801W        W41985   3.839  12.865   3.752 -0.2838  0.0202  0.3850
25802W        W41986  14.489  14.647   4.721 -0.1100 -0.0369 -0.1715
25803W        W41987   2.433   8.426   3.787  0.0980 -0.0627 -0.1159
25804W        W41988   4.257   4.296   0.524 -0.3906  0.2209  0.1100
25805W        W41989   2.033   5.913  13.751  0.0282  0.0176 -0.2255
25806W        W41990  15.230  12.440   2.679  0.0391 -0.1166 -0.0946
25807W        W41991   7.347  17.470  16.603  0.1476  0.1852 -0.0555
25808W        W41992   4.988   8.070  16.758  0.1466 -0.1549  0.0370
25809W        W41993  15.411   7.988  11.684  0.1956  0.1651 -0.0602
25810W        W41994  11.394  14.575   0.151 -0.1946 -0.0110  0.1426
25811W        W41995   6.860  14.997   4.816 -0.0590  0.0724 -0.3164
25812W        W41996   9.836  10.925  12.042 -0.3749  0.4389  0.0768
25813W        W41997   6.427  17.632   0.799 -0.0641 -0.2014  0.1639
25814W        W41998   9.686   9.232  16.008  0.1638 -0.1475  0.0670
25815W        W41999   4.892   0.565   3.598  0.3230  0.1629 -0.0012
25816W        W42000  12.135   5.387  12.715 -0.2251  0.0129 -0.0119
25817W        W42001  16.240   1.563  16.734  0.0367 -0.2237  0.2942
25818W        W42002   8.980  15.964   3.251 -0.1117  0.2463  0.1098
25819W        W42003  16.870  13.579   3.748 -0.0805 -0.2312 -0.0463
25820W        W42004   0.044   9.149   1.337  0.1313 -0.0176  0.0493
25821W        W42005   1.494   0.362  11.650 -0.1912 -0.1606  0.3495
25822W        W42006  17.049  15.086  13.280  0.0688 -0.0548 -0.0899
25823W        W42007  16.268   1.604   2.770 -0.2772 -0.0358 -0.1292
25824W        W42008  16.272   1.247  11.658 -0.2530  0.1786 -0.1468
25825W        W42009   6.974  17.185   3.841  0.0147  0.0171 -0.1144
25826W        W42010  17.443   7.469  13.922 -0.0179  0.3524 -0.0261
25827W        W42011  15.688   1.209   6.124  0.2606 -0.1405  0.0652
25828W        W42012   5.779   6.489  12.129 -0.0351 -0.0346  0.1617
25829W        W42013  16.855  13.997  13.581  0.0054  0.2413  0.2967
25830W        W42014   9.855  11.586  16.194 -0.0576 -0.2861  0.0396
25831W        W42015  13.458   7.059   3.068 -0.2620  0.3449  0.2942
25832W        W42016  10.325   9.143   2.111  0.1271  0.0252 -0.2296
25833W        W42017  16.584  16.161  15.332 -0.0388  0.2217  0.2692
25834W        W42018   5.520   7.232   5.607 -0.1097 -0.0943 -0.1118
25835W        W42019   7.913  12.473  11.796  0.0791  0.0060  0.3035
25836W        W42020  16.841   1.105   0.765  0.1646 -0.3174 -0.0097
25837W        W42021   7.062   3.679  12.996  0.0915  0.0946 -0.2443
25838W        W42022   0.643  15.803   0.227  0.0318  0.0956 -0.0786
25839W        W42023  17.829   0.349   5.036 -0.0561 -0.1497  0.4187
25840W        W42024   7.350  10.345   3.570 -0.1294 -0.0579  0.0344
25841W        W42025  17.365  11.904  12.270  0.1353 -0.1348  0.1972
25842W        W42026   2.227   6.791   1.558  0.0903  0.2141  0.1764
25843W        W42027   2.523  10.726  15.387 -0.1316  0.0748 -0.1347
25844W        W42028   2.277  14.765  12.594 -0.2046 -0.0801 -0.0238
25845W        W42029  16.694  13.814  14.634 -0.0863 -0.2859 -0.1335
25846W        W42030  10.692   4.789  13.499  0.1181 -0.0074 -0.0524
25847W        W42031   2.555  12.239   3.110  0.2425 -0.4752  0.0189
25848W        W42032   4.432   2.007  12.186  0.0588 -0.1220  0.0862
25849W        W42033   7.273   3.254   0.906  0.0113  0.0470  0.0294
25850W        W42034   0.178  10.458  14.735  0.1443 -0.1405  0.1831
25851W        W42035  16.856   2.280   3.128  0.1795 -0.2169  0.0148
25852W        W42036  16.377  13.450  16.219 -0.0811 -0.1150  0.1966
25853W        W42037  13.697   4.931   2.777  0.4344 -0.2785 -0.1972
25854W        W42038  17.530  16.511  15.008 -0.1118 -0.1251 -0.1755
25855W        W42039   9.307  11.488   5.115  0.0924  0.3709  0.1106
25856W        W42040   1.367  14.952  13.606 -0.1134  0.0214  0.0100
25857W        W42041  15.759  11.897  15.382 -0.5614 -0.2463 -0.1581
25858W        W42042   1.963   0.969   5.980 -0.2671  0.2064  0.3262
25859W        W42043   5.931  12.226  11.530 -0.1221 -0.2408 -0.1246
25860W        W42044  17.845   1.541   4.119  0.2473  0.1286  0.2112
25861W        W42045   9.538  11.804  13.146 -0.1757  0.0071  0.2197
25862W        W42046  16.309   8.988  13.260 -0.4399 -0.1541  0.1952
25863W        W42047  12.794   1.224   5.314 -0.0254  0.3020  0.0821
25864W        W42048   1.890  11.924   1.042 -0.3311 -0.3875 -0.3925
25865W        W42049  12.664   4.323  16.093  0.2146 -0.4211  0.4248
25866W        W42050   6.804   3.160   5.158  0.2642  0.1382  0.2752
25867W        W42051   3.257  13.675   1.828 -0.0049  0.0979  0.1502
25868W        W42052   1.459  12.010   0.647  0.0043  0.2259  0.0126
25869W        W42053   1.224   3.535  13.053 -0.0111  0.0813 -0.3402
25870W        W42054   9.854   7.896   4.353 -0.0504  0.3873  0.1979
25871W        W42055   4.228  12.997  13.814  0.0052 -0.1978  0.2323
25872W        W42056  17.549  14.222   4.444  0.1794  0.3857  0.2605
25873W        W42057  11.136  16.852   2.896  0.2418 -0.0100  0.1766
25874W        W42058   8.218  13.589   2.818 -0.0976 -0.4583  0.1032
25875W        W42059   5.373   3.738   5.563  0.3245  0.0004  0.2477
25876W        W42060  10.458   0.291   2.060 -0.0063  0.1030 -0.0713
25877W        W42061   1.949   6.991  12.943  0.2543 -0.0375  0.1997
25878W        W42062  14.401   5.264  12.593  0.2156  0.0704  0.1469
25879W        W42063   7.351   6.635   2.156 -0.1571  0.0169  0.0432
25880W        W42064   7.379   8.278  13.184 -0.1331  0.1992 -0.2561
25881W        W42065   0.940  12.749  14.080 -0.0370  0.0152  0.0695
25882W        W42066  16.277  10.528   3.847  0.1822  0.0855  0.0356
25883W        W42067   2.957  17.089  14.683 -0.1849 -0.4761 -0.0298
25884W        W42068  17.297  11.364   2.151  0.3030 -0.2054  0.1768
25885W        W42069  17.593  12.254   5.247  0.0285 -0.0012  0.1466
25886W        W42070  16.395   9.359  16.243  0.0711 -0.1529 -0.0205
25887W        W42071  13.990   6.373  14.041  0.2983 -0.1609 -0.0058
25888W        W42072   5.451  17.585   2.750 -0.3069 -0.1861  0.3366
25889W        W42073  14.162   7.147   4.638  0.0564  0.0537  0.0918
25890W        W42074  11.302  11.380   4.799 -0.0033  0.2889 -0.1313
25891W        W42075   5.808  14.901  16.306 -0.0827  0.2064  0.0793
25892W        W42076   2.406   9.623  15.679  0.1831 -0.0583 -0.1071
25893W        W42077   7.741  12.615  14.580 -0.0447  0.1272  0.0669
25894W        W42078   1.048   8.028  11.733 -0.0136 -0.2558 -0.0871
25895W        W42079   4.439  12.632  14.874 -0.0526  0.2836 -0.1441
25896W        W42080   5.667  14.076   1.702 -0.0133  0.0600 -0.1244
25897W        W42081  17.125  15.481  12.847  0.0402  0.2410 -0.1712
25898W        W42082   6.545   3.982  15.318 -0.0663 -0.1578  0.1115
25899W        W42083  15.698  17.252  13.685 -0.0767 -0.1438 -0.1339
25900W        W42084   5.668   9.380  12.502  0.0338  0.0867 -0.2877
25901W        W42085  11.803  11.121  11.852  0.0914  0.1749  0.1021
25902W        W42086  15.933   8.967  13.632 -0.1154 -0.1864  0.1051
25903W        W42087   9.718  11.232   0.222 -0.5327 -0.1023  0.3018
25904W        W42088  16.655  11.887   2.370 -0.0543 -0.2480  0.2060
25905W        W42089   7.623  13.438  11.304  0.1371 -0.4132 -0.2812
25906W        W42090   2.169   9.520  12.784 -0.0308  0.1462  0.0968
25907W        W42091  13.281   2.638  12.486 -0.0168 -0.0397 -0.0212
25908W        W42092  12.455   3.027   5.610  0.2250 -0.0857  0.1158
25909W        W42093   7.315  16.377  13.650  0.2175 -0.2427  0.0426
25910W        W42094   9.302  16.886   2.418 -0.0782 -0.0735 -0.1370
25911W        W42095   5.699  10.049   3.611 -0.1755  0.0893 -0.4021
25912W        W42096   1.264   6.322   0.855  0.0692  0.0202  0.1552
25913W        W42097  15.429   4.607  11.668 -0.2230 -0.2220  0.4969
25914W        W42098   1.153  10.934  14.467  0.1268 -0.1373  0.0268
25915W        W42099   0.263   2.544   3.846  0.0912 -0.1308  0.0204
25916W        W42100   7.971   0.916   4.798 -0.1606 -0.2227  0.1747
25917W        W42101  12.465  12.642  16.900  0.2923  0.3919 -0.0944
25918W        W42102  15.965  12.396   0.885 -0.0495 -0.0718 -0.2796
25919W        W42103   3.160  17.173  11.922  0.2006  0.1491 -0.1768
25920W        W42104  14.303   1.973  16.740  0.3569  0.2044 -0.0865
25921W        W42105   3.344   3.272   6.368 -0.0001 -0.0215  0.1510
25922W        W42106   3.384  14.953  13.640  0.0947 -0.0670  0.0447
25923W        W42107   8.808  12.957  13.310  0.0302 -0.0888 -0.0227
25924W        W42108  15.536  15.558  14.732 -0.0659  0.1705 -0.0798
25925W        W42109   5.904   0.946   0.667 -0.0462 -0.2777 -0.0034
25926W        W42110   4.224   5.398   0.443 -0.1123 -0.0260  0.2193
25927W        W42111  17.348  12.725   3.583  0.1288  0.0773 -0.1022
25928W        W42112   9.386  13.994  16.174  0.1161 -0.2138 -0.2158
25929W        W42113   6.897   6.756   5.523  0.1137 -0.1068 -0.2055
25930W        W42114  15.873  12.848  13.209 -0.4239 -0.1821 -0.1230
25931W        W42115  13.155   3.069  12.192  0.3411 -0.0520  0.2381
25932W        W42116   5.577   7.803  16.259  0.1868 -0.1717 -0.0163
25933W        W42117   9.382  13.581   3.715 -0.2810 -0.0655 -0.0779
25934W        W42118  16.113  13.590   5.457 -0.2353 -0.0298 -0.1087
25935W        W42119   0.616  16.629  13.898  0.0375 -0.1106  0.0732
25936W        W42120   7.669  16.938   3.028 -0.1556  0.1325  0.0028
25937W        W42121   4.890   2.791  14.824 -0.1435  0.1891  0.0723
25938W        W42122  10.925  10.206   5.166  0.0433  0.0052  0.0393
25939W        W42123  16.521   9.493  12.695 -0.1071 -0.1865  0.0719
25940W        W42124   1.410  11.251   4.615 -0.1581 -0.0007 -0.0231
25941W        W42125  12.296   2.002  12.393 -0.2110 -0.0000  0.2457
25942W        W42126  12.001   7.333   2.231 -0.1972 -0.2165 -0.1662
25943W        W42127   2.781  15.534   5.121 -0.1302 -0.0407 -0.1162
25944W        W42128  15.807  13.911   5.101 -0.0037 -0.1479  0.2207
25945W        W42129   8.284  16.974  12.699 -0.1577 -0.2679  0.1640
25946W        W42130   0.729   3.754  14.324  0.2104  0.2547  0.1407
25947W        W42131  11.513  15.012   2.636  0.3507  0.0912  0.2811
25948W        W42132  11.057  16.707  12.682  0.2952 -0.3010 -0.2464
25949W        W42133  17.386   0.267   1.675  0.1793 -0.1178  0.1513
25950W        W42134  15.336   7.835   0.765 -0.0424 -0.1907  0.2120
25951W        W42135  12.412  15.725   1.364  0.2967 -0.3397 -0.0816
25952W        W42136  12.547   5.519   2.706  0.1680 -0.1133  0.0079
25953W        W42137  13.722   6.687  14.630  0.3254 -0.0253  0.0078
25954W        W42138  12.413  10.962   1.456  0.2770 -0.0763 -0.0949
25955W        W42139   4.896   1.976   2.769  0.2050 -0.3400  0.0177
25956W        W42140  11.901  15.303  15.222  0.1697  0.0140  0.0385
25957W        W42141   4.214  14.819   2.245  0.2531 -0.2565  0.0229
25958W        W42142  14.086   0.846   1.366 -0.2503 -0.0966  0.1557
25959W        W42143   1.814   2.372   4.697  0.0485  0.0089 -0.4015
25960W        W42144   7.285   6.897  14.218  0.0844 -0.2498 -0.0595
25961W        W42145  11.004   5.123   3.715  0.0308  0.2306  0.0961
25962W        W42146  14.921   9.547  11.546 -0.2317 -0.1863 -0.3371
25963W        W42147  13.739  15.916   3.662 -0.2147 -0.2949 -0.2426
25964W        W42148  11.595   0.687  11.403 -0.0278  0.2450 -0.1192
25965W        W42149   9.535   8.831   1.271 -0.1635  0.1049 -0.1817
25966W        W42150   4.571   0.347  15.347 -0.0475  0.0358 -0.1159
25967W        W42151  10.471   6.353   2.283  0.0437  0.0675  0.4202
25968W        W42152   5.733  12.038   1.143  0.1759  0.0619  0.0069
25969W        W42153  12.781   1.714   3.592 -0.1886 -0.0274  0.0390
25970W        W42154   4.183  15.889  15.374  0.0627 -0.1341 -0.2896
25971W        W42155  12.667  11.336   4.500  0.0516  0.0815 -0.0963
25972W        W42156  16.145  16.659   4.014  0.2122  0.0501  0.2353
25973W        W42157  15.815   4.401   5.381  0.5537 -0.2281  0.1912
25974W        W42158   0.874   2.361  16.209 -0.2324 -0.0435 -0.2975
25975W        W42159   4.700   6.294  12.307  0.1339  0.2243  0.0045
25976W        W42160  14.934   8.318   1.727  0.3949  0.0884  0.1518
25977W        W42161   8.259   4.572  13.995  0.0384  0.1230 -0.1516
25978W        W42162   4.226  11.979  11.246 -0.2408  0.2638  0.1445
25979W        W42163  16.629  10.566   4.838 -0.1083 -0.0922 -0.2162
25980W        W42164   2.500  16.801   2.907 -0.1269 -0.0951  0.2702
25981W        W42165  10.756  11.751  12.518  0.0197  0.0791 -0.0339
25982W        W42166   2.208   6.652  14.350  0.1350 -0.2346 -0.4657
25983W        W42167   1.377   1.624   1.610  0.1518 -0.1197  0.0930
25984W        W42168   9.271   1.690   2.982 -0.1909  0.2042  0.1994
25985W        W42169   4.207  12.324  15.593  0.2455  0.2459  0.0913
25986W        W42170   1.205  16.675   1.879  0.4084  0.0360  0.1968
25987W        W42171   4.747   3.618   2.707 -0.1608  0.0765 -0.2539
25988W        W42172  12.950   9.094   0.530  0.2075 -0.3509  0.3196
25989W        W42173  12.567  14.258  13.079  0.0598 -0.1275  0.0054
25990W        W42174  10.174  17.865  13.136 -0.0015 -0.2405 -0.0070
25991W        W42175   2.578  11.643   3.723  0.1078  0.0044 -0.2737
25992W        W42176   4.230   7.042  12.961  0.2877  0.3186  0.1328
25993W        W42177   6.677  17.514  13.291  0.1290 -0.2066  0.1692
25994W        W42178  12.686  12.413   0.371 -0.0710  0.1589  0.1114
25995W        W42179  11.951  11.153   2.630 -0.0413 -0.0704 -0.0745
25996W        W42180   7.631  11.045  14.457 -0.2807 -0.1263  0.0145
25997W        W42181   3.441  15.175  16.455  0.0884 -0.1554  0.2626
25998W        W42182   3.212  16.815  14.266  0.0419 -0.1958 -0.0061
25999W        W42183   1.740  12.248  15.440  0.0216  0.3091 -0.0151
26000W        W42184   8.104  13.943  16.482  0.2637  0.0124  0.0186
26001W        W42185  17.141  16.462  15.991  0.1145 -0.3849 -0.0881
26002W        W42186  11.580  14.644  16.497  0.3669  0.0718 -0.1419
26003W        W42187  16.749  15.513   3.706  0.2557  0.0970  0.1226
26004W        W42188  14.849  11.486   3.602 -0.4397  0.0036 -0.0616
26005W        W42189  17.032   1.555  15.155  0.0196 -0.1223 -0.0895
26006W        W42190   9.270   6.914   5.674  0.0339 -0.1548  0.0826
26007W        W42191   9.678   0.639   5.204 -0.1719 -0.1849  0.0798
26008W        W42192   5.821  10.142  15.981 -0.4464  0.2124  0.2350
26009W        W42193  16.114  14.990  10.706  0.0850  0.1051  0.2198
26010W        W42194   3.148   6.811  15.138 -0.0430 -0.0519  0.1195
26011W        W42195  17.192   0.438  12.464  0.0148 -0.0874 -0.1041
26012W        W42196  14.568   2.605   4.310 -0.0262  0.2751  0.2214
26013W        W42197  10.459  14.197  14.125 -0.2930 -0.2126  0.0335
26014W        W42198   2.781   1.136   1.207 -0.0591 -0.0562  0.2374
26015W        W42199  10.707   1.708   4.050 -0.2680 -0.0488  0.0931
26016W        W42200   2.245   4.234   3.432 -0.2566 -0.0767 -0.3156
26017W        W42201  11.237   1.747  14.699  0.0609 -0.1370 -0.1184
26018W        W42202   9.069   8.495   2.099 -0.1182 -0.1456 -0.3065
26019W        W42203   6.413   8.252  12.089 -0.2917  0.1118 -0.0706
26020W        W42204   0.070  14.272  16.586 -0.1149 -0.0973 -0.0991
26021W        W42205  13.684  15.383  16.568 -0.0199  0.2020 -0.0247
26022W        W42206   8.595   1.626  16.702 -0.1265 -0.3414 -0.2568
26023W        W42207   0.383  15.793  13.839 -0.2510  0.1780  0.1105
26024W        W42208  11.670   8.336   2.128 -0.6376  0.3344 -0.2782
26025W        W42209   5.628   4.060  16.092  0.0307 -0.1256 -0.2982
26026W        W42210  10.673   1.665   4.610 -0.0044 -0.2901  0.0113
26027W        W42211  12.119  14.473  15.313 -0.2775  0.1804 -0.3612
26028W        W42212  16.352  16.840   2.343 -0.2531 -0.0595 -0.1943
26029W        W42213   1.247  11.151  14.867  0.2488 -0.1384 -0.2489
26030W        W42214   1.574  17.860   1.189 -0.0252  0.0357  0.0926
26031W        W42215  17.654  13.244  12.909 -0.1334  0.1275  0.0763
26032W        W42216  13.614  10.940   3.096 -0.0994 -0.1749  0.1645
26033W        W42217  11.206   1.537   0.948  0.1352  0.2329 -0.0282
26034W        W42218  12.228   7.064  15.052  0.0540 -0.0276  0.1692
26035W        W42219   8.235   8.585  13.622 -0.2300  0.2170 -0.0701
26036W        W42220   9.521   6.563  12.644 -0.0327 -0.0739  0.0163
26037W        W42221  15.058   5.098  14.259  0.0872  0.2233  0.1930
26038W        W42222   7.559   1.260   3.010 -0.0354 -0.1179 -0.3534
26039W        W42223   9.578   3.864   4.534 -0.2519  0.0500  0.0527
26040W        W42224   3.804  11.770  12.162 -0.0872 -0.0963  0.1604
26041W        W42225   7.537  13.794  11.714  0.1841  0.0155 -0.3013
26042W        W42226  15.247  17.594   2.970  0.2251 -0.0788  0.2942
26043W        W42227   2.686   3.881   0.359  0.1664 -0.3086 -0.0966
26044W        W42228   2.335   5.237  11.723  0.2555  0.0884 -0.3381
26045W        W42229  10.598   8.859   3.216 -0.4434  0.0043  0.1758
26046W        W42230  16.464   8.564   1.998  0.0702  0.2376  0.0043
26047W        W42231   1.639   5.959   5.434 -0.0963 -0.0475  0.4881
26048W        W42232   8.362   2.111   0.944 -0.0250 -0.2520 -0.0932
26049W        W42233   8.365  12.603  14.185 -0.1315  0.0701 -0.0087
26050W        W42234   9.370  15.792  13.161 -0.1201 -0.1882 -0.0285
26051W        W42235   0.229  17.743   3.309  0.0526 -0.2101  0.0442
26052W        W42236   8.745  12.731   2.279  0.0733 -0.0174  0.2241
26053W        W42237   1.414  16.897  11.500 -0.1238  0.1246  0.1966
26054W        W42238  15.374  10.799  16.551 -0.0987  0.3324 -0.0264
26055W        W42239   0.564   8.965  15.049  0.1921 -0.2455  0.0133
26056W        W42240   9.732  10.123   1.100  0.2673 -0.0443  0.0418
26057W        W42241   0.089  11.372   4.708 -0.0271 -0.1752  0.0828
26058W        W42242   4.531   0.413  14.845  0.0673  0.1440 -0.0203
26059W        W42243   7.184  16.300  14.673 -0.1399  0.0210 -0.2320
26060W        W42244  15.370   1.282  11.587  0.1614 -0.1502  0.1859
26061W        W42245  16.124   8.652  12.389 -0.1640  0.0438 -0.0568
26062W        W42246   6.026  11.196   1.126  0.2458  0.0293  0.2020
26063W        W42247   0.351  12.620  12.540 -0.0040 -0.1687 -0.0521
26064W        W42248  13.100   8.571   0.512  0.1767  0.0600  0.0448
26065W        W42249   7.743   7.120   1.662 -0.0022  0.0003  0.0252
26066W        W42250  15.265  11.142   2.467  0.0383  0.0915 -0.1515
26067W        W42251  13.864   5.041  16.900 -0.0689 -0.0396  0.2166
26068W        W42252   0.535  15.307   5.166 -0.0681 -0.1573 -0.2644
26069W        W42253   1.981  17.557   4.499  0.0149 -0.2912  0.0402
26070W        W42254  10.595   9.029   2.746  0.1044  0.1143  0.1227
26071W        W42255  13.443  12.748   0.460 -0.1034  0.2289 -0.2292
26072W        W42256  10.546   7.381  15.825  0.2741 -0.0454  0.2152
26073W        W42257  17.756  13.242   5.796 -0.1863  0.0867  0.0152
26074W        W42258   1.458   6.112  13.749 -0.4433 -0.1304  0.1814
26075W        W42259   4.482   5.360  14.871 -0.4556 -0.0903 -0.0465
26076W        W42260  16.120   6.346   3.036  0.1421 -0.2894  0.1216
26077W        W42261   7.995   5.085   5.387  0.1235 -0.3586 -0.0874
26078W        W42262  12.782  15.142   2.542  0.0725  0.0982  0.0606
26079W        W42263  12.101   7.382  14.695  0.6079 -0.1921 -0.2915
26080W        W42264   5.818   6.197  12.666  0.0387 -0.0157  0.3244
26081W        W42265  13.134   8.043  14.077  0.1651  0.0337 -0.2339
26082W        W42266  12.632  12.725   1.480 -0.0197 -0.0323 -0.2224
26083W        W42267   8.236  14.420   0.463 -0.0147 -0.0809  0.1311
26084W        W42268   7.401   2.320   0.134  0.1801 -0.1297  0.0413
26085W        W42269   7.139  17.317   5.562  0.0584  0.2042  0.0074
26086W        W42270   5.509   8.236  13.819  0.2721 -0.1010  0.0163
26087W        W42271   2.061  10.686   1.608 -0.1429 -0.0399 -0.4038
26088W        W42272   7.805   4.208   3.716 -0.1932  0.3901 -0.0458
26089W        W42273   0.743   0.180   1.836 -0.0443 -0.0716 -0.1700
26090W        W42274   6.102  12.461   1.959  0.0500  0.0307 -0.0129
26091W        W42275   1.762  17.044   1.202  0.1437  0.0382  0.3399
26092W        W42276   6.236   3.620   6.500  0.1443  0.0318  0.0871
26093W        W42277  14.854   9.675   3.992  0.2430  0.2430 -0.2319
26094W        W42278  17.747   8.184   0.060  0.2626 -0.2972  0.0689
26095W        W42279  14.690   7.814   4.546 -0.2061  0.1865 -0.1418
26096W        W42280  15.940   4.543   1.817  0.1828 -0.0336 -0.0874
26097W        W42281   9.779   4.285   3.114 -0.0444  0.2066 -0.0406
26098W        W42282   1.496  10.772   3.161  0.2112 -0.0540  0.1971
26099W        W42283  15.273   6.154   2.775  0.1243 -0.5567  0.1164
26100W        W42284  17.694  15.998   0.344 -0.1477 -0.2881 -0.0850
26101W        W42285   8.699   1.504  16.210 -0.2712 -0.2775  0.0641
26102W        W42286  15.743  15.170   2.985 -0.1082 -0.0277 -0.1718
26103W        W42287   8.203  15.456  12.315  0.0163 -0.1876 -0.3013
26104W        W42288   1.272  13.125  12.657  0.1861  0.0072 -0.2177
26105W        W42289  15.641  14.813   1.084  0.1048  0.0813  0.0797
26106W        W42290  17.400   8.439   1.969 -0.1066 -0.0266  0.0858
26107W        W42291   6.947  14.920   2.645  0.1271  0.0215 -0.1858
26108W        W42292   8.464  15.080   2.244  0.1401  0.2998 -0.0767
26109W        W42293  10.629   6.700  13.624 -0.1574  0.1751  0.1978
26110W        W42294  12.305   2.802  11.979  0.0168 -0.2192 -0.0601
26111W        W42295  10.571  15.975   4.220 -0.1166  0.0033  0.0324
26112W        W42296   2.649   6.705   5.007 -0.3465  0.3189 -0.0603
26113W        W42297   2.357   4.356  14.247  0.0250 -0.1440 -0.0308
26114W        W42298   4.265   5.587   1.063 -0.1244 -0.0188 -0.1174
26115W        W42299  14.229  14.575  16.044 -0.3318  0.0058  0.3135
26116W        W42300   5.063   7.425   5.957  0.0435 -0.1243  0.0268
26117W        W42301  16.224   1.831  11.856  0.1860  0.2214  0.1148
26118W        W42302   6.218  15.830  11.871  0.1951 -0.3213  0.0334
26119W        W42303  13.860   8.896   4.391 -0.0332  0.0923  0.0041
26120W        W42304   3.938   1.582  10.524  0.0176  0.1760  0.0819
26121W        W42305   6.668  11.035   0.365  0.2877  0.0265 -0.0362
26122W        W42306  14.891  11.139   5.213 -0.0784 -0.1548  0.2108
26123W        W42307   6.589   5.847   2.333 -0.2963  0.0373 -0.0112
26124W        W42308  15.981  15.864  14.928  0.0454 -0.0770  0.1355
26125W        W42309  11.161  17.491  15.034  0.1081  0.2438 -0.3117
26126W        W42310   0.261   7.709  13.013  0.0071  0.1686 -0.0533
26127W        W42311   4.752  11.049  16.045  0.1110  0.1739 -0.1248
26128W        W42312   8.190   0.852  14.831  0.1465  0.1990  0.0599
26129W        W42313   1.267   5.780   1.147  0.0540 -0.0239  0.0922
26130W        W42314  14.166  13.232   2.446 -0.0906  0.2235  0.1789
26131W        W42315  11.672  10.805  13.626 -0.1880 -0.4184  0.1237
26132W        W42316  15.705  16.525   2.790  0.0409 -0.1718  0.1897
26133W        W42317   8.427   3.616  14.382 -0.2064 -0.2716 -0.2750
26134W        W42318   8.702  14.515   5.733 -0.0290 -0.1291  0.1196
26135W        W42319  12.903   8.478  14.372  0.0114  0.0763 -0.1477
26136W        W42320   0.405  11.264   4.315  0.0394  0.0044 -0.0055
26137W        W42321  17.293   2.374  16.386  0.2128  0.1188  0.1660
26138W        W42322   7.031  14.312  12.169 -0.1432 -0.0291  0.1570
26139W        W42323  13.617   1.115  14.691 -0.1756  0.0509  0.1311
26140W        W42324   5.998   9.094  12.244 -0.0732 -0.0157 -0.1561
26141W        W42325  14.974   8.891   5.310 -0.3054 -0.0527 -0.0650
26142W        W42326  15.139  13.086  13.969 -0.1027  0.0592 -0.3578
26143W        W42327   5.593  11.300  14.671 -0.1149 -0.0551 -0.0807
26144W        W42328   3.565   1.800   0.908 -0.0248  0.0566 -0.1528
26145W        W42329   0.254   7.295  14.725 -0.0068 -0.1381  0.0043
26146W        W42330   9.410   2.703   3.856  0.2380  0.2100  0.0671
26147W        W42331   4.041   9.912   4.646 -0.0064  0.2047  0.1895
26148W        W42332   9.410   9.637   2.068  0.1089 -0.0615  0.0224
26149W        W42333  16.068   5.148   5.668  0.0247 -0.2001  0.3520
26150W        W42334  16.243  16.551   2.773  0.1140 -0.1420 -0.1250
26151W        W42335  12.371  14.101   2.621  0.0881  0.3540  0.0153
26152W        W42336   9.292   8.651  11.713  0.1570 -0.0837 -0.3163
26153W        W42337   7.776   9.277  16.920 -0.0950 -0.3027  0.0151
26154W        W42338   4.599  16.525  13.464 -0.1596 -0.0980  0.0446
26155W        W42339  13.877  10.919   2.659 -0.4202 -0.0542  0.1039
26156W        W42340  14.496  17.314   2.666  0.2051 -0.0840  0.1931
26157W        W42341   2.659   2.115   2.897 -0.1143 -0.0862 -0.0733
26158W        W42342  17.664   0.786  12.443 -0.0976 -0.1866 -0.1083
26159W        W42343   1.451   1.656   3.882  0.1023 -0.0771  0.1944
26160W        W42344  13.603  12.441   2.164 -0.0826 -0.2236 -0.0065
26161W        W42345   5.401  11.708   4.184  0.1432 -0.1576  0.1236
26162W        W42346  11.536  15.894   3.653  0.2155 -0.3448 -0.0177
26163W        W42347   9.733   0.882  15.674 -0.0356  0.0735  0.4302
26164W        W42348   4.713   6.047  13.264  0.1830  0.0926  0.2952
26165W        W42349   8.580   9.683   6.248 -0.0228 -0.0949 -0.1518
26166W        W42350   1.699  14.484  11.802  0.0224 -0.0479 -0.0585
26167W        W42351  10.819  13.554  11.796  0.3312  0.4495  0.0906
26168W        W42352   3.917  16.109  11.614  0.4424  0.3516 -0.2338
26169W        W42353   7.200  10.116   2.072 -0.3568  0.0073  0.0695
26170W        W42354   6.278   1.245   0.856 -0.2053  0.0999  0.0214
26171W        W42355   8.347  14.061   0.858 -0.1509 -0.0653  0.2826
26172W        W42356  15.859   2.916   5.639  0.3082 -0.1686 -0.2445
26173W        W42357  10.375  10.870   0.852  0.2702  0.4017  0.0091
26174W        W42358   6.717   3.570   2.802 -0.1898  0.2092 -0.0431
26175W        W42359   5.453   0.800   3.784 -0.1186  0.2662  0.2503
26176W        W42360   0.356   9.294  15.346  0.1153  0.4663  0.2780
26177W        W42361   2.710  14.912  15.981  0.0876 -0.0267 -0.1488
26178W        W42362   9.481   5.068   4.568 -0.1576  0.1323 -0.0148
26179W        W42363  15.532   1.969   1.060  0.0217  0.0835 -0.1002
26180W        W42364   7.182   7.611   1.744  0.0519 -0.0696 -0.1561
26181W        W42365  14.791   4.254   4.078  0.0753 -0.0661 -0.1165
26182W        W42366  11.004   9.522   2.918  0.3561  0.2438 -0.2828
26183W        W42367   0.468  16.643  16.330  0.0126  0.0793  0.0108
26184W        W42368  17.002   9.168   0.933 -0.1211  0.0399  0.0768
26185W        W42369  15.723  12.831  16.749 -0.1478  0.1526 -0.0784
26186W        W42370   3.494  13.506   0.129  0.0267 -0.1578  0.0541
26187W        W42371   5.924   0.932   2.883  0.0146 -0.1449 -0.2865
26188W        W42372   8.267  10.104   3.599  0.0721 -0.1042 -0.2202
26189W        W42373  13.873  14.440   4.116  0.0052 -0.0461  0.0349
26190W        W42374  13.592  16.790  14.939 -0.1833 -0.3926 -0.0219
26191W        W42375   3.067   3.558   5.912 -0.1974  0.0172  0.0005
26192W        W42376   1.262   4.252   1.094 -0.1485  0.1231  0.5477
26193W        W42377   8.144   4.353  15.995 -0.0175 -0.3103 -0.1090
26194W        W42378  11.319   6.666   4.580  0.0613  0.3762  0.0734
26195W        W42379   0.224   6.246  12.471  0.3296 -0.1476 -0.2728
26196W        W42380  12.459   6.581   3.127  0.3051 -0.1742  0.4388
26197W        W42381   2.576  11.066   5.120 -0.1709  0.2576  0.2194
26198W        W42382  14.531   8.075  13.818  0.1286  0.2205  0.0048
26199W        W42383   4.372  14.565   4.893  0.3020 -0.1545 -0.0647
26200W        W42384  15.076   5.313   0.576  0.0045  0.3134  0.0303
26201W        W42385  12.444   3.336   3.477 -0.0073  0.0410  0.1638
26202W        W42386  15.309   9.969  12.765 -0.0522 -0.0411 -0.1894
26203W        W42387   0.247   3.277   3.693 -0.1105 -0.1029  0.1277
26204W        W42388  16.270   2.960   3.159 -0.1119  0.2246 -0.0043
26205W        W42389   5.330   6.046   4.795 -0.0228  0.2007  0.0743
26206W        W42390   1.115  12.505   4.824  0.0396  0.1586 -0.0164
26207W        W42391  17.614   9.538   3.234  0.0879  0.1177 -0.0337
26208W        W42392   3.481   3.015   2.731 -0.2084  0.2026  0.0528
26209W        W42393   0.607  11.781   1.859  0.1108 -0.1877 -0.2127
26210W        W42394   1.798   1.571   1.298  0.1109  0.0395 -0.0338
26211W        W42395   4.848   4.878   1.176  0.2313 -0.1545 -0.1297
26212W        W42396  13.928   7.965   4.410  0.0701  0.1536 -0.0731
26213W        W42397  12.721   6.077  12.488 -0.1463  0.0387  0.1570
26214W        W42398  14.785   5.169  11.798 -0.0346 -0.2069 -0.3036
26215W        W42399  10.220  11.893  13.312  0.1492  0.2009  0.2553
26216W        W42400   8.817   1.032  12.925 -0.0552  0.0441  0.1783
26217W        W42401   9.055  13.927   1.382  0.2188 -0.1216  0.0247
26218W        W42402   8.850   6.973   0.101  0.2303  0.1274 -0.2171
26219W        W42403   3.039   4.118  12.056  0.2040 -0.0298 -0.0525
26220W        W42404  17.733  17.817   1.670 -0.0664  0.0441  0.0613
26221W        W42405  11.058  13.909  11.519 -0.0148  0.1055 -0.1291
26222W        W42406  11.157  12.298   0.143 -0.2676  0.1332 -0.1235
26223W        W42407  10.381   1.428   0.701 -0.3113 -0.0461 -0.2684
26224W        W42408  16.562  14.109  16.284  0.3397 -0.0779 -0.0033
26225W        W42409  10.774   1.230  16.612  0.0701  0.1436 -0.0528
26226W        W42410  15.664   8.289   3.633 -0.1405 -0.0313 -0.1162
26227W        W42411  13.094   1.285  15.472  0.0519 -0.0626 -0.1914
26228W        W42412   5.989   0.252  16.595  0.1225 -0.1888 -0.0707
26229W        W42413  10.881   0.326  11.616  0.1453  0.2052 -0.0869
26230W        W42414   5.102   8.014  16.154  0.1590 -0.0694  0.0291
26231W        W42415   7.941   1.035   0.055  0.1210  0.1644  0.0236
26232W        W42416   0.055   0.921   2.168  0.1624  0.3249 -0.2567
26233W        W42417  14.672  16.114  16.318  0.2585 -0.5712 -0.1772
26234W        W42418   3.128  10.805  13.550 -0.2634  0.0096 -0.0466
26235W        W42419   7.664   3.855   0.227  0.0682 -0.0449  0.0058
26236W        W42420   6.803   9.702   5.200 -0.1409 -0.0226 -0.0435
26237W        W42421  11.413   9.670   2.416  0.0576  0.2384  0.0823
26238W        W42422   9.120   0.949   0.729 -0.0885  0.2139 -0.2225
26239W        W42423   4.419  11.381   5.971  0.3506  0.1114 -0.1775
26240W        W42424   9.120  15.039  14.284  0.0771  0.1064  0.2317
26241W        W42425   5.696   3.437  16.204 -0.1625  0.1289  0.0749
26242W        W42426  14.934   3.803  15.341  0.0169  0.0180  0.0996
26243W        W42427  15.057   7.424   5.551  0.1886 -0.0144  0.0294
26244W        W42428   1.589   9.075   2.222 -0.2086 -0.1100 -0.0434
26245W        W42429  11.348  12.338   1.107  0.0603 -0.1455 -0.0348
26246W        W42430   8.763  15.515   2.839  0.0803 -0.2342  0.3022
26247W        W42431   4.005   4.836  15.567  0.1195  0.3705  0.1336
26248W        W42432   3.465  15.663  15.724  0.0830 -0.2105  0.0842
26249W        W42433  15.458   5.983  14.266 -0.1115 -0.2814  0.2875
26250W        W42434  12.830  11.751  16.077  0.0532  0.0461  0.1924
26251W        W42435   4.488   2.270  14.767 -0.0420  0.2970 -0.0330
26252W        W42436  11.151   4.609  13.384 -0.1455  0.0665 -0.1748
26253W        W42437  10.821   7.025  14.634 -0.2393 -0.1133 -0.1317
26254W        W42438  13.235  16.667   2.500 -0.2949 -0.2635 -0.3793
26255W        W42439   7.844  15.665  14.863  0.0094  0.0483  0.1492
26256W        W42440   7.658   8.046   1.211 -0.2242  0.1763  0.1968
26257W        W42441  17.786  14.744   3.911 -0.1211  0.1785 -0.2683
26258W        W42442   0.863   4.820  16.330 -0.3100  0.1859  0.3415
26259W        W42443   0.399   6.108  13.302 -0.1268 -0.2075  0.1132
26260W        W42444  17.499   6.585  13.766 -0.2261 -0.1699  0.0638
26261W        W42445   4.349  15.797  16.629  0.1258 -0.0202  0.1787
26262W        W42446   1.102   9.696   5.554 -0.2392  0.2062 -0.1785
26263W        W42447   2.699   3.997   3.103 -0.0677  0.0964  0.1975
26264W        W42448   2.231   2.100   4.988  0.0347 -0.2404  0.4084
26265W        W42449  10.772  15.712  13.794 -0.2220 -0.0089  0.3883
26266W        W42450  12.640   8.301   0.594 -0.0801 -0.1866  0.0952
26267W        W42451  11.455   3.783   1.621  0.0760 -0.2201 -0.1239
26268W        W42452  17.879  10.865  11.731  0.1817 -0.1130 -0.1733
26269W        W42453   3.573   8.909  12.507  0.0644 -0.0368  0.1774
26270W        W42454   1.998   1.080  12.073  0.2574 -0.1581 -0.1125
26271W        W42455  14.657   4.660   2.721  0.1358 -0.2124 -0.1155
26272W        W42456   5.020   7.080  16.259  0.0585 -0.0765  0.2138
26273W        W42457  15.385  14.794   2.243 -0.1449 -0.2616 -0.4039
26274W        W42458  15.105  13.801   5.320  0.0112  0.0055  0.1506
26275W        W42459  11.420  16.445   0.545 -0.1637  0.4111  0.2084
26276W        W42460   4.612  10.039  16.735  0.1249  0.5088 -0.0261
26277W        W42461  11.333   4.660   2.392  0.0424  0.3251  0.0306
26278W        W42462   4.239  12.971   1.158  0.0547 -0.1154  0.0194
26279W        W42463   6.344   1.149   1.844 -0.1304  0.0426 -0.2629
26280W        W42464   2.251   2.820  16.453 -0.0397  0.0521 -0.4238
26281W        W42465  17.754   4.309  15.772  0.1052 -0.0023  0.0701
26282W        W42466  13.948  16.822   0.784  0.3255  0.0982  0.1210
26283W        W42467   1.357  14.164   3.169  0.0180  0.0271  0.0289
26284W        W42468  10.741   4.424   4.843  0.0856 -0.0728 -0.0116
26285W        W42469   4.840   7.551  15.503  0.1276  0.1334  0.2460
26286W        W42470  12.535  10.753  14.028 -0.1641 -0.0892 -0.0901
26287W        W42471  16.974   7.563  14.778 -0.2193  0.2849  0.2645
26288W        W42472  16.732   2.358  16.199  0.0870 -0.1279 -0.1274
26289W        W42473  13.016   2.991   2.523 -0.3501 -0.0186  0.1795
26290W        W42474   3.743   1.869  14.779  0.0364  0.0191 -0.0794
26291W        W42475  13.248  17.209   1.996  0.2003  0.2422  0.2098
26292W        W42476  13.668  14.118   0.343 -0.3071 -0.0745 -0.1082
26293W        W42477   1.067   9.210   0.382  0.0836 -0.1433 -0.0770
26294W        W42478  12.183   8.503  16.126  0.0640 -0.1993  0.1072
26295W        W42479  10.081   6.290  16.854  0.0595  0.1328  0.0025
26296W        W42480   4.175  16.254  13.402 -0.0735 -0.1110 -0.1347
26297W        W42481   9.990   4.165   4.428  0.3360 -0.1258  0.2830
26298W        W42482  14.693  14.143   0.725 -0.0883  0.1319 -0.0017
26299W        W42483  13.388   5.523   0.590 -0.1217 -0.1197  0.1773
26300W        W42484   4.768   7.954  13.189 -0.2720 -0.2359  0.0080
26301W        W42485  12.848   3.856   5.372  0.2455  0.0166 -0.1042
26302W        W42486   9.556   8.333   0.016 -0.0015  0.3659  0.1167
26303W        W42487   2.219   8.649   4.129 -0.1627  0.0695  0.0489
26304W        W42488  16.225   5.188  15.983  0.1101  0.2344 -0.0044
26305W        W42489   9.168  10.623   5.079 -0.0401  0.0633  0.0578
26306W        W42490   2.854  10.277   1.033 -0.0856 -0.0894 -0.1161
26307W        W42491  13.268   3.345   3.373  0.0017 -0.2869  0.2359
26308W        W42492  14.251  17.307  14.805 -0.0109 -0.0002 -0.4083
26309W        W42493   9.087  16.251   5.796  0.4013  0.0949 -0.0694
26310W        W42494  17.678   3.327   2.803  0.0709  0.0544  0.0487
26311W        W42495  11.958   5.345  12.223 -0.0110 -0.1568  0.0340
26312W        W42496  14.746   6.168   0.546  0.2642  0.3145  0.3993
26313W        W42497   7.789   2.038  13.485  0.1667  0.1618  0.3556
26314W        W42498   5.233  15.072  15.438 -0.2099 -0.1126  0.1914
26315W        W42499  12.133   9.342   0.435 -0.1381  0.1537 -0.3495
26316W        W42500   3.682   5.361   4.771 -0.1672 -0.3219 -0.0756
26317W        W42501  10.238   7.489  10.829 -0.0639  0.0285  0.1733
26318W        W42502  13.517   5.792  16.674  0.1540  0.1360 -0.1900
26319W        W42503   7.942  17.480  12.250 -0.2170  0.0773  0.1539
26320W        W42504   4.399   6.071   1.066  0.1728 -0.2109  0.1462
26321W        W42505  16.850   0.964  15.876  0.0443  0.3812  0.3629
26322W        W42506   0.533   6.783   0.523 -0.3073  0.2102 -0.0949
26323W        W42507   1.173  11.457  11.426  0.0546  0.3587 -0.0642
26324W        W42508  13.167   8.967   6.468  0.0164  0.0078 -0.2016
26325W        W42509   2.858   3.649  14.913  0.2992 -0.0797  0.0756
26326W        W42510  17.263   9.532   0.049 -0.2072  0.1451 -0.4774
26327W        W42511  14.018   8.059  16.271 -0.0836  0.1691  0.4396
26328W        W42512   1.562  10.654  15.105  0.0243 -0.0347  0.1600
26329W        W42513  14.628  13.586   3.468  0.3070 -0.1036  0.2194
26330W        W42514   3.264  11.615   1.278  0.3685  0.0833 -0.2229
26331W        W42515   9.372   7.721   2.761 -0.2418  0.0735 -0.0307
26332W        W42516   2.993  15.261   3.989  0.0902  0.1120 -0.1064
26333W        W42517   4.819  14.368  16.528  0.1984  0.0310  0.0602
26334W        W42518   2.954   8.305  12.755 -0.0034  0.3761  0.2892
26335W        W42519   2.526  13.969   0.205 -0.3632 -0.2217 -0.3085
26336W        W42520   2.531   2.238   0.533  0.1228 -0.0068  0.0571
26337W        W42521  13.379  10.345   2.042  0.2241 -0.0943  0.1050
26338W        W42522  14.372   5.294  13.682 -0.0700 -0.0744 -0.0549
26339W        W42523  10.355   2.012   0.056 -0.0220 -0.3957  0.1886
26340W        W42524  15.905   9.798   1.860  0.1156 -0.0238  0.0964
26341W        W42525  16.788   9.648   0.179 -0.2291 -0.0995 -0.0948
26342W        W42526  16.365  11.425   4.406  0.1906  0.0954  0.1108
26343W        W42527   9.781   3.428   2.833 -0.1191 -0.1420  0.2049
26344W        W42528  15.936   8.191  16.045 -0.0885  0.0793 -0.1236
26345W        W42529  13.679   1.364   5.870  0.0254  0.0736  0.1167
26346W        W42530  10.620  16.894  12.495 -0.1524  0.2563  0.0100
26347W        W42531   9.496   6.328  13.977 -0.2279  0.0311  0.2310
26348W        W42532   4.413  13.498  14.181 -0.1935  0.1652 -0.0014
26349W        W42533   1.954  12.017  12.725  0.2078  0.0362  0.0102
26350W        W42534   8.318   3.102   0.170  0.0656 -0.3802 -0.2760
26351W        W42535   7.498   7.962  15.689 -0.0671  0.2121 -0.1054
26352W        W42536  12.078   5.379   0.261  0.0773 -0.3421  0.1228
26353W        W42537   8.292   9.756   4.403 -0.0692 -0.0442 -0.2502
26354W        W42538   6.357   2.455   3.457  0.1133  0.1430 -0.3434
26355W        W42539  12.169   0.011  13.205  0.1292  0.0943 -0.0789
26356W        W42540   4.659   5.765  16.108  0.2414  0.0520 -0.0241
26357W        W42541  15.028   1.611  14.386 -0.0162  0.3717  0.0752
26358W        W42542   1.155  13.406  12.094 -0.1165 -0.1163  0.0097
26359W        W42543   2.190   4.452  15.082  0.2619  0.0265 -0.1663
26360W        W42544   4.418   9.721  14.424 -0.1324  0.2130  0.0430
26361W        W42545   8.945   7.547   0.063  0.0861  0.0613 -0.2499
26362W        W42546  10.883   5.726  16.326  0.1193  0.0902  0.0322
26363W        W42547   8.144   3.318   4.375 -0.1675 -0.3951  0.2389
26364W        W42548   1.940   1.645  12.721 -0.0426 -0.3062  0.1087
26365W        W42549   1.168   8.116  16.819 -0.3191 -0.1190 -0.2842
26366W        W42550   4.554  13.668   2.394 -0.0767  0.2446  0.1419
26367W        W42551  10.766  15.995  14.578 -0.1059 -0.0412  0.1236
26368W        W42552   4.313  11.239  13.588 -0.0453  0.1986 -0.0300
26369W        W42553   6.449   3.308  16.360 -0.1055 -0.2615 -0.2002
26370W        W42554  11.694  10.085   2.947 -0.5769 -0.1106 -0.0926
26371W        W42555  14.437   7.363  14.920  0.1959 -0.0499 -0.0267
26372W        W42556   2.973   9.772   3.009  0.2275  0.3445  0.1838
26373W        W42557   8.266  12.336  13.757 -0.0199 -0.1363 -0.1856
26374W        W42558   7.877   6.552  14.651  0.0942  0.1417 -0.0645
26375W        W42559  14.177   3.412   1.647  0.0585 -0.1657 -0.1757
26376W        W42560   7.455  11.660  16.689  0.1113  0.2225  0.1826
26377W        W42561  11.210  15.839   1.420 -0.1413  0.1125  0.2127
26378W        W42562   2.677   7.517   2.870 -0.1695  0.0196  0.0394
26379W        W42563   2.302   5.730  11.962  0.1274  0.1484  0.1275
26380W        W42564  11.470  11.679  12.020  0.0420 -0.1120  0.5243
26381W        W42565   3.196   8.848  15.703  0.1888 -0.1140 -0.0621
26382W        W42566   6.265  12.706  13.668 -0.1986 -0.1335  0.1715
26383W        W42567   8.322  12.431   0.034  0.0262 -0.0545 -0.0129
26384W        W42568   1.683  10.620  12.541 -0.2269 -0.0720 -0.1316
26385W        W42569   3.950  15.321  15.668 -0.1411 -0.0561 -0.0912
26386W        W42570   4.012   1.999   5.278  0.1008  0.1052 -0.0191
26387W        W42571  11.536   1.347  16.146 -0.0416  0.3216  0.0892
26388W        W42572   2.685  14.113   2.429 -0.0167  0.2507  0.1546
26389W        W42573   3.045  14.163  13.361 -0.0641 -0.0646  0.2279
26390W        W42574   7.232   1.697   1.831  0.0005  0.1094 -0.2748
26391W        W42575   3.091  11.662   5.593 -0.3014 -0.3286  0.3062
26392W        W42576  14.708  10.633   3.259 -0.0519  0.0477 -0.2349
26393W        W42577   1.874   7.712  13.003 -0.1475 -0.0293 -0.6088
26394W        W42578   0.840  10.860  15.001  0.0606 -0.2645  0.1134
26395W        W42579   3.832   3.736  13.174  0.0987  0.1253 -0.1286
26396W        W42580   3.914   2.351  14.647  0.0925 -0.1376  0.1500
26397W        W42581   8.077  10.038   4.036 -0.3432  0.0633 -0.0489
26398W        W42582   9.694   3.414   1.342  0.2223  0.3381 -0.0282
26399W        W42583   1.986   0.051  15.202  0.0733  0.1584 -0.2147
26400W        W42584  17.546  16.430   0.627  0.0704  0.0558 -0.0999
26401W        W42585  11.119   1.090   0.733 -0.6119 -0.0906  0.0474
26402W        W42586  11.948  11.902   5.584  0.0001 -0.3515  0.0906
26403W        W42587  17.307  13.147   1.110  0.0664 -0.0910  0.0733
26404W        W42588   6.595  12.074   5.349  0.2353 -0.1471  0.1756
26405W        W42589   2.285   5.421   5.200  0.2010  0.0699 -0.0708
26406W        W42590  13.620   3.645   4.143  0.1884 -0.0424  0.1315
26407W        W42591   0.926   6.452   3.535 -0.0205  0.2724 -0.1827
26408W        W42592   4.234   1.700  13.495  0.3358 -0.2326  0.2952
26409W        W42593   9.404  15.314   5.785  0.0553 -0.0696  0.0042
26410W        W42594  14.723  16.012   2.258 -0.0050  0.2536  0.0388
26411W        W42595   2.360   5.359   0.489 -0.0970 -0.1125 -0.5397
26412W        W42596   4.880   8.696  16.639  0.1310  0.1449  0.0568
26413W        W42597  14.989   1.148  12.352 -0.0169  0.1610 -0.0377
26414W        W42598  12.156   9.173  13.333 -0.0951 -0.1645  0.1361
26415W        W42599   3.558   5.014  12.615  0.0371  0.0119  0.1972
26416W        W42600   3.820   3.621   2.159  0.2628  0.0111 -0.2907
26417W        W42601  17.493   8.431   4.362 -0.2622 -0.0985 -0.1938
26418W        W42602   5.798   4.525   4.493 -0.1711  0.3221 -0.2493
26419W        W42603  16.026  16.141  15.908  0.0606  0.2702 -0.1470
26420W        W42604  10.179   7.684  15.622  0.0463  0.0160  0.3525
26421W        W42605  13.424   3.698  13.417  0.0525 -0.0300  0.2207
26422W        W42606  17.005   7.748  12.217 -0.2238  0.1290 -0.0741
26423W        W42607  15.009   5.271   3.987  0.0026  0.2695  0.2513
26424W        W42608   4.722   6.228  15.319  0.0701  0.2509  0.0013
26425W        W42609   4.993   6.691  16.560  0.0329 -0.0314 -0.2419
26426W        W42610  10.992  17.319  10.725 -0.1934  0.1997  0.0243
26427W        W42611  16.527   9.757  13.867  0.2855  0.1870 -0.2041
26428W        W42612  10.973   9.138  15.144 -0.1201  0.2187 -0.3013
26429W        W42613   6.684   3.638  14.378  0.1160 -0.1377  0.2048
26430W        W42614   5.070  15.781   2.819  0.0055  0.0083  0.2031
26431W        W42615  10.651  12.027   5.038  0.1085  0.1037 -0.4026
26432W        W42616   0.021   2.042  16.747  0.4689  0.2723  0.0633
26433W        W42617  11.247  17.846  15.411 -0.1060  0.1425  0.4036
26434W        W42618   2.763  11.777   3.263 -0.0596  0.0548 -0.1641
26435W        W42619   2.343  13.804   5.236 -0.2549 -0.2512 -0.0160
26436W        W42620   9.249   0.021   4.215  0.3503 -0.2243 -0.0636
26437W        W42621   0.910  12.157   2.555  0.0485 -0.2372  0.1633
26438W        W42622   8.141  12.616  10.929 -0.0178 -0.0334  0.0769
26439W        W42623   0.752  11.238  14.699  0.0356 -0.1705  0.1914
26440W        W42624   2.183   5.971   1.183  0.1271  0.1672  0.2505
26441W        W42625   7.733   8.993  12.018  0.4807  0.0773 -0.2209
26442W        W42626   4.698   7.116  12.897  0.4548  0.0296 -0.1261
26443W        W42627  15.757  12.862   3.505  0.1323 -0.0012 -0.1235
26444W        W42628  15.283  17.205   0.422  0.2137  0.0746  0.0902
26445W        W42629   5.885  13.760  11.771 -0.1949  0.4791 -0.1154
26446W        W42630   1.706   7.188  15.486  0.0519 -0.2350  0.0096
26447W        W42631   8.303   7.027  13.091  0.1448  0.2417  0.0427
26448W        W42632  17.566   2.494   5.613 -0.0406  0.0187 -0.1668
26449W        W42633   5.634  14.658   1.180  0.0693 -0.1970 -0.0053
26450W        W42634   1.517   4.282   5.667  0.2925 -0.0504 -0.0344
26451W        W42635   9.744   4.099   3.747  0.1777  0.0998  0.0387
26452W        W42636  15.176   3.488   3.098 -0.0708  0.3547 -0.1436
26453W        W42637  15.864  14.635  14.203  0.0854 -0.0203  0.1193
26454W        W42638   1.261  14.943   5.912  0.0482  0.2510 -0.0255
26455W        W42639   0.051  10.606   4.149  0.1236  0.2901  0.1898
26456W        W42640  14.109  11.063   3.150 -0.2565  0.1340  0.1177
26457W        W42641  15.271   9.345   0.953  0.2788  0.0198 -0.0746
26458W        W42642  10.987  14.113   2.144  0.2134  0.0573  0.1308
26459W        W42643   3.490  14.463   3.904 -0.0008 -0.2210 -0.0144
26460W        W42644  12.877   9.714  15.836  0.0473  0.0246 -0.3229
26461W        W42645  16.942  15.557   2.869 -0.0531 -0.0523 -0.0078
26462W        W42646  15.085  15.430   1.861  0.1895  0.2607 -0.0772
26463W        W42647   3.923  10.163  15.899 -0.0756  0.0246 -0.1670
26464W        W42648  13.510  13.373  14.708 -0.3054 -0.2213  0.1368
26465W        W42649   5.514  10.363   5.480 -0.1288  0.0854  0.1136
26466W        W42650  14.366   7.885  15.191  0.0484 -0.1840  0.2660
26467W        W42651   0.762   2.402  11.561 -0.5014 -0.1552 -0.1295
26468W        W42652   7.050   4.064   5.406  0.0399  0.1914  0.0588
26469W        W42653   7.360   8.687  14.532 -0.3246 -0.1026  0.0892
26470W        W42654   8.908  13.119   1.927 -0.1638  0.3377  0.0114
26471W        W42655   0.938   0.154  12.779  0.0011  0.1492 -0.0570
26472W        W42656   5.542  10.925   4.819  0.2541  0.2719  0.1603
26473W        W42657   2.002  13.119   2.382  0.0852  0.2520 -0.1223
26474W        W42658  17.234   3.198  15.709  0.0796  0.1809 -0.0412
26475W        W42659  13.391   1.804   1.073 -0.3100  0.0756 -0.1610
26476W        W42660   7.389   0.609  11.989 -0.1129 -0.3489 -0.0856
26477W        W42661   0.222   1.429  11.326  0.3734 -0.1921 -0.0394
26478W        W42662   8.062   9.711   1.248 -0.1474  0.2605 -0.1405
26479W        W42663  14.564   3.608   2.407  0.0326 -0.1024  0.0159
26480W        W42664  12.681   2.321  11.768 -0.2404 -0.3157  0.1963
26481W        W42665   5.024   5.409  16.246  0.0029 -0.2100 -0.1689
26482W        W42666  11.571   5.567   2.195 -0.0293  0.0248 -0.0112
26483W        W42667   2.166   1.894   0.722  0.0318  0.0361 -0.2230
26484W        W42668   8.959   0.481   4.162  0.0652  0.3816  0.1780
26485W        W42669  12.040   2.627   2.550 -0.1301 -0.2861  0.0550
26486W        W42670   9.375  15.633  10.622 -0.0153 -0.2295  0.1871
26487W        W42671  10.162   8.930   4.654 -0.0457 -0.2715 -0.1589
26488W        W42672  17.310  15.608   0.065  0.0194  0.1562  0.0480
26489W        W42673  11.189   8.400   4.776 -0.1996  0.0432  0.3676
26490W        W42674  10.389   5.280   1.613  0.1058 -0.1185  0.0573
26491W        W42675   8.178  17.788  11.876 -0.1557  0.1391 -0.0774
26492W        W42676  11.724  11.820   1.796 -0.0218  0.2455 -0.1520
26493W        W42677   9.049  11.697   4.418  0.0006 -0.0193 -0.1711
26494W        W42678   4.904   3.744   2.191 -0.2921 -0.1231  0.1978
26495W        W42679  10.759   4.679  16.818 -0.0218 -0.0020 -0.4033
26496W        W42680   6.141  14.679  16.555  0.0134  0.3353 -0.0559
26497W        W42681   5.788  16.907  13.015 -0.2327  0.1695  0.0550
26498W        W42682   1.368   5.600  12.584 -0.0656 -0.0130  0.1353
26499W        W42683   3.981  14.152   2.925 -0.0229  0.0167 -0.1507
26500W        W42684  17.792   8.035  15.971 -0.2437  0.0225 -0.2073
26501W        W42685  10.760   8.522  13.620  0.1434  0.2386 -0.0339
26502W        W42686   2.339   9.437   2.133  0.1535 -0.2966  0.4878
26503W        W42687   9.242  14.950   0.940 -0.2988 -0.0937  0.1297
26504W        W42688  16.256  11.253   0.928 -0.0603  0.1803  0.3256
26505W        W42689   4.583   8.679  12.478  0.4133 -0.4997  0.2170
26506W        W42690   3.574  15.044  13.039 -0.0798  0.2098  0.1205
26507W        W42691   0.653   0.895  15.842  0.1630 -0.0651 -0.8313
26508W        W42692  13.462  16.203  16.807 -0.1888 -0.1623  0.2220
26509W        W42693   5.216  14.329   0.395 -0.1579  0.2392  0.2230
26510W        W42694   9.883   2.226  16.904 -0.0119  0.0024 -0.0271
26511W        W42695  14.748  12.723   5.244  0.2073  0.2535 -0.0002
26512W        W42696   4.242   8.708  13.486 -0.0193 -0.2320 -0.2089
26513W        W42697  10.124   0.347   0.087 -0.1232 -0.0498 -0.3453
26514W        W42698   2.846   3.951  14.475 -0.1583 -0.0938  0.2147
26515W        W42699   9.958   8.843   5.489  0.2654 -0.1879 -0.0903
26516W        W42700   4.681  17.818  15.710  0.4582 -0.2019 -0.3034
26517W        W42701   6.911   8.828  12.835  0.0261 -0.3065 -0.0900
26518W        W42702  10.540   9.394   0.944  0.2550 -0.0135 -0.3286
26519W        W42703   8.443   6.812  16.815 -0.2177  0.0652  0.1827
26520W        W42704   9.960  13.454  11.304  0.1447 -0.1762  0.0912
26521W        W42705   4.653   8.454   3.908 -0.2358  0.2940  0.0071
26522W        W42706  14.707   7.177   1.004  0.1924  0.2575  0.2626
26523W        W42707  14.752   1.121   2.269  0.2082 -0.2036  0.1452
26524W        W42708   2.875  13.693   4.384 -0.1773  0.3395  0.1871
26525W        W42709   8.321   9.035  15.963 -0.1530  0.0184 -0.1161
26526W        W42710  13.683  11.200  14.399 -0.0410  0.2053 -0.1421
26527W        W42711   2.482   6.093  13.899  0.1367  0.3470  0.1614
26528W        W42712   2.513  16.759  16.547  0.1117 -0.0435  0.1513
26529W        W42713  10.307  17.287  12.535  0.0885 -0.2792  0.1197
26530W        W42714  17.207   8.260   2.485 -0.2410  0.1686  0.1946
26531W        W42715   0.211   0.237  13.640 -0.2603 -0.2182 -0.0445
26532W        W42716   7.636  16.366   4.502 -0.1306  0.2391 -0.1018
26533W        W42717  11.252  16.116  14.553 -0.0340 -0.4453 -0.2236
26534W        W42718  14.251   7.019   3.269  0.1589  0.1195  0.0355
26535W        W42719  15.003   5.118   5.371  0.0783  0.1498  0.3596
26536W        W42720  10.317  10.992  11.743  0.1953  0.1144  0.2828
26537W        W42721   3.206   6.321   2.430 -0.2333 -0.0323  0.1864
26538W        W42722  15.675   5.885   3.830  0.0568 -0.1348  0.2241
26539W        W42723  12.767   2.702  12.162  0.4194  0.1726  0.1193
26540W        W42724   8.514  17.475  15.801  0.0595 -0.1731 -0.1003
26541W        W42725   2.429  11.071   1.013 -0.0952 -0.0955  0.1073
26542W        W42726  15.952   3.932   4.519  0.3468 -0.1743 -0.1039
26543W        W42727  15.667   9.280   1.202  0.0562 -0.1785 -0.0850
26544W        W42728   6.625   7.877   4.798  0.1687 -0.0995 -0.0553
26545W        W42729   7.658   5.243   3.938 -0.2903  0.0467  0.0705
26546W        W42730  12.930   1.981   0.448 -0.4430 -0.0646 -0.0968
26547W        W42731   0.534   7.947  14.920 -0.0273  0.1147 -0.1705
26548W        W42732   2.226  14.326   5.300 -0.1199  0.1935  0.2732
26549W        W42733   3.645   0.414  12.703 -0.1552 -0.3000  0.0920
26550W        W42734   0.417  14.679  16.620 -0.0550  0.2360  0.2459
26551W        W42735   0.098   8.953  14.034  0.0282 -0.1077  0.1980
26552W        W42736   5.294   7.963   2.400 -0.3621  0.2932  0.2453
26553W        W42737   8.077   3.181   2.252  0.0867 -0.1575  0.1722
26554W        W42738  13.438   7.297   0.099 -0.0544 -0.0480 -0.0923
26555W        W42739  16.914   0.292  12.829  0.1322 -0.0876 -0.0470
26556W        W42740  17.259  14.773   0.098  0.0333 -0.1289  0.1930
26557W        W42741   8.609  12.279   2.493 -0.0272  0.0424 -0.0009
26558W        W42742  17.238   2.743   5.930 -0.2188  0.1831  0.1917
26559W        W42743  16.643   0.840  14.662  0.0328  0.2282  0.4147
26560W        W42744  13.864   7.322  13.435  0.0037  0.0258  0.0843
26561W        W42745   8.567   0.507  14.975  0.0394 -0.4598  0.2451
26562W        W42746   6.024  15.463   0.054  0.0052 -0.0995 -0.0755
26563W        W42747   8.737   2.695   4.675 -0.0081  0.2126 -0.0224
26564W        W42748   4.398   6.611  12.556  0.1263  0.0288 -0.1058
26565W        W42749   3.759   1.632  13.340 -0.0327  0.2577 -0.0217
26566W        W42750   2.440  13.140  13.866  0.1727  0.0987 -0.2960
26567W        W42751   9.941   4.502   4.025  0.2514  0.0380 -0.0258
26568W        W42752   2.407  14.313  16.091  0.2925  0.0419 -0.0729
26569W        W42753   0.503   9.957  16.515  0.1705  0.0773  0.2573
26570W        W42754   7.607   3.873   1.175 -0.2047  0.1552  0.1654
26571W        W42755  14.640  14.507  12.349  0.3586  0.1730  0.1435
26572W        W42756  16.240  17.661   3.984 -0.4670  0.1826 -0.0203
26573W        W42757   2.846   8.910   0.483  0.1492 -0.0787 -0.1940
26574W        W42758   2.024   5.284  12.176  0.1021 -0.0627  0.0435
26575W        W42759   4.142  17.019  16.137 -0.0807 -0.2014  0.2741
26576W        W42760   6.793   3.774   0.555  0.2916 -0.0074  0.0042
26577W        W42761   2.972  15.803   2.395  0.0136  0.0733 -0.2964
26578W        W42762  13.480   0.296   6.146 -0.2275 -0.1245 -0.2436
26579W        W42763   7.150  15.184   4.392  0.3420  0.0602 -0.0805
26580W        W42764  13.798   0.229  15.706  0.2198 -0.1070  0.1785
26581W        W42765  16.432  17.708  11.378  0.1085  0.1163 -0.3534
26582W        W42766   0.281  10.590   1.096  0.0049 -0.1727 -0.2055
26583W        W42767   9.763  11.100   5.318  0.0531 -0.1536  0.0550
26584W        W42768   1.889   1.136   3.945 -0.1394  0.0381  0.1587
26585W        W42769  12.966   8.349  16.782  0.0661 -0.1712  0.2037
26586W        W42770   5.650  16.031  16.224 -0.1360 -0.0033  0.1312
26587W        W42771  10.635   9.185  12.911 -0.1921  0.1430 -0.1913
26588W        W42772  11.557   0.943   4.264 -0.0105 -0.0139 -0.0903
26589W        W42773  11.046   7.064   4.757 -0.2382  0.0427 -0.0481
26590W        W42774   6.052  14.635   2.133  0.2352  0.0434 -0.0154
26591W        W42775  13.520  14.718   3.388  0.0634 -0.0989 -0.0745
26592W        W42776   9.100   5.090   2.060  0.0921  0.0551 -0.1244
26593W        W42777  17.490   5.854  12.798  0.1484 -0.0731  0.1666
26594W        W42778  12.965   5.398   2.168  0.0639  0.4053  0.0095
26595W        W42779   8.840  17.086   5.308 -0.1840  0.3209  0.0194
26596W        W42780  11.635  13.362  12.222  0.0969  0.1424  0.0250
26597W        W42781   0.997   6.018  12.615 -0.1971 -0.3639 -0.1368
26598W        W42782  11.353  12.893  13.234 -0.1475  0.0582 -0.1475
26599W        W42783  11.262  16.333  11.857  0.2590  0.0225  0.0512
26600W        W42784   0.414  11.138  12.123 -0.1715 -0.0209  0.0157
26601W        W42785  13.794   3.194   2.673  0.0676 -0.1304  0.0082
26602W        W42786   4.129   9.118  16.518  0.3407  0.0341  0.1101
26603W        W42787  15.167   6.390  11.988 -0.0402 -0.2355 -0.4123
26604W        W42788  12.554  15.213  14.107  0.0272 -0.2055  0.0600
26605W        W42789  10.204   7.933   3.445 -0.0170  0.0172  0.1263
26606W        W42790  12.065   5.456   3.925  0.0520  0.2854 -0.1785
26607W        W42791   1.756   6.028   0.846  0.2104  0.2925 -0.2143
26608W        W42792   3.498   6.662  16.928 -0.2349  0.0048 -0.0448
26609W        W42793   6.258   5.424   2.342 -0.1618  0.1445 -0.2367
26610W        W42794   0.386   8.329   0.851 -0.1233  0.0721  0.4697
26611W        W42795  12.395   5.419   2.220  0.2009  0.0854 -0.1628
26612W        W42796   0.947   1.848   1.633 -0.2289 -0.1483 -0.1179
26613W        W42797   4.876   4.364  12.642 -0.1695  0.1095 -0.0840
26614W        W42798   5.329  14.785   0.083  0.1180  0.0549 -0.0047
26615W        W42799  15.793   7.678  13.760 -0.1238 -0.2049 -0.0238
26616W        W42800   4.454  13.278   0.083 -0.0616 -0.3085 -0.0481
26617W        W42801  16.551  15.939   1.594  0.0518 -0.0116 -0.0331
26618W        W42802   3.942   2.615   1.564 -0.0998 -0.1919  0.0838
26619W        W42803  15.572   1.663   4.922 -0.0932 -0.1522 -0.1666
26620W        W42804   2.456  10.856  12.905  0.2069  0.1661 -0.0914
26621W        W42805   4.056   5.176   0.803  0.1524 -0.3119 -0.0858
26622W        W42806  12.747   1.495   0.398 -0.2528 -0.1478  0.1107
26623W        W42807  12.409   8.304  13.144  0.0969 -0.0887  0.2407
26624W        W42808   4.033   5.401   1.928 -0.0474 -0.0438 -0.1185
26625W        W42809   9.422  12.177   3.059  0.1343  0.1983 -0.0615
26626W        W42810   5.347   1.179   4.206 -0.0998  0.0258  0.1281
26627W        W42811  17.560  13.671   4.460 -0.0533 -0.0077  0.3070
26628W        W42812  16.921  12.279   2.068 -0.0271 -0.4269 -0.1067
26629W        W42813   7.076   9.524   1.186 -0.2818 -0.2580  0.2172
26630W        W42814  11.391   6.810   1.173 -0.0793 -0.3722  0.1391
26631W        W42815  16.492   2.504  16.650  0.1001 -0.1421 -0.0113
26632W        W42816  14.771  17.487  15.965 -0.0783 -0.2401 -0.3069
26633W        W42817   5.434  11.721  14.457 -0.2550  0.4042  0.0154
26634W        W42818  13.079   8.735  16.461  0.2473  0.0486 -0.0653
26635W        W42819   0.682   3.549   4.533  0.2275  0.0768  0.1971
26636W        W42820  13.429  14.241   3.306 -0.0358 -0.0571 -0.0669
26637W        W42821   3.804   2.611   5.698 -0.2633 -0.1184 -0.2082
26638W        W42822  17.313   3.146   4.320  0.0705  0.0861 -0.0873
26639W        W42823  16.403   5.720  14.780 -0.1614 -0.0701 -0.0739
26640W        W42824   2.255  14.719  15.889 -0.1248  0.1411  0.1478
26641W        W42825  11.268   3.572   5.818 -0.0365 -0.1435 -0.0075
26642W        W42826  14.167   0.505   3.857  0.1352 -0.1936 -0.0096
26643W        W42827  14.207   9.331  16.436  0.2636  0.0412 -0.0738
26644W        W42828   9.790   9.945  11.943  0.0635  0.1087 -0.2308
26645W        W42829  10.319   7.409   3.632 -0.0662  0.1618  0.1484
26646W        W42830  13.760  13.309  11.944 -0.2862  0.0188  0.2725
26647W        W42831   1.069  14.185   3.582 -0.3941  0.2630 -0.0072
26648W        W42832   6.462  15.091  14.877  0.1353 -0.1465  0.0502
26649W        W42833   9.280   5.582   2.009  0.1221  0.0223 -0.0549
26650W        W42834   5.816  14.692  12.620 -0.1320 -0.2303  0.0033
26651W        W42835   7.164  16.331   1.912  0.4960  0.1205 -0.2127
26652W        W42836  11.623  11.467   1.352  0.0646  0.0615 -0.2385
26653W        W42837  12.107   6.561  10.975 -0.0851  0.0704 -0.2270
26654W        W42838   7.323   9.388  12.141  0.2142 -0.0499  0.1708
26655W        W42839  11.983   4.273   2.770  0.0559  0.1064 -0.0933
26656W        W42840  16.773   0.018  14.062 -0.1060  0.0277 -0.2320
26657W        W42841  17.157  11.749   5.418 -0.1060  0.1495 -0.1748
26658W        W42842   5.500  12.177  11.132  0.0073  0.1873 -0.1571
26659W        W42843  15.281   0.354  16.478 -0.1756  0.0167  0.4342
26660W        W42844   1.699   7.333  14.677  0.0911  0.1522 -0.2670
26661W        W42845  11.353   8.866   0.331 -0.2291  0.0300 -0.5541
26662W        W42846  13.734  10.254   3.673 -0.1256 -0.1624  0.1460
26663W        W42847   2.445   2.944  13.582  0.2802  0.1058  0.0613
26664W        W42848  17.506   3.273   0.080 -0.0057 -0.1062  0.1147
26665W        W42849   0.866   7.512   1.571 -0.2711  0.0743  0.2839
26666W        W42850  11.687   6.576   1.465  0.0252  0.1193  0.0688
26667W        W42851  10.603   3.757  16.281  0.0091  0.0475 -0.0194
26668W        W42852  15.684   5.931   4.545  0.1450 -0.1148 -0.2483
26669W        W42853  14.914   7.810  13.586  0.3366  0.1297  0.0329
26670W        W42854  11.056  14.980   0.082  0.0501  0.0035 -0.0232
26671W        W42855   6.496   0.269  12.767 -0.0276 -0.1305 -0.1788
26672W        W42856  16.655   9.345  11.583 -0.0408 -0.0800 -0.0405
26673W        W42857  14.300   2.682   3.793  0.0053  0.1094  0.0036
26674W        W42858  15.109  13.797  13.039  0.1305 -0.2441  0.1463
26675W        W42859   3.870   3.378   2.585  0.1415 -0.2530 -0.1921
26676W        W42860  10.367   1.679  14.643  0.1118  0.0591  0.1373
26677W        W42861  12.629   7.635  13.439 -0.4523  0.0924  0.0985
26678W        W42862   6.246   4.157  12.006  0.2629  0.1178 -0.0622
26679W        W42863   7.332   9.614  13.854 -0.1636 -0.0506  0.1055
26680W        W42864  11.357  13.192  16.167 -0.1120  0.3052 -0.1354
26681W        W42865   4.918  10.352  12.364  0.3140  0.0920 -0.0581
26682W        W42866  13.666  13.295  13.027  0.0665 -0.4732 -0.0413
26683W        W42867   5.921  13.253  12.004  0.1600 -0.0861 -0.3569
26684W        W42868  17.082  16.649   0.501 -0.0962 -0.3335  0.0577
26685W        W42869   9.551   5.793  16.062  0.1393  0.1328  0.0337
26686W        W42870  17.624   8.496   0.438 -0.1034 -0.0064 -0.1662
26687W        W42871  15.700  11.338  13.628 -0.4073 -0.1512 -0.1366
26688W        W42872   9.936  16.227  11.492 -0.0490  0.1514 -0.1319
26689W        W42873   9.554  11.500   0.837  0.0465 -0.0983 -0.0451
26690W        W42874   6.930   9.330  12.471  0.0936  0.2112 -0.1226
26691W        W42875  11.259   9.075   0.847  0.3873 -0.2049 -0.1793
26692W        W42876   2.317   6.420  15.235 -0.1330  0.2954  0.0045
26693W        W42877  16.862   5.855  13.670  0.0025  0.0829  0.1015
26694W        W42878  12.963  13.919  13.485  0.0514  0.1495  0.0732
26695W        W42879  10.509  12.235  11.160 -0.1349  0.0575  0.0036
26696W        W42880   1.987  13.643   2.288 -0.0152 -0.1052  0.1571
26697W        W42881  11.577   5.697  13.161  0.1974 -0.1507  0.1892
26698W        W42882   8.170  13.526  13.894 -0.3049 -0.0887 -0.0435
26699W        W42883  15.269   4.363   3.908 -0.1508 -0.0354  0.0879
26700W        W42884   6.547  11.898  11.788  0.0125  0.3199 -0.1649
26701W        W42885   1.219   0.990   2.769 -0.1854 -0.1218 -0.0229
26702W        W42886  10.051   5.718  16.851  0.0315  0.1470 -0.2243
26703W        W42887  15.997   8.532  13.413  0.2054  0.3441  0.2501
26704W        W42888   0.444  14.598   0.525 -0.1468 -0.1177  0.1426
26705W        W42889  12.674   7.870  12.236 -0.1028 -0.0029  0.0140
26706W        W42890  17.793  16.237  14.099  0.1073 -0.1366  0.4904
26707W        W42891  10.538   6.479  16.696  0.2633 -0.1515  0.2161
26708W        W42892   3.891   1.671   0.550 -0.1563  0.0391  0.0418
26709W        W42893  16.058  11.666   0.660 -0.0096  0.0362  0.2206
26710W        W42894  12.236   2.389   4.427  0.2375 -0.1585  0.1386
26711W        W42895   3.560   1.486   2.812  0.1185  0.1823 -0.0787
26712W        W42896  10.605   2.207  11.193 -0.2452  0.0649 -0.0790
26713W        W42897  12.111   4.784  15.561  0.1763 -0.1457 -0.1665
26714W        W42898   3.529  16.226  16.793  0.0646  0.1178 -0.1345
26715W        W42899  15.959  14.752   2.779 -0.2853 -0.1256 -0.0780
26716W        W42900   4.022   9.388  14.180 -0.2780  0.0375  0.2527
26717W        W42901  11.283   7.152   2.859  0.3498 -0.2521  0.1626
26718W        W42902   0.421  13.165  12.650 -0.0825 -0.0619  0.0186
26719W        W42903  13.587   7.394  15.549 -0.0606 -0.0035 -0.1979
26720W        W42904   9.866  11.903  11.848  0.1973  0.0808 -0.1846
26721W        W42905   2.991  13.246  13.813 -0.0051 -0.2056  0.1815
26722W        W42906   4.703  15.351  15.433  0.2014 -0.1920 -0.1324
26723W        W42907   8.756  12.139  13.610  0.1685 -0.0998  0.2500
26724W        W42908  17.681   9.440   5.331  0.1300 -0.1764 -0.4901
26725W        W42909   1.420  16.522  12.396  0.2515  0.2358  0.1085
26726W        W42910   7.857   1.559  14.433  0.0918  0.2320  0.0552
26727W        W42911  14.442   8.945   1.734 -0.1385  0.0403  0.1266
26728W        W42912   2.394  14.463   3.422 -0.2066 -0.1016 -0.1803
26729W        W42913  10.512  17.850   5.133 -0.0753  0.0544  0.1463
26730W        W42914   0.269   9.345   6.570 -0.1036  0.1400  0.0772
26731W        W42915  15.896   0.462   4.103  0.2759  0.2171  0.1960
26732W        W42916   0.900  11.340   3.223 -0.0979  0.2175 -0.1216
26733W        W42917   2.707   0.601  12.222 -0.1656 -0.2009  0.0602
26734W        W42918   0.821   3.376  15.344  0.1228 -0.0493  0.1131
26735W        W42919   8.207   8.453   0.207  0.0735 -0.2457 -0.1879
26736W        W42920   1.937   3.858   2.352  0.0529 -0.6837  0.0656
26737W        W42921   1.203   3.534   2.860  0.0591  0.0338 -0.0842
26738W        W42922  16.269  10.569   2.393  0.2181  0.0948  0.1427
26739W        W42923   8.940   2.972  15.471 -0.1626  0.0782  0.2321
26740W        W42924   2.989  13.715  15.691  0.2903 -0.0060  0.2443
26741W        W42925  10.874   1.569   0.560 -0.1120  0.0274 -0.0662
26742W        W42926  17.468   5.061  13.569  0.0761  0.2353 -0.1059
26743W        W42927  10.015   7.099  12.151 -0.1001  0.4145  0.2983
26744W        W42928   1.930  11.608   2.700  0.1094 -0.2545 -0.1089
26745W        W42929   6.095   0.570  12.730 -0.2915  0.0888 -0.1095
26746W        W42930  13.128  15.303  12.921 -0.1135 -0.0398  0.0506
26747W        W42931  11.289   1.777  15.932  0.2108 -0.0131  0.0113
26748W        W42932   5.298   4.347  13.556 -0.2222 -0.0279 -0.2786
26749W        W42933  10.480   7.878  11.910 -0.4546  0.1032 -0.3497
26750W        W42934   7.354  12.377  14.144 -0.1178  0.0544  0.0350
26751W        W42935  14.163   5.030   2.542  0.1302  0.0772 -0.0818
26752W        W42936   7.277   7.185  12.979 -0.2159  0.2718 -0.0217
26753W        W42937   2.821  13.327   1.693  0.1169  0.1265  0.1627
26754W        W42938  14.506  15.901  15.408 -0.0468  0.0955  0.1727
26755W        W42939   9.727   8.502   1.613 -0.1451 -0.1759  0.0625
26756W        W42940  10.978   9.977  14.812  0.5829 -0.0689 -0.1164
26757W        W42941   6.365   5.515  14.002  0.0886 -0.1758  0.3393
26758W        W42942   8.136  11.743  11.999 -0.1323 -0.0616  0.0292
26759W        W42943   2.650  17.235   5.131 -0.0617  0.2062  0.2651
26760W        W42944  17.704   8.942   2.586  0.2860 -0.0126 -0.0134
26761W        W42945   5.561  16.766   1.749  0.0474 -0.0251 -0.2449
26762W        W42946   5.036  10.053  15.790 -0.2263 -0.0004 -0.1718
26763W        W42947  17.156   3.252  13.931 -0.2579 -0.0049 -0.0833
26764W        W42948   2.309   1.099   4.997 -0.0407  0.4898 -0.1524
26765W        W42949   6.972  14.032  14.120 -0.3168  0.0884  0.0182
26766W        W42950   9.944  11.085   0.780  0.1887  0.0284  0.1663
26767W        W42951  12.087   5.823  12.967 -0.0945 -0.0512  0.1335
26768W        W42952   3.591   4.436   2.837 -0.2646 -0.2278  0.1929
26769W        W42953  17.661  15.498  16.658 -0.2362 -0.0139  0.2670
26770W        W42954   9.435   4.677  15.650 -0.1564  0.0344  0.0637
26771W        W42955   4.395   4.100  14.794 -0.1061  0.2116 -0.0914
26772W        W42956   7.676  11.016   4.964 -0.2972 -0.0823  0.0476
26773W        W42957  10.054  12.295   2.361  0.0085  0.3148 -0.2277
26774W        W42958   9.212   7.451   1.876  0.1357 -0.1626 -0.0255
26775W        W42959   2.344   0.165  12.115 -0.3549  0.1321 -0.1346
26776W        W42960   1.874   8.846  12.280  0.0565  0.0671  0.0603
26777W        W42961  10.178  11.527   3.736  0.2228  0.0240  0.0317
26778W        W42962   3.153  17.018   3.527 -0.1520 -0.0482  0.0864
26779W        W42963  13.913  11.855   1.714  0.1906  0.0290  0.5253
26780W        W42964   8.441   4.340   0.491 -0.0402 -0.2007  0.2352
26781W        W42965   6.668  13.344  16.638 -0.0513 -0.0210  0.1104
26782W        W42966  16.036  14.114   2.012  0.0888 -0.2961 -0.0667
26783W        W42967  13.390   2.149  15.613  0.0112  0.0247  0.2192
26784W        W42968   3.951   1.468   4.585 -0.1935  0.0830 -0.0510
26785W        W42969   3.898   2.030  11.887 -0.1781 -0.1881  0.2173
26786W        W42970  12.116  13.358   1.967 -0.0265 -0.0639 -0.2891
26787W        W42971   7.185   6.294   1.029  0.1492 -0.1968  0.2464
26788W        W42972   6.603   4.917  14.770  0.1783 -0.2118  0.1132
26789W        W42973   8.026   3.745  14.729  0.0076  0.1005  0.0396
26790W        W42974   3.530  17.193  14.337 -0.3767 -0.0279  0.0586
26791W        W42975  11.206  13.183   1.067 -0.2607 -0.2729 -0.2534
26792W        W42976   9.088   0.392   2.955  0.0744 -0.1345 -0.3026
26793W        W42977   6.605   2.260   5.180 -0.0545  0.0521  0.1727
26794W        W42978  17.493   1.344  16.489 -0.5530  0.2393  0.2550
26795W        W42979  12.726   7.123   0.691  0.1335 -0.1758  0.1229
26796W        W42980  13.637   4.589  15.411 -0.0505  0.1274 -0.0786
26797W        W42981   5.677   6.102  16.709 -0.0905  0.2700 -0.3457
26798W        W42982   4.062   6.972  13.835  0.0350 -0.0673  0.2792
26799W        W42983   9.174   3.574  15.532  0.1210  0.1119  0.2500
26800W        W42984  10.197  13.461   5.131  0.0303 -0.3425  0.3439
26801W        W42985   9.929   3.782   3.248  0.2952  0.2373 -0.3435
26802W        W42986  17.600   9.876  16.005 -0.0009  0.2396  0.1989
26803W        W42987  17.321  12.855  15.535  0.0171 -0.0468 -0.2390
26804W        W42988  15.687  13.416   4.175  0.2524 -0.3011  0.1979
26805W        W42989  16.815   5.633   3.900  0.3507 -0.1173 -0.3641
26806W        W42990   6.030  14.722  10.174 -0.0342 -0.0149  0.0672
26807W        W42991   9.281  17.416  13.554  0.2975 -0.1678 -0.0683
26808W        W42992   0.367  11.613  14.852  0.3378  0.3865  0.2835
26809W        W42993   2.506  11.385  15.553 -0.0245 -0.3442 -0.2328
26810W        W42994   8.535  14.839   4.902  0.1449  0.0745  0.2138
26811W        W42995  12.487   7.136   4.960  0.0420  0.1260 -0.0098
26812W        W42996   0.725  17.358   1.243  0.0419 -0.0921  0.1182
26813W        W42997  17.791   3.605   0.926 -0.0654 -0.0160 -0.0082
26814W        W42998   7.547  11.465   4.652  0.1361  0.0538  0.4128
26815W        W42999  15.707  17.587  15.668  0.1814 -0.0823 -0.0782
26816W        W43000   8.445   8.196   3.645 -0.5311  0.1943 -0.0300
26817W        W43001   7.678   9.643   5.752  0.2224 -0.1220 -0.0702
26818W        W43002   3.314  17.696  15.068  0.0341 -0.0120 -0.1446
26819W        W43003   6.970   5.359   2.855 -0.0483 -0.1078 -0.0304
26820W        W43004  14.195   5.769   0.763  0.0335 -0.2180  0.1418
26821W        W43005   5.783   4.973   4.067  0.2980  0.2249  0.1498
26822W        W43006   8.233  11.910   2.401  0.4163 -0.0930 -0.0384
26823W        W43007  11.289   3.733  13.764 -0.1310 -0.0910  0.0437
26824W        W43008  16.275  13.275  16.753  0.1158 -0.2035  0.2254
26825W        W43009   9.976  13.907  14.441  0.2370 -0.0802 -0.0147
26826W        W43010  17.071   7.930   0.927  0.0260  0.3831  0.0629
26827W        W43011   6.120   3.963   5.091 -0.1963  0.2134  0.2108
26828W        W43012   8.580   9.616  12.337 -0.0280  0.0699  0.1344
26829W        W43013   9.334   0.613   0.487 -0.2181 -0.2559 -0.0191
26830W        W43014   9.532   4.687   0.769 -0.0632 -0.2464 -0.1886
26831W        W43015  11.136   1.643   3.853  0.1246  0.2609  0.2612
26832W        W43016   1.237   3.508   4.043  0.2119 -0.1056 -0.0532
26833W        W43017  13.181  17.786   1.281 -0.1321 -0.3488 -0.0546
26834W        W43018   4.159   3.814  14.349 -0.2421  0.1021 -0.0180
26835W        W43019   2.551   5.843   3.021  0.0894  0.0085 -0.3749
26836W        W43020   9.145   0.424  16.890 -0.1742  0.1292  0.0792
26837W        W43021   3.107   5.343  15.720 -0.0263 -0.0651  0.1625
26838W        W43022  17.391   2.683   1.005  0.3109  0.0888 -0.2409
26839W        W43023  10.161   3.828   3.876 -0.1406 -0.1621 -0.0448
26840W        W43024  14.157  13.109  11.467  0.2766  0.0768 -0.0088
26841W        W43025  12.681   4.489   2.130  0.0413 -0.2972 -0.0140
26842W        W43026   2.183  13.682  13.449 -0.1616 -0.1252  0.2920
26843W        W43027   6.429   5.541   1.893  0.0301  0.1211  0.0616
26844W        W43028   4.014  11.147   2.631 -0.1384  0.1241  0.1606
26845W        W43029   2.803   8.566   4.076 -0.2843 -0.0183  0.0729
26846W        W43030  17.706   4.107   0.151 -0.2413 -0.2967  0.2187
26847W        W43031   9.353  15.376  12.626 -0.2679  0.1778  0.1863
26848W        W43032  16.756   5.519   0.724  0.0403  0.0229  0.2570
26849W        W43033   4.184   4.093  12.958  0.1112 -0.0889 -0.2869
26850W        W43034  17.180  11.019   3.697 -0.0653  0.1222  0.1881
26851W        W43035  10.337  13.455  12.558 -0.1875  0.1407 -0.1447
26852W        W43036  17.177   8.750   0.196  0.0495 -0.0309  0.1388
26853W        W43037   7.789   6.513   2.405 -0.0683 -0.1393  0.1417
26854W        W43038  11.702  10.084   4.988 -0.1040  0.1510  0.1245
26855W        W43039   2.555  11.750  16.410 -0.1593 -0.1896  0.0313
26856W        W43040  11.529  16.720   2.606  0.1480  0.0198  0.1130
26857W        W43041   1.526   1.296  12.826 -0.1074 -0.1443 -0.0483
26858W        W43042  12.027   7.859   4.563  0.0835 -0.0137  0.1985
26859W        W43043   6.014   6.909   6.261 -0.1353 -0.0368 -0.0479
26860W        W43044   0.858  15.576  12.021 -0.2780 -0.0224  0.1990
26861W        W43045   6.232  14.753   4.626 -0.0006 -0.0428 -0.0497
26862W        W43046   6.927   9.045  15.990 -0.0468 -0.3775  0.1559
26863W        W43047  16.162  17.823  12.591 -0.1124  0.2846 -0.2037
26864W        W43048  12.844  12.543   3.820 -0.1574  0.1052 -0.0363
26865W        W43049   0.501   2.599  11.211 -0.2434  0.1400 -0.2583
26866W        W43050  10.449   2.528  12.676 -0.1236  0.1601 -0.0563
26867W        W43051  11.895  12.547   3.304 -0.1213  0.1225 -0.0934
26868W        W43052   4.697  14.095   4.402 -0.0743  0.0055  0.2260
26869W        W43053   6.617  14.364   5.241  0.2110 -0.0736  0.1572
26870W        W43054   8.331   9.249  11.984 -0.2052  0.1821 -0.0186
26871W        W43055  10.285   7.237  16.738 -0.2690  0.0244  0.0998
26872W        W43056  14.752   0.302   4.472 -0.2755  0.0387 -0.1055
26873W        W43057   2.679   6.305   5.314 -0.0859 -0.0380  0.1022
26874W        W43058   7.842   4.712  12.354 -0.1124  0.0470 -0.0558
26875W        W43059  16.266  12.004   4.465  0.0184  0.2127 -0.1533
26876W        W43060  10.490   3.764  15.567 -0.1017  0.0370  0.1423
26877W        W43061   7.535  16.798  11.060 -0.0620  0.2670 -0.0538
26878W        W43062   7.753  11.692   2.329  0.0240  0.0872 -0.0705
26879W        W43063  17.263   7.596   5.731 -0.0379 -0.3126 -0.2096
26880W        W43064   7.822  15.343   5.182 -0.0688  0.1003  0.0308
26881W        W43065  11.285  13.463  11.449  0.0030  0.3740  0.1433
26882W        W43066   4.344   1.506   3.711  0.0626 -0.0427  0.2394
26883W        W43067  11.988   0.449  12.888  0.0239  0.1904  0.0845
26884W        W43068   6.156   8.234  14.659 -0.1129 -0.1667 -0.0434
26885W        W43069  10.913   0.671   5.528  0.0242 -0.0238 -0.1071
26886W        W43070  17.851   0.852   4.834 -0.4531  0.0535  0.0530
26887W        W43071  16.891   6.829   4.454 -0.2353  0.1727  0.0169
26888W        W43072   3.654  11.758  16.793  0.2374  0.4201 -0.0875
26889W        W43073  14.104  13.561  16.205  0.2491  0.0457  0.1074
26890W        W43074   0.851   3.642   3.220  0.1635  0.1120 -0.3893
26891W        W43075   5.518  12.234  13.663 -0.0917 -0.1383 -0.0807
26892W        W43076   9.022   7.742   4.650  0.2174  0.1324 -0.1335
26893W        W43077   9.385  12.972   2.624  0.0375 -0.1096 -0.2494
26894W        W43078   6.973  16.648  15.224  0.3550 -0.3704  0.1774
26895W        W43079   3.170   8.400   2.142 -0.4703  0.0087 -0.0393
26896W        W43080   3.750   2.278  15.547  0.0015  0.2800  0.1136
26897W        W43081   8.077  11.790   1.372  0.2784  0.0591  0.1275
26898W        W43082   8.608  16.641   5.047 -0.3899  0.1001 -0.0019
26899W        W43083   7.223   2.365  16.637  0.3422  0.0006  0.0929
26900W        W43084  17.658   4.484   3.470 -0.0503 -0.1123 -0.0402
26901W        W43085   7.853  14.641  11.963 -0.3189  0.3829  0.3872
26902W        W43086  13.295  15.299  15.421 -0.0348 -0.1366 -0.1183
26903W        W43087   8.859   8.726  12.894  0.3988 -0.3373  0.0177
26904W        W43088  10.033  15.097   3.299 -0.1025  0.0174  0.3264
26905W        W43089  17.099   6.359   3.101  0.0415 -0.3704 -0.1925
26906W        W43090  16.034   8.852   1.953 -0.3010 -0.1372 -0.0326
26907W        W43091  17.259  17.512  12.017 -0.3156  0.0249  0.0168
26908W        W43092   7.427  15.170   0.158 -0.1983 -0.0843  0.1549
26909W        W43093   5.748  11.833   3.446 -0.2221  0.1841  0.0550
26910W        W43094   2.784  16.290   0.306 -0.1136 -0.1315  0.0331
26911W        W43095   0.256  15.932   5.702 -0.0074 -0.2066  0.2235
26912W        W43096  13.485   6.530   0.708  0.0339 -0.2896  0.1097
26913W        W43097   1.300   9.776  15.225 -0.1630  0.0169 -0.0186
26914W        W43098   2.455  10.372  12.240  0.3102  0.1029  0.3793
26915W        W43099   5.012  14.184  12.487 -0.1257  0.1116  0.0502
26916W        W43100   0.958   7.054   4.132 -0.0828  0.1441  0.0808
26917W        W43101   8.727   5.720  16.710 -0.1802  0.1232 -0.3345
26918W        W43102   5.465   9.408   0.214  0.2137 -0.1027 -0.1088
26919W        W43103  13.796  14.144  12.441 -0.2145  0.1693  0.2464
26920W        W43104  10.668   0.584  12.483 -0.2712  0.0692 -0.3730
26921W        W43105  11.505   9.758   4.393  0.0250 -0.0510  0.1553
26922W        W43106   8.467  10.632   2.100 -0.0599  0.0645  0.0877
26923W        W43107  12.086  16.745   2.756 -0.2474  0.0179 -0.2775
26924W        W43108   3.468  15.270   2.131  0.0753  0.0680  0.1161
26925W        W43109   7.694  16.374  12.056  0.1299  0.0432 -0.0832
26926W        W43110  17.322   9.066   3.500  0.0300 -0.1220 -0.4690
26927W        W43111  14.956   4.780  12.039 -0.0303  0.0367 -0.5174
26928W        W43112  11.950   9.170   1.625 -0.0896  0.2581  0.2181
26929W        W43113   4.672   0.869   1.577  0.2241 -0.0782  0.0246
26930W        W43114   8.791   7.448   5.059  0.1987  0.0079  0.2783
26931W        W43115  11.783   4.847   5.464 -0.2988 -0.1013 -0.1593
26932W        W43116   9.703  14.988   0.213 -0.3078  0.0661  0.0792
26933W        W43117  16.011   0.213   1.737 -0.1596 -0.3098  0.1131
26934W        W43118   9.327   0.588   3.486 -0.4515 -0.0491  0.1011
26935W        W43119   1.727  17.096   2.584 -0.1653 -0.0856 -0.2389
26936W        W43120   5.536   3.948   3.213 -0.1369 -0.1290  0.0393
26937W        W43121  12.591  17.532  14.159 -0.1532 -0.0119 -0.0498
26938W        W43122  12.552  14.311   4.461 -0.2025  0.0697 -0.1115
26939W        W43123   8.941  17.178   2.112  0.3623  0.0283  0.1256
26940W        W43124  11.842   4.460   5.806  0.0478 -0.2477  0.3141
26941W        W43125   1.462   9.941   2.904 -0.0779  0.0151 -0.2030
26942W        W43126  13.336  17.177  16.442  0.0152  0.1733  0.1603
26943W        W43127   0.040   8.669   4.454  0.0077  0.3089 -0.1980
26944W        W43128   9.510   4.772   5.480  0.2176 -0.0919  0.1062
26945W        W43129  14.474  16.222  13.598  0.1372  0.2594  0.1629
26946W        W43130   9.227   6.940  11.816 -0.2510  0.1275  0.0209
26947W        W43131  11.945   3.542   5.251 -0.2456  0.1228  0.1199
26948W        W43132   8.228   6.458   4.847 -0.0596  0.1332  0.1890
26949W        W43133   3.124   6.377   1.201 -0.0144  0.0007  0.1005
26950W        W43134   6.732   0.094  12.273  0.0757 -0.3601  0.3130
26951W        W43135   4.417  15.357   5.547 -0.3840  0.1347 -0.3809
26952W        W43136   8.388  13.024   4.924 -0.1853  0.1415 -0.2863
26953W        W43137   8.441   1.449  13.034  0.2805  0.0564  0.0210
26954W        W43138   6.437   0.017  14.739 -0.0071  0.0616 -0.1456
26955W        W43139  13.325   6.264   5.165  0.4929  0.0803  0.0964
26956W        W43140   8.995   0.249  14.980  0.3718  0.2585  0.1980
26957W        W43141   9.942  12.347   3.115  0.2716 -0.0541 -0.0493
26958W        W43142   7.752   7.111  14.674 -0.0847 -0.0884  0.2011
26959W        W43143  14.045  16.251   4.944  0.2381 -0.3299 -0.1974
26960W        W43144   4.071   8.982   1.944 -0.1713  0.2376  0.1987
26961W        W43145   2.484   7.125  13.025  0.0491 -0.1605 -0.0667
26962W        W43146   0.521   7.112   4.389  0.1661 -0.1662  0.2985
26963W        W43147   0.248  13.804  10.496  0.0133 -0.0696 -0.1257
26964W        W43148   2.254  17.043  16.315 -0.2001  0.0722  0.1645
26965W        W43149   8.611  12.282  11.025  0.0346 -0.1103  0.2409
26966W        W43150  17.275   0.291   5.341 -0.1197  0.3194 -0.1596
26967W        W43151   8.937   8.661  12.231  0.0194  0.2570  0.1900
26968W        W43152  12.907  17.153   5.004 -0.2197  0.2937  0.3111
26969W        W43153  10.369   6.773   0.130  0.0415 -0.1888 -0.3810
26970W        W43154   2.243   8.963  12.613  0.0412 -0.0271  0.1346
26971W        W43155   3.617  11.841   3.112  0.1752  0.1280  0.1645
26972W        W43156  15.056   4.727  16.769 -0.0509  0.4001  0.0260
26973W        W43157  11.155  17.207  13.151 -0.1074  0.1629 -0.2149
26974W        W43158   2.984  16.231  11.074  0.1310 -0.2715  0.0290
26975W        W43159  14.092  17.239   3.865  0.3798  0.1220  0.0051
26976W        W43160  13.348   8.912   0.250  0.1090 -0.0194 -0.1133
26977W        W43161  12.910   3.604  13.422 -0.4656 -0.2663 -0.1823
26978W        W43162   3.276   1.489   2.350 -0.1116  0.1441  0.6486
26979W        W43163  17.056   5.061   0.715  0.0547 -0.2047  0.1858
26980W        W43164  15.292  12.133   1.463 -0.0839 -0.1121 -0.1660
26981W        W43165  11.941   4.529   5.141  0.0204  0.1266 -0.0737
26982W        W43166  16.431   6.904  11.721 -0.1445 -0.1952  0.2051
26983W        W43167  12.569  16.915  13.628 -0.1857 -0.1656  0.1752
26984W        W43168  12.641   6.459  16.872  0.0212  0.0500  0.0302
26985W        W43169   3.465  13.357  13.948 -0.1500 -0.2002 -0.1923
26986W        W43170   3.256  16.138   4.837 -0.5356 -0.1568 -0.0181
26987W        W43171  14.808   9.846   1.629 -0.1491 -0.0584 -0.0275
26988W        W43172   6.038  12.859  13.167 -0.0204 -0.0490  0.0464
26989W        W43173  17.664  15.303  15.396  0.1103  0.1744 -0.2736
26990W        W43174   3.885  15.650   1.416 -0.2301  0.0071 -0.0414
26991W        W43175   9.493  13.172  12.978  0.2960 -0.0389 -0.2114
26992W        W43176   7.072  14.394  15.449  0.0479 -0.0517  0.1649
26993W        W43177   0.508  14.193   4.425  0.2641  0.2163 -0.0757
26994W        W43178   1.875   6.478   2.975  0.2528  0.1802 -0.1644
26995W        W43179  15.267  17.445  15.998 -0.1146  0.2491  0.3075
26996W        W43180   0.595   9.800   1.597 -0.0246  0.2118 -0.1367
26997W        W43181   1.802  17.323   0.414  0.3589  0.1293  0.1625
26998W        W43182   8.880   1.820  15.553 -0.3003  0.2028 -0.2294
26999W        W43183  16.176   9.857   5.309  0.0642  0.3426  0.0945
27000W        W43184   2.954  13.272  11.844  0.0773  0.0942  0.1068
27001W        W43185  13.673  14.250   1.144  0.0219  0.2403  0.1716
27002W        W43186   6.879  15.489  14.839 -0.1085 -0.4500 -0.0066
27003W        W43187   1.121  14.180  16.159 -0.2018  0.1567 -0.1405
27004W        W43188  14.616  12.323  16.190 -0.1578 -0.1507 -0.1196
27005W        W43189   2.897  15.446  16.314  0.2218  0.0078 -0.0139
27006W        W43190   3.527   9.332   2.262  0.0232  0.0109  0.1297
27007W        W43191   2.904   7.568   4.076  0.1829  0.1571  0.1659
27008W        W43192   1.369   7.771   4.295 -0.1806  0.1741  0.0132
27009W        W43193   2.221   6.006  16.579  0.3157 -0.1056  0.4639
27010W        W43194  15.181   3.016   2.131  0.1596  0.1007  0.1846
27011W        W43195   6.548  14.495  16.375  0.2088  0.0222 -0.0388
27012W        W43196  14.957  17.091   1.708 -0.2261 -0.1170  0.2776
27013W        W43197  14.757  17.380   1.291  0.0776  0.0478 -0.0914
27014W        W43198   3.094  17.137  11.406  0.0069  0.0136  0.0487
27015W        W43199  15.563   8.984   5.945 -0.0891  0.2136  0.0539
27016W        W43200   6.112  14.501  14.093 -0.2478  0.0687 -0.3243
27017W        W43201   5.188  15.217  11.152  0.2434 -0.1704  0.0324
27018W        W43202  15.674  13.029  13.934 -0.1138  0.0503  0.1865
27019W        W43203  14.123  11.162  16.765  0.1988  0.1831 -0.0256
27020W        W43204  10.907   0.207  15.738  0.1192 -0.1257 -0.0576
27021W        W43205  17.271   1.148  16.897 -0.0777  0.0195 -0.0395
27022W        W43206  16.564   1.165  14.245  0.1190  0.1311  0.2019
27023W        W43207  16.733  11.905  16.624 -0.1549 -0.5837 -0.1222
27024W        W43208  13.421  11.326  14.885 -0.1407 -0.2017  0.0058
27025W        W43209   5.611   5.348   1.397 -0.0802  0.0385 -0.2863
27026W        W43210  11.170  13.946  15.894 -0.1715 -0.0142 -0.0609
27027W        W43211  16.157   1.082  16.845  0.0750  0.1318  0.0674
27028W        W43212   5.888   1.236   3.920  0.1636 -0.1547 -0.0640
27029W        W43213  10.240   2.917   3.494  0.1532 -0.2606  0.3255
27030W        W43214  13.784   8.488  16.213 -0.0251  0.1280 -0.0163
27031W        W43215   5.984   9.781  15.670 -0.1732  0.1593  0.0470
27032W        W43216  17.262   4.675  12.424 -0.3305 -0.2654  0.0716
27033W        W43217  14.261   5.397   5.436  0.0408 -0.0043  0.4409
27034W        W43218  11.872   9.362  15.320 -0.2974  0.1406 -0.1695
27035W        W43219   5.312   0.425  16.072  0.2071 -0.1395 -0.2072
27036W        W43220   7.132   6.084  16.832  0.2914  0.0566  0.0314
27037W        W43221   4.714   3.697  13.759 -0.0250 -0.1461  0.0259
27038W        W43222  11.237  13.231  14.599 -0.0011 -0.2561  0.1497
27039W        W43223  10.787  10.329  15.098 -0.1364  0.2544 -0.1403
27040W        W43224  11.153  15.225   2.359 -0.0178 -0.5164  0.0148
27041W        W43225  16.778   5.398  12.859 -0.0394  0.1816 -0.1579
27042W        W43226   0.114   7.881  15.346  0.3926  0.1648  0.3697
27043W        W43227   1.001  10.707   2.235 -0.3922 -0.1615  0.1040
27044W        W43228   6.447   1.513  15.002 -0.1010  0.0042  0.1698
27045W        W43229  12.724   7.828  14.913  0.1866  0.3292  0.0505
27046W        W43230  14.878   1.508  11.836 -0.0828  0.2155 -0.2764
27047W        W43231   9.119   3.843  11.109 -0.0952  0.1503 -0.0618
27048W        W43232  12.239  13.811  12.433  0.0182 -0.1096  0.0221
27049W        W43233  14.973   1.969  13.799 -0.4516  0.4204  0.1568
27050W        W43234  14.610   7.191   5.329 -0.4782 -0.2318  0.1325
27051W        W43235  14.150  14.150   1.006 -0.0388  0.1498  0.2005
27052W        W43236  13.091   3.010   4.928  0.0386  0.0814  0.0394
27053W        W43237  16.364   0.833  15.970  0.1645 -0.0983 -0.0597
27054W        W43238   2.589   3.875  16.161  0.0529  0.1031  0.1315
27055W        W43239  15.029   9.173  15.698 -0.1292  0.0468  0.3239
27056W        W43240   3.790   9.755   2.341 -0.1987  0.2390 -0.2051
27057W        W43241   9.113   8.483  16.703 -0.1739  0.0198 -0.1796
27058W        W43242  15.145   3.227  16.476 -0.0908 -0.2019 -0.0199
27059W        W43243  13.122  16.508  14.825  0.0372  0.0716 -0.0002
27060W        W43244   2.586   4.541   1.302 -0.0059 -0.0626 -0.3559
27061W        W43245   0.713   8.853  15.530  0.0875 -0.0509  0.0635
27062W        W43246  13.252  11.857   0.775  0.1890  0.0923  0.1130
27063W        W43247  11.267   8.157  13.919 -0.0151  0.2363 -0.1607
27064W        W43248   1.813  15.409  16.274 -0.0048 -0.1238  0.1555
27065W        W43249   6.858   2.280   0.081 -0.3183 -0.2136 -0.0676
27066W        W43250  13.880  16.783   3.996  0.2793 -0.3040 -0.1577
27067W        W43251   9.177  16.366   1.246 -0.0281 -0.1410  0.1114
27068W        W43252  14.574   9.172  11.778  0.4496 -0.2140 -0.3775
27069W        W43253  14.269   4.860  13.969 -0.1561  0.0792  0.3283
27070W        W43254  17.029  12.229  16.813 -0.0146  0.0287  0.1238
27071W        W43255   1.451  14.705  14.241  0.0754 -0.3228 -0.1573
27072W        W43256   8.834   1.204  11.713 -0.1373  0.2275  0.4507
27073W        W43257  16.213  13.432  13.930  0.0010  0.3389 -0.0866
27074W        W43258  11.875  14.874  15.481 -0.0948 -0.0597 -0.0209
27075W        W43259   1.283   7.550   4.755  0.1134  0.2309 -0.0266
27076W        W43260  13.745   9.591   2.567  0.0942 -0.0525  0.2724
27077W        W43261   5.140   6.069   2.191 -0.1798 -0.0035 -0.0076
27078W        W43262  12.193  11.861   1.615  0.1972 -0.2838 -0.1259
27079W        W43263   4.444   1.382   1.866  0.1597  0.1283 -0.4321
27080W        W43264   2.995  15.846   0.648  0.0386  0.2164  0.0482
27081W        W43265   7.175   1.843  12.218  0.0057 -0.0197  0.0370
27082W        W43266  14.208   2.315   0.148 -0.0710  0.2291 -0.1787
27083W        W43267  14.685   0.540  15.598 -0.3166 -0.0053 -0.3992
27084W        W43268  17.141   7.793  13.369 -0.0793  0.0441  0.0947
27085W        W43269  10.616  16.612   0.562 -0.3129  0.0011  0.0350
27086W        W43270  13.720   6.105   2.152  0.1878  0.0917  0.0261
27087W        W43271  12.720  16.036  12.556  0.1938 -0.2572 -0.0156
27088W        W43272   0.442  17.092   2.124 -0.0717 -0.2419  0.3590
27089W        W43273  15.977  13.128   0.273 -0.1231  0.1355  0.3944
27090W        W43274  14.998   7.468   0.762 -0.2632  0.0898  0.1184
27091W        W43275  11.883  14.955  11.747  0.0950  0.3632  0.1246
27092W        W43276   7.230   6.482   0.218 -0.0400 -0.4574  0.0593
27093W        W43277   8.890  17.776  13.456 -0.0904  0.0441 -0.1246
27094W        W43278   2.565  10.407   3.714  0.1006  0.1534 -0.2129
27095W        W43279   3.935  11.379  13.974  0.2036 -0.2842 -0.2523
27096W        W43280   5.114   4.149   4.019  0.0254 -0.0261 -0.2571
27097W        W43281   0.142  17.720  12.329  0.0729  0.0384  0.1133
27098W        W43282   7.816  12.683   2.167 -0.0166 -0.1406 -0.0521
27099W        W43283   4.310   7.489   2.003  0.1771 -0.0229  0.3388
27100W        W43284  13.944   8.511  16.753  0.2176  0.0476  0.1115
27101W        W43285   6.696   4.924   4.536 -0.0162 -0.2140 -0.3169
27102W        W43286   9.402   9.274   1.660  0.1812  0.0464 -0.1403
27103W        W43287   1.122   2.709  12.367  0.1937 -0.2780 -0.0937
27104W        W43288  10.480   1.811   5.189  0.2425  0.0701 -0.0791
27105W        W43289  14.183  14.891  12.211  0.1679 -0.2795  0.0871
27106W        W43290   6.914  13.913   4.802 -0.1235  0.1631 -0.1491
27107W        W43291  15.807  13.828   2.672 -0.3200  0.1237 -0.5173
27108W        W43292  17.743   4.392   6.212 -0.2405  0.3142  0.2078
27109W        W43293   8.836   9.716  16.039  0.1106  0.3205 -0.0015
27110W        W43294   6.567   0.194  13.291 -0.1058  0.2618  0.1937
27111W        W43295   0.062  11.403   0.856 -0.0040  0.0798  0.0274
27112W        W43296   9.529  10.490   1.988  0.0702  0.1009  0.2407
27113W        W43297   9.678  14.102  12.079 -0.1498 -0.1871  0.1552
27114W        W43298  12.351  10.933  15.109  0.0943 -0.1537 -0.0386
27115W        W43299  15.178   7.628   3.985 -0.0894 -0.2208 -0.1146
27116W        W43300   6.329  17.159   4.074  0.0898 -0.5522 -0.1398
27117W        W43301  13.422   6.617  16.191  0.1917 -0.1567  0.1578
27118W        W43302  15.202   0.451   1.638  0.1217  0.2097  0.1379
27119W        W43303   6.453   8.118  16.714 -0.1400  0.2561  0.2239
27120W        W43304  13.590  15.513  15.049  0.0795 -0.0045  0.1586
27121W        W43305   4.106  15.756  13.621 -0.0523 -0.0377  0.0210
27122W        W43306  15.873   2.509  15.797 -0.1674 -0.0514 -0.0311
27123W        W43307   8.778   2.143   2.414  0.3871 -0.1853  0.3654
27124W        W43308   6.604   7.734   3.387 -0.1126 -0.0462 -0.1100
27125W        W43309   7.908  12.397  15.574  0.0798  0.3052 -0.1746
27126W        W43310   6.920  16.930  12.716 -0.2219  0.0055 -0.1795
27127W        W43311  11.625  12.152   3.492 -0.2893  0.2601 -0.0898
27128W        W43312   7.456  13.260   4.310  0.2343  0.0211  0.4009
27129W        W43313   1.616   6.579   0.113 -0.0887  0.0823 -0.0724
27130W        W43314   2.399  13.819  15.809  0.0933 -0.1584  0.1915
27131W        W43315   2.201  12.590   3.224 -0.3107 -0.2370 -0.0651
27132W        W43316  15.649  14.081   0.303  0.2028 -0.2525  0.1033
27133W        W43317   8.757   0.272  12.436 -0.1282 -0.1845  0.0595
27134W        W43318   0.195  12.010  13.960  0.1620  0.2356  0.1996
27135W        W43319   0.734   7.882  12.982 -0.1557 -0.1534 -0.1578
27136W        W43320   9.879   8.453   4.687  0.1385 -0.3003 -0.0179
27137W        W43321  17.853   2.129  12.048  0.3242 -0.0826  0.0890
27138W        W43322   3.962   7.645   4.416  0.0810  0.1245  0.7837
27139W        W43323  17.709   8.725   1.013  0.1546 -0.0971 -0.0762
27140W        W43324  14.808   6.327   2.321 -0.0158  0.0807  0.1215
27141W        W43325   0.173  11.389   1.332  0.3034  0.0313  0.1537
27142W        W43326  15.654  15.251  12.399  0.1790 -0.1422 -0.1395
27143W        W43327   4.634   1.291  11.927  0.3733  0.0582 -0.1418
27144W        W43328   7.694   0.283   3.717 -0.1114  0.0137  0.1395
27145W        W43329   8.831   4.120  16.146  0.0771  0.1799 -0.0266
27146W        W43330   4.165   0.360   2.650  0.3941  0.1836  0.2109
27147W        W43331  16.608   8.919   0.318 -0.3199  0.2961 -0.2083
27148W        W43332   6.196   1.220  12.209  0.0200  0.0846 -0.0184
27149W        W43333  15.973  12.740  12.057 -0.0783  0.0346 -0.3504
27150W        W43334  15.840   7.658  16.285  0.2026 -0.1175 -0.2083
27151W        W43335   4.604  11.149   6.409  0.1714 -0.3195  0.0276
27152W        W43336   4.788   2.676   0.211 -0.0643 -0.0041  0.0016
27153W        W43337   4.476   0.697   4.828  0.0104 -0.0366  0.1110
27154W        W43338   5.020  13.743   4.933 -0.3391  0.3581  0.0962
27155W        W43339  14.698  13.640  12.651  0.0345  0.1576 -0.2099
27156W        W43340  12.977  17.346  16.123  0.2404 -0.1528 -0.0513
27157W        W43341  13.047  16.779  16.264  0.2068 -0.0457 -0.0697
27158W        W43342   0.854   4.772   5.174 -0.2169  0.1030 -0.0144
27159W        W43343  16.576   9.090  15.375 -0.1338  0.0858 -0.1990
27160W        W43344  16.247   1.051   1.444 -0.1860 -0.1502 -0.1077
27161W        W43345  11.787  16.879  14.798 -0.2654  0.1074 -0.0320
27162W        W43346  16.233  10.389  14.628 -0.1261  0.2151  0.3452
27163W        W43347   1.350   4.949   5.129  0.1229 -0.2513 -0.1146
27164W        W43348  10.750  12.523   2.471  0.0912  0.2072 -0.0029
27165W        W43349   0.744  12.968  15.816 -0.5869  0.0378 -0.2860
27166W        W43350  16.559  13.934  12.113 -0.3116 -0.1091 -0.1836
27167W        W43351   9.524   5.517   3.563  0.0204 -0.0492 -0.0161
27168W        W43352   0.683  10.265  13.627  0.2323 -0.4379 -0.0536
27169W        W43353  15.293  14.791  16.823  0.0368  0.2466 -0.1112
27170W        W43354   9.364   9.445   3.926  0.2009 -0.0320  0.1582
27171W        W43355  17.279  15.569  15.406  0.0483  0.1318 -0.0439
27172W        W43356  15.084  10.131   3.918  0.1660 -0.2844 -0.1786
27173W        W43357   4.894  12.187  12.766  0.2111  0.3230 -0.0089
27174W        W43358   2.143   5.085   5.516 -0.1250 -0.4093 -0.1464
27175W        W43359   5.406  12.466  15.810 -0.1516  0.4598  0.1533
27176W        W43360   7.599  13.846  14.339  0.0507 -0.0458 -0.1351
27177W        W43361  12.518  11.783  12.396  0.1664  0.3104 -0.1148
27178W        W43362   6.994   8.476  15.339  0.1374  0.1225 -0.1690
27179W        W43363  15.763  13.358   4.696 -0.0659 -0.0440  0.2161
27180W        W43364   2.274   8.062  12.849  0.1282 -0.2114 -0.2056
27181W        W43365  11.243   7.893  15.131  0.1772 -0.0857 -0.1669
27182W        W43366  12.551   9.503  16.744 -0.0411  0.2276  0.1468
27183W        W43367   2.281  11.315  12.092 -0.1615  0.0406  0.1054
27184W        W43368   8.805  11.463  15.537 -0.3010 -0.1133  0.1145
27185W        W43369   4.466   3.517   1.243  0.0702 -0.1099  0.1343
27186W        W43370   0.065   6.557  15.345 -0.3305  0.4264 -0.0102
27187W        W43371  12.422  15.863   1.940  0.3893 -0.0425  0.1464
27188W        W43372   6.753  10.613   4.626  0.1502 -0.1765 -0.3558
27189W        W43373   7.232  15.692   1.998  0.0604 -0.3095  0.2005
27190W        W43374  15.172   3.687   5.586  0.0485 -0.0585 -0.2190
27191W        W43375  12.397   3.454   0.706  0.1521  0.1625 -0.1874
27192W        W43376   3.417  17.777   1.988  0.1831 -0.1901  0.0976
27193W        W43377   9.874  16.623  15.544 -0.1504  0.1798  0.2400
27194W        W43378  10.329  13.635  12.011  0.1143 -0.2958 -0.0329
27195W        W43379  14.718  16.818   2.548  0.0194  0.4324  0.2396
27196W        W43380   8.930   1.648   5.099 -0.0361 -0.2335  0.0519
27197W        W43381  14.976  17.054  15.251 -0.2919  0.1390  0.0353
27198W        W43382   2.382  13.313   5.289 -0.1643  0.2045 -0.2321
27199W        W43383   9.721  14.768  13.693 -0.0401 -0.0003  0.1069
27200W        W43384  11.409  11.642   3.344  0.3738  0.0164 -0.0636
27201W        W43385   5.213   2.913   3.459 -0.1549 -0.0865 -0.0546
27202W        W43386   6.118   4.555  14.104  0.2579  0.0886  0.1326
27203W        W43387  16.708   3.884   2.025 -0.0303 -0.2158 -0.0309
27204W        W43388   7.825  13.804  15.113 -0.0149 -0.0068 -0.1734
27205W        W43389   2.481   5.527   4.413  0.3049  0.1094  0.1577
27206W        W43390  10.345  17.081   2.687  0.0825  0.1094  0.0665
27207W        W43391   5.579   6.456   5.057 -0.2345 -0.0633  0.0548
27208W        W43392   7.733   9.488  11.831  0.0098  0.1176  0.1341
27209W        W43393   6.847   0.814  14.751  0.1047 -0.1942  0.1319
27210W        W43394   2.295  11.329   5.511 -0.2574 -0.2540  0.4556
27211W        W43395   3.329   8.919  13.128  0.0114  0.0704 -0.1883
27212W        W43396  16.780  14.303   2.095  0.2641 -0.0753  0.1759
27213W        W43397  17.122   5.914   5.668  0.1410 -0.2987  0.0303
27214W        W43398  12.738   9.219  14.367  0.0007  0.0260  0.0369
27215W        W43399   8.503  11.929  14.822 -0.0092 -0.0734  0.3429
27216W        W43400  14.896   4.337   4.908  0.1352 -0.1425 -0.2470
27217W        W43401  10.499  10.072   0.213  0.2949  0.1415  0.0083
27218W        W43402  14.659  15.122  12.133  0.0627 -0.1422  0.0566
27219W        W43403   6.969   5.193   6.344 -0.0053 -0.1596  0.1163
27220W        W43404   1.799   9.275  12.555 -0.1896  0.0086  0.2363
27221W        W43405  12.175  13.950  12.898  0.2624 -0.0917  0.1401
27222W        W43406   0.476  14.879  12.682  0.3740 -0.0078  0.0150
27223W        W43407   2.901   5.958   1.914 -0.2418  0.0039  0.2672
27224W        W43408   3.755  15.244  13.472 -0.0194  0.2089 -0.0570
27225W        W43409   0.201   5.733   5.760  0.1001  0.1499  0.0268
27226W        W43410  12.501  17.425   2.263  0.0529  0.0551 -0.0566
27227W        W43411   5.423   3.699  14.859 -0.1235 -0.1214  0.0342
27228W        W43412   7.648   2.898   4.557 -0.0528 -0.0658 -0.0401
27229W        W43413  16.736  13.640  16.522 -0.0051  0.0586 -0.2663
27230W        W43414   4.182  16.160  12.569 -0.3747 -0.1476  0.1577
27231W        W43415   2.437   5.080   2.404  0.1782  0.1119 -0.1122
27232W        W43416   5.271  10.217  12.706 -0.1260 -0.0037 -0.0405
27233W        W43417   4.968  17.405   0.579  0.0453 -0.1365 -0.1870
27234W        W43418  14.302  15.334   4.622 -0.0533 -0.0633 -0.2497
27235W        W43419  10.229   6.340  13.536 -0.2053 -0.1000  0.4949
27236W        W43420  17.267   3.659  15.908  0.0641  0.1695 -0.0476
27237W        W43421  17.470  10.243   6.378  0.1649 -0.1758  0.0221
27238W        W43422   9.196  14.381  11.096 -0.1122  0.0066 -0.0278
27239W        W43423   3.875  16.614   1.894 -0.2938  0.0496  0.2974
27240W        W43424  15.510   8.764   2.761 -0.0493 -0.2557 -0.0187
27241W        W43425   9.253  13.817   2.798 -0.0911  0.1389  0.1299
27242W        W43426   8.418  13.190   3.731  0.1900  0.1488  0.1308
27243W        W43427  11.879  15.577   3.484  0.0054  0.3034  0.3636
27244W        W43428  13.366   5.322  16.093  0.1296  0.2614  0.0288
27245W        W43429  14.965   8.330  13.966 -0.0396 -0.1593 -0.1007
27246W        W43430  11.855  17.110  15.645  0.1593 -0.0922  0.2663
27247W        W43431   0.966   0.976  14.891  0.2272 -0.0350 -0.4220
27248W        W43432  14.287  17.877   4.419  0.1007  0.1013  0.0629
27249W        W43433   5.086  11.927   4.481 -0.0146  0.2225 -0.0983
27250W        W43434  10.529   9.357  11.931  0.4145 -0.3284 -0.1700
27251W        W43435  16.334   1.623   4.458  0.3328  0.0514  0.1430
27252W        W43436   1.840   3.651  15.295 -0.1200 -0.1005 -0.3113
27253W        W43437   8.910   2.023  14.998  0.0291  0.1882 -0.3486
27254W        W43438  14.295   6.057   2.222  0.1972  0.4338  0.0589
27255W        W43439  15.554   3.357   5.935 -0.3653 -0.1367  0.1568
27256W        W43440   7.698   7.935   5.909  0.2109  0.3690 -0.3554
27257W        W43441   1.067  13.986   1.276  0.3706 -0.3282  0.1278
27258W        W43442   4.776  13.707  15.176  0.1116  0.2363  0.1036
27259W        W43443   9.337   8.600   0.398 -0.2810 -0.0592  0.0126
27260W        W43444  15.389   9.727  11.718  0.1182  0.1162  0.1316
27261W        W43445  17.122   2.155  14.012  0.1319  0.1511  0.2348
27262W        W43446   6.552   5.840  15.054  0.0646 -0.0627  0.0344
27263W        W43447  11.534   7.788  14.178 -0.1381  0.0671 -0.1194
27264W        W43448  13.143   5.036  14.609 -0.3368 -0.0751  0.2780
27265W        W43449   5.762  12.980   1.268 -0.1884 -0.0753 -0.0157
27266W        W43450  16.321   8.014   4.059  0.0976 -0.1844  0.0530
27267W        W43451   1.760  10.720  15.597  0.1952  0.4371  0.1403
27268W        W43452   1.854   3.861  15.765 -0.1685 -0.0285  0.0133
27269W        W43453   7.574  14.994   1.726 -0.1953  0.2202  0.4643
27270W        W43454  12.477  12.010  13.443 -0.2577 -0.0215 -0.1352
27271W        W43455   9.355   0.056   1.756 -0.0673  0.0291 -0.0524
27272W        W43456   8.138  10.931  14.503 -0.0278  0.3387  0.0958
27273W        W43457   8.193   0.428  11.769  0.1593 -0.1982  0.1380
27274W        W43458   1.797   7.511  15.841 -0.1640 -0.0247 -0.2096
27275W        W43459  12.505  16.581   2.971  0.1235 -0.1952  0.3053
27276W        W43460  15.983  11.335  14.484 -0.0720  0.3623 -0.0384
27277W        W43461   8.355  17.241  16.795  0.1825  0.1053 -0.0352
27278W        W43462  12.543   0.148  13.540 -0.0315 -0.4666 -0.2786
27279W        W43463  17.632  16.218  12.505 -0.1123  0.1094 -0.1427
27280W        W43464   2.315   2.478   2.369  0.0537 -0.2310 -0.2627
27281W        W43465  14.053  16.402   0.367 -0.0844  0.0208  0.2744
27282W        W43466   0.110  14.346  14.143  0.0700 -0.1313  0.1514
27283W        W43467  14.706  17.647   4.612  0.0126 -0.1785 -0.1291
27284W        W43468  15.273  17.508  15.186 -0.1779 -0.0760  0.1027
27285W        W43469   2.473   0.517   3.654 -0.0126 -0.2319 -0.0782
27286W        W43470   6.039  16.877   3.821  0.2041 -0.2976  0.1815
27287W        W43471   0.910  12.364  15.590  0.3040 -0.0952 -0.0492
27288W        W43472   9.356   1.108  13.023 -0.0850  0.2456  0.0995
27289W        W43473   4.953  15.220   5.666  0.2721  0.1476  0.2674
27290W        W43474  13.014   9.468  16.894  0.2999  0.4107  0.2277
27291W        W43475   5.613  17.149  16.584 -0.0887  0.0001  0.3938
27292W        W43476  14.828   7.796  12.301 -0.3843 -0.1056 -0.3870
27293W        W43477   8.572   2.597   3.256  0.0072  0.0365 -0.2982
27294W        W43478   9.023  13.923  16.465  0.1053  0.1750  0.0241
27295W        W43479  14.406  14.811  13.664 -0.1800  0.3764 -0.0604
27296W        W43480  13.811  10.296   4.688  0.1718  0.1239 -0.1285
27297W        W43481  17.035   9.578   4.077 -0.0400 -0.0088 -0.2920
27298W        W43482   8.049   3.407   4.920  0.0617 -0.0571 -0.0171
27299W        W43483   2.404   4.555  12.262 -0.1456 -0.0088 -0.0627
27300W        W43484  10.411  14.811  11.396 -0.0402  0.0435  0.2331
27301W        W43485  14.219  15.808   3.944 -0.3017  0.0538 -0.3253
27302W        W43486  11.597  11.589  16.681  0.0069  0.1596 -0.3333
27303W        W43487  14.200  15.648   6.577 -0.2505  0.0711  0.1816
27304W        W43488  11.469   7.397   2.039 -0.0230  0.2152 -0.0945
27305W        W43489  14.613   2.102  15.705  0.2084 -0.1517 -0.1000
27306W        W43490  16.584   1.378   0.365  0.1539 -0.3220 -0.2413
27307W        W43491   1.918   2.773   3.094 -0.1434  0.0184 -0.1245
27308W        W43492   6.388  13.914  12.416 -0.0907 -0.0685  0.1716
27309W        W43493   6.710   4.401   3.092  0.3036 -0.0784 -0.2483
27310W        W43494  14.306   0.393  14.919  0.1850  0.2302  0.2485
27311W        W43495   5.905   8.472  12.812 -0.2911 -0.1466 -0.3252
27312W        W43496  12.259   6.819   2.182  0.1465 -0.3759 -0.0531
27313W        W43497   2.098   2.359   2.866  0.0472 -0.0882  0.1009
27314W        W43498   8.644  16.072  14.321  0.0232 -0.1323 -0.3603
27315W        W43499   0.176  16.193  15.846 -0.2561 -0.0492 -0.2452
27316W        W43500   3.388  12.273  15.407  0.0425 -0.1977  0.0406
27317W        W43501  14.453   3.204  12.787 -0.0640  0.0582  0.1279
27318W        W43502  17.101   2.106   2.197 -0.2670 -0.1596 -0.4521
27319W        W43503   4.068   8.833  15.391 -0.0855  0.2443  0.0158
27320W        W43504   9.893  11.961  15.177  0.1633  0.1927 -0.1301
27321W        W43505   8.944   1.597  12.922 -0.1053 -0.0091 -0.3526
27322W        W43506   2.233   8.630  16.110  0.0689  0.1435 -0.3477
27323W        W43507   0.372   5.899  11.841  0.0161  0.0619  0.0763
27324W        W43508  16.096   9.801  13.387  0.0463  0.0479 -0.4630
27325W        W43509  14.989  17.721  13.199  0.1638  0.1269 -0.2650
27326W        W43510   4.532   1.203  13.021  0.1464 -0.2599 -0.1347
27327W        W43511   0.805   6.472   6.461 -0.2129 -0.0683 -0.2036
27328W        W43512   5.642  11.528  16.640 -0.1472 -0.2183 -0.1520
27329W        W43513   0.209  16.256   0.516 -0.1361  0.2143  0.1388
27330W        W43514   8.281  11.164  15.328 -0.0433 -0.1236 -0.2018
27331W        W43515   7.014   8.009   5.116  0.3895  0.2702  0.1988
27332W        W43516  16.339   5.702   4.112  0.0602 -0.0686  0.0430
27333W        W43517   8.273  13.220   6.328  0.0840 -0.0080  0.1993
27334W        W43518   7.705   5.152   5.900  0.1012 -0.0465  0.2355
27335W        W43519   6.593  17.148   0.670 -0.1415 -0.2676  0.1637
27336W        W43520  14.648  15.689   4.410 -0.3974  0.1832  0.0462
27337W        W43521   7.213   8.430   0.076 -0.1490 -0.0021  0.2451
27338W        W43522  17.148  15.878   3.734  0.1100  0.2987  0.0601
27339W        W43523  15.687  17.645   2.162 -0.3126  0.1332 -0.1939
27340W        W43524   4.208   9.423   0.555 -0.0058  0.1186 -0.0181
27341W        W43525   5.877  10.785  12.168 -0.0964 -0.0069 -0.1931
27342W        W43526   3.935   3.480   4.545 -0.1180  0.0075 -0.1426
27343W        W43527  12.116   9.369   3.146 -0.0830  0.0992 -0.0357
27344W        W43528  14.152   8.363   3.162  0.1532 -0.2743 -0.2841
27345W        W43529  12.461  13.016  13.534  0.3182 -0.1568  0.6335
27346W        W43530   9.432  16.911  16.844 -0.2149  0.0607  0.0004
27347W        W43531  11.232   4.902   2.842 -0.2327 -0.0275  0.2154
27348W        W43532   9.819  16.976   0.403 -0.2155 -0.0631  0.0527
27349W        W43533   7.119   2.828   2.181 -0.2527 -0.0913  0.0687
27350W        W43534   5.771  14.449  16.874  0.1294  0.0153  0.1915
27351W        W43535  14.683  14.103   3.398 -0.1820  0.2415 -0.1253
27352W        W43536  14.501  11.513   0.102 -0.2308 -0.0893 -0.0042
27353W        W43537  13.564   5.317   4.860  0.0910 -0.3017  0.0620
27354W        W43538  15.331   0.030  16.882 -0.1482 -0.0523  0.0095
27355W        W43539  17.846  12.447   1.877 -0.0609 -0.3009  0.2047
27356W        W43540  14.665   3.231  13.675  0.1098 -0.4271  0.0895
27357W        W43541  11.787  15.238  12.644  0.2673 -0.0081 -0.1011
27358W        W43542  16.726  17.446   1.728  0.1043 -0.2530 -0.1031
27359W        W43543   4.649  12.139  16.168  0.2496 -0.1857  0.3322
27360W        W43544   8.611   5.679  16.179  0.0150  0.0032 -0.2469
27361W        W43545   0.612  11.426   0.488  0.1548 -0.0118 -0.0810
27362W        W43546   7.546   9.711   0.181 -0.1771  0.3142 -0.1104
27363W        W43547   4.212   6.130   3.834  0.0283 -0.0752  0.1454
27364W        W43548   9.391   7.676   0.566  0.1971  0.1974  0.0377
27365W        W43549  10.849   3.504  13.982  0.1314  0.0411 -0.0900
27366W        W43550  13.983  13.130  14.801  0.2734 -0.1941 -0.1731
27367W        W43551  16.575  14.068  11.559 -0.0941  0.2517  0.4087
27368W        W43552  13.674   5.190   4.284  0.0024 -0.1296 -0.1723
27369W        W43553   1.745  11.690  13.661  0.3186 -0.0553 -0.0416
27370W        W43554   4.538   4.417   1.235 -0.3287 -0.1065  0.1158
27371W        W43555   9.664   9.215   3.121 -0.1428  0.1739  0.1245
27372W        W43556   5.620  13.940   3.826 -0.1812 -0.1048 -0.0107
27373W        W43557   7.508   6.245  14.775  0.3176 -0.2402 -0.0582
27374W        W43558   0.715   2.771  12.661  0.0901  0.1562 -0.2050
27375W        W43559  17.520  12.359  16.581  0.0811 -0.2068  0.1700
27376W        W43560  17.534   9.203  14.270 -0.1016  0.2636 -0.0780
27377W        W43561  13.308   5.830  11.915  0.1894 -0.1996  0.0411
27378W        W43562   3.490  16.927   2.887 -0.0203  0.3175  0.1618
27379W        W43563  14.046  10.454  13.913 -0.0072 -0.4024  0.0162
27380W        W43564  14.323  14.054  13.422  0.0508  0.0029 -0.2512
27381W        W43565  14.336  11.004  15.111 -0.1914 -0.1342  0.1247
27382W        W43566  11.276   9.931   2.803  0.1265  0.3502  0.2272
27383W        W43567   0.022   6.596   0.328  0.1238 -0.2200  0.0540
27384W        W43568   8.702   4.708  13.679  0.2629 -0.1374 -0.1977
27385W        W43569  16.950   3.879  12.748  0.1349 -0.7722 -0.3077
27386W        W43570   0.499   4.442   2.649 -0.3187  0.1858 -0.1102
27387W        W43571   4.985   4.306  13.155 -0.0537  0.0044  0.2118
27388W        W43572   9.733   4.292  14.593 -0.0484 -0.1796  0.1757
27389W        W43573  16.257   2.605  13.520  0.3909 -0.0505  0.1382
27390W        W43574  16.542  10.115   1.985 -0.0056  0.0688 -0.3826
27391W        W43575   1.844   1.707  14.394  0.2818  0.2083 -0.1589
27392W        W43576   8.654   3.269  13.026  0.0916  0.2651  0.0455
27393W        W43577  17.120   2.153  14.478 -0.2608  0.1997 -0.0617
27394W        W43578  17.567   2.176   6.011  0.0230  0.0542 -0.0219
27395W        W43579  12.464  14.502  14.629  0.0266  0.2528 -0.1190
27396W        W43580  10.888   1.646  11.928  0.0256  0.0632  0.1300
27397W        W43581  11.343   4.046   0.794 -0.1165 -0.0508 -0.0576
27398W        W43582   2.302   2.133   4.255 -0.0419 -0.1929 -0.1643
27399W        W43583   4.428  12.427  12.559 -0.0708 -0.2174 -0.1502
27400W        W43584  14.719  13.667   0.539 -0.0661  0.1511  0.0785
27401W        W43585  14.313   9.952   1.802 -0.0597  0.0968  0.2133
27402W        W43586   1.610  16.154  12.188 -0.0096 -0.1755  0.1256
27403W        W43587  12.667  17.868  12.184  0.1311  0.0304  0.0344
27404W        W43588   3.312   3.592   0.248  0.2371  0.0871 -0.6871
27405W        W43589  16.975  12.691   1.594 -0.1365 -0.1081 -0.0725
27406W        W43590   2.557   1.383   5.420  0.2904  0.3583 -0.1597
27407W        W43591   0.178   9.961  13.576  0.0669  0.1643 -0.1004
27408W        W43592  16.882  11.034  14.721 -0.1764 -0.0257 -0.1688
27409W        W43593   3.399   8.658   3.056  0.0411  0.1029  0.2419
27410W        W43594   4.913  15.410  15.909 -0.1130 -0.3453 -0.2345
27411W        W43595  16.142   0.595  16.861 -0.1116 -0.3978  0.1680
27412W        W43596   3.116   5.596  14.370 -0.0043 -0.1909 -0.1316
27413W        W43597  11.549   7.685   1.463  0.1386  0.2478 -0.0254
27414W        W43598  12.954   6.687   1.683  0.4015  0.0502  0.1890
27415W        W43599   0.509   6.488  11.997 -0.0321 -0.1623  0.2335
27416W        W43600  16.056   9.173   0.073 -0.2400 -0.0863 -0.0822
27417W        W43601  12.849   4.429   2.816  0.2435  0.2431  0.0277
27418W        W43602  14.568   0.654  13.912  0.3075  0.0668 -0.2000
27419W        W43603   3.574   6.588  13.216 -0.0172 -0.1238 -0.2807
27420W        W43604   2.094   0.303   1.932  0.1220  0.0355  0.2110
27421W        W43605   9.649   4.141  15.574 -0.1875 -0.1920  0.1792
27422W        W43606   4.757  10.119   0.612  0.2567  0.2152 -0.3152
27423W        W43607  16.404   5.008  13.066 -0.3753 -0.2810 -0.1423
27424W        W43608   9.360   1.988   5.168  0.0536 -0.0428 -0.1052
27425W        W43609   1.934  14.465  14.970 -0.1047  0.5551 -0.2931
27426W        W43610   2.083  11.751  13.175 -0.0151 -0.0452 -0.0057
27427W        W43611  14.229   8.422  12.026 -0.2375 -0.2444  0.3564
27428W        W43612   1.769   4.486  15.771 -0.0956  0.0114  0.1041
27429W        W43613   4.281   1.618  11.909  0.2141  0.1333  0.2594
27430W        W43614   8.486   7.348   0.315  0.3021  0.0767 -0.3546
27431W        W43615  14.464   5.656  11.632 -0.0450  0.1796 -0.4144
27432W        W43616  10.442  17.143  13.349  0.2563  0.1611 -0.2873
27433W        W43617   6.049   3.245   5.870  0.0874  0.0336  0.0314
27434W        W43618  11.610   6.713   4.117 -0.1632  0.0199 -0.0112
27435W        W43619   0.782  16.262  16.190 -0.4352  0.0876  0.2027
27436W        W43620   8.257   1.341   3.556 -0.2599  0.1704  0.2708
27437W        W43621   3.470   3.608   2.955 -0.0830 -0.0974 -0.0575
27438W        W43622  11.606   2.316  11.787  0.2315  0.2297  0.1603
27439W        W43623   1.185   2.178  12.730  0.0482  0.0676 -0.1167
27440W        W43624   9.015   9.523   0.614 -0.0117  0.1497 -0.0533
27441W        W43625  11.096   1.096  16.228  0.0295  0.0259 -0.2190
27442W        W43626   7.279   4.859   3.761 -0.0482  0.1089 -0.0467
27443W        W43627   3.094   2.624  12.417  0.2040 -0.4686  0.0607
27444W        W43628  16.099  12.970  15.650  0.3564  0.0975 -0.1888
27445W        W43629  16.182  12.745   0.602  0.1489  0.4105  0.1133
27446W        W43630   6.646   8.393   0.771 -0.0470  0.1072  0.4527
27447W        W43631   5.508  16.383   1.386  0.1765 -0.2764  0.0893
27448W        W43632   0.383   8.620  11.651  0.1620  0.0722 -0.0834
27449W        W43633  15.249   8.230   2.088  0.2382  0.2791 -0.0061
27450W        W43634   6.496  14.321  15.219  0.3566 -0.4452 -0.2283
27451W        W43635  11.484   8.180  11.602  0.1087 -0.0069  0.0126
27452W        W43636   7.516   8.430   5.855 -0.0424  0.1888  0.0957
27453W        W43637   2.872   3.604  13.161  0.1117  0.4421 -0.0542
27454W        W43638  13.109  17.009  15.000  0.1992 -0.3958  0.2138
27455W        W43639   9.418  13.907   2.308  0.1259  0.2412  0.0396
27456W        W43640  16.517   9.341  16.796 -0.1502 -0.1789  0.3699
27457W        W43641  13.598   7.814   0.099 -0.2968  0.1102  0.1769
27458W        W43642  12.594   8.167  14.506 -0.0964 -0.0181 -0.1024
27459W        W43643  10.975  13.222  13.658  0.1208 -0.0170 -0.0856
27460W        W43644   6.010   5.823   5.622  0.1028  0.1369  0.0434
27461W        W43645   8.647   2.097   3.705  0.1329  0.0063  0.0001
27462W        W43646   3.353  15.322  13.954 -0.1583 -0.0267 -0.1108
27463W        W43647   1.353  15.319   1.622  0.0279  0.2704  0.3624
27464W        W43648   6.221  13.838   0.186  0.0481  0.1790  0.0300
27465W        W43649  10.682  15.565  13.251  0.4006  0.0255  0.1899
27466W        W43650  12.452   0.332  12.555 -0.1553  0.1049 -0.2941
27467W        W43651  17.530   8.848  14.635 -0.0893  0.0593 -0.0222
27468W        W43652   9.824   2.695  16.915 -0.2358  0.0626 -0.0507
27469W        W43653   4.995   3.401   1.364 -0.0868  0.1152  0.2386
27470W        W43654   8.021   1.545   4.525  0.1667  0.2812 -0.1763
27471W        W43655   3.746   2.778  13.258  0.1106 -0.2097  0.3738
27472W        W43656   4.425   9.345   1.842  0.0104 -0.1370  0.0993
27473W        W43657  11.594   1.073   5.505  0.2698 -0.1649  0.1967
27474W        W43658   0.337  12.724   4.335  0.0618 -0.0744  0.0806
27475W        W43659   7.096   4.050  12.688  0.0402 -0.0532  0.4015
27476W        W43660   0.571  12.278   5.704  0.0243 -0.2058  0.1566
27477W        W43661  11.284  13.195   4.824  0.0840 -0.0200 -0.2704
27478W        W43662   7.075  12.240   5.171  0.3157 -0.0021  0.0608
27479W        W43663   0.703  10.600   0.720 -0.1524 -0.2156 -0.3346
27480W        W43664   4.458   3.388   5.518 -0.1454  0.1300  0.0800
27481W        W43665  10.449   3.913  15.099  0.1591 -0.1601 -0.3176
27482W        W43666   2.812   9.760   1.196  0.1196  0.1452 -0.1320
27483W        W43667   8.819   5.973   3.771  0.2867  0.0338 -0.1827
27484W        W43668  13.333  17.645   2.732  0.0185 -0.0740 -0.1809
27485W        W43669  17.608   9.355   2.323  0.0714 -0.3951  0.0391
27486W        W43670  13.259  16.259   5.547  0.5792 -0.1983 -0.2208
27487W        W43671   6.093  15.497   2.610 -0.0539 -0.1610  0.0587
27488W        W43672  15.259  12.278  13.682  0.2592 -0.2550  0.0878
27489W        W43673   5.230  16.632   4.689  0.0284 -0.4705 -0.0091
27490W        W43674   6.283   6.106   1.539 -0.0127 -0.4723  0.4307
27491W        W43675   7.433  12.413   0.808  0.1069  0.0769  0.1143
27492W        W43676  11.769  14.123  13.149  0.3349  0.0402  0.1940
27493W        W43677   0.839   7.858  16.013  0.0627  0.2696  0.1997
27494W        W43678   7.351   5.765   2.939 -0.1761  0.0964  0.1303
27495W        W43679  10.724  12.049   3.175  0.3074 -0.0693 -0.2473
27496W        W43680   3.115  13.140   0.023  0.0368  0.0001 -0.2256
27497W        W43681   5.708   2.249  13.702 -0.2261 -0.0069 -0.2457
27498W        W43682   3.042   9.512   4.935  0.1247 -0.4064  0.0984
27499W        W43683   5.288   1.764   4.333  0.2796 -0.0210  0.0802
27500W        W43684   1.285  12.403   2.288 -0.1571 -0.0487 -0.0633
27501W        W43685   9.272   8.903   3.180  0.1763 -0.1248  0.0120
27502W        W43686   1.916   3.817   3.574  0.1311 -0.1032  0.2556
27503W        W43687  15.528  17.867   3.975  0.1230 -0.2330 -0.2742
27504W        W43688  16.320   9.458  15.673 -0.2442  0.0964  0.0898
27505W        W43689   4.628   8.782   0.496  0.0266  0.0530  0.3089
27506W        W43690  17.649   2.862  12.784  0.0089  0.1094  0.0566
27507W        W43691  14.947   4.647  13.822 -0.0478 -0.1841 -0.3169
27508W        W43692   7.321   4.220  16.376  0.1122  0.0319 -0.0246
27509W        W43693  11.969   8.773   3.161 -0.0944  0.0892 -0.1201
27510W        W43694  10.120  15.319  12.082 -0.3503 -0.1856  0.0590
27511W        W43695  15.087  10.934   2.958  0.1561 -0.0303 -0.1475
27512W        W43696   7.562   9.740  13.050 -0.2600 -0.1695  0.0103
27513W        W43697  13.862  12.706   2.661 -0.2098  0.0334  0.0648
27514W        W43698   4.538  17.809  14.852 -0.3413 -0.0532  0.0872
27515W        W43699  13.052  16.022   4.293  0.0255 -0.1962 -0.3356
27516W        W43700   2.275   7.836  13.386  0.0555 -0.0029  0.1733
27517W        W43701   1.778  12.709   1.516 -0.1447  0.1210 -0.1434
27518W        W43702  17.271  12.636   5.599 -0.1848  0.0525 -0.0574
27519W        W43703   4.073   2.213  15.113  0.0502 -0.0178  0.1185
27520W        W43704   6.785   5.113   0.747  0.0173 -0.4402  0.0066
27521W        W43705   6.015   2.899   5.537 -0.1035 -0.0558 -0.0919
27522W        W43706  17.586   0.398  11.547  0.0096  0.2165 -0.1472
27523W        W43707  12.497   9.600  12.299  0.1611  0.0985  0.1801
27524W        W43708   6.480  11.740  16.570 -0.0658 -0.0422  0.0580
27525W        W43709  14.371  11.156  16.378  0.0845 -0.3872 -0.5737
27526W        W43710   1.600   7.910  16.636 -0.2820  0.2966 -0.0218
27527W        W43711   1.181   1.190   2.105  0.0123 -0.1226  0.4023
27528W        W43712  10.649   8.076  13.245  0.2068 -0.0897  0.1103
27529W        W43713  13.302   5.375   5.777 -0.2812  0.1378  0.0109
27530W        W43714  11.357  12.157  15.370 -0.1631  0.1438 -0.0417
27531W        W43715  13.993  10.780   4.471 -0.1191  0.0749  0.1553
27532W        W43716   6.591   8.409   5.784 -0.1612 -0.1207  0.0591
27533W        W43717   8.582  10.005  14.570 -0.3367  0.0358  0.0820
27534W        W43718  16.510   0.235   3.825 -0.0143 -0.1414  0.0482
27535W        W43719   2.750   7.981  13.550 -0.1100  0.2407 -0.1979
27536W        W43720  10.569   4.251  11.256 -0.0595 -0.1715 -0.2064
27537W        W43721   0.435   2.743  14.353 -0.1757  0.2915 -0.1123
27538W        W43722  12.989  17.304  15.617 -0.1346  0.5408  0.0540
27539W        W43723  14.795  13.992  16.511 -0.0384  0.3695  0.0050
27540W        W43724  14.203  17.665   0.469 -0.1103  0.2117  0.1409
27541W        W43725  16.292   8.158  15.029  0.1583 -0.1188 -0.1310
27542W        W43726  14.354   5.676   5.812  0.0593  0.1180 -0.1492
27543W        W43727  16.998  14.367  16.688 -0.3321  0.2863 -0.1522
27544W        W43728  11.089   4.038  13.403 -0.1913  0.0497 -0.1599
27545W        W43729   1.422  14.345   1.784  0.1799 -0.0663  0.1769
27546W        W43730   5.054   3.890  13.436 -0.0742 -0.0782  0.0355
27547W        W43731  16.656   0.451  16.039  0.2615 -0.2943 -0.0253
27548W        W43732   0.866  15.307   4.745  0.2519 -0.0363  0.0503
27549W        W43733  13.610  17.827  11.835  0.0454 -0.1769 -0.0404
27550W        W43734   4.593   7.157   4.572  0.1907 -0.0292  0.0193
27551W        W43735  12.090  16.312   4.103 -0.0938  0.0454 -0.3254
27552W        W43736   4.736  14.465   5.284 -0.2215 -0.2518 -0.0966
27553W        W43737   5.670  12.958   4.863  0.0733 -0.2746  0.2096
27554W        W43738   2.729   8.616   2.202  0.1245 -0.2582  0.1952
27555W        W43739  12.045  11.019   4.089  0.0731 -0.1432 -0.1952
27556W        W43740   4.143   0.575   4.443 -0.1232  0.2695  0.1171
27557W        W43741  17.134  13.038  13.472 -0.0102  0.0844  0.1379
27558W        W43742   8.730  14.403  11.384  0.1018  0.1174  0.2777
27559W        W43743  15.951   7.275   3.925  0.1021  0.1589 -0.2575
27560W        W43744   7.708   3.386   4.533 -0.1431 -0.0176 -0.0620
27561W        W43745  16.491   9.158   4.986  0.0594  0.2190 -0.1335
27562W        W43746  16.958  12.353   3.535  0.0860 -0.2351  0.0348
27563W        W43747   6.800  11.488   4.068 -0.0411  0.0469  0.1342
27564W        W43748  10.420  14.778   1.585 -0.2385 -0.2559  0.2622
27565W        W43749  15.894   1.633   5.336  0.1656  0.1358 -0.0611
27566W        W43750  12.045   5.630   3.179  0.0833 -0.2966  0.2150
27567W        W43751  15.258  10.420   4.562  0.2480 -0.1381  0.0695
27568W        W43752  14.748   8.703  16.735 -0.0134  0.1357  0.0119
27569W        W43753   8.152   5.709   1.838  0.1113  0.1625  0.0750
27570W        W43754   9.941   7.689   3.078  0.1653  0.2738 -0.0974
27571W        W43755  16.958   0.310  16.428 -0.1099  0.0855  0.1518
27572W        W43756   5.590  14.445   2.097 -0.3286 -0.0595 -0.1445
27573W        W43757  13.128   3.753   2.299 -0.0318 -0.1056 -0.1211
27574W        W43758   3.089  16.913  13.426  0.0951  0.1011 -0.1228
27575W        W43759   2.606   7.731  11.904  0.0516 -0.0628 -0.1346
27576W        W43760   6.781  11.696  15.822 -0.0267 -0.1375 -0.2062
27577W        W43761   9.629   8.927  15.526  0.1887 -0.1668  0.2356
27578W        W43762   5.454   4.575  13.067  0.1502  0.0416  0.1314
27579W        W43763   6.565   5.089   0.286 -0.2516 -0.1227  0.1317
27580W        W43764   0.777  17.547  11.787 -0.1691 -0.0013 -0.4266
27581W        W43765  13.517  15.318   1.933 -0.1454 -0.1263  0.0459
27582W        W43766   8.257  11.834  11.400 -0.1723 -0.0255 -0.1931
27583W        W43767   3.719  11.177   4.859  0.1344 -0.3562 -0.1135
27584W        W43768  16.891   5.791   1.656 -0.1728 -0.3039 -0.1753
27585W        W43769  15.301  13.469  13.334 -0.0790 -0.1586 -0.0662
27586W        W43770   1.595   3.131   5.083  0.0568  0.1161 -0.0045
27587W        W43771  15.705  11.728  14.370 -0.0692 -0.1772 -0.0266
27588W        W43772   3.402  11.360  12.375 -0.1089  0.2073  0.1136
27589W        W43773  13.157   6.743   2.221 -0.1046 -0.1682  0.0395
27590W        W43774   9.217  12.434  13.425 -0.2578 -0.0733 -0.0304
27591W        W43775  17.662  15.617   3.433  0.3669 -0.1631  0.1020
27592W        W43776  10.243   0.878  14.833  0.0933 -0.0505 -0.0265
27593W        W43777  11.653  17.427   4.380 -0.1277  0.1022 -0.0883
27594W        W43778   5.188  13.641  14.633 -0.1063 -0.0472 -0.1299
27595W        W43779  11.546   2.124   0.563 -0.0983  0.0161 -0.1273
27596W        W43780   1.353  10.141  12.411 -0.0397  0.0466 -0.2645
27597W        W43781   0.572  15.771   2.802  0.1779 -0.0651  0.5455
27598W        W43782   6.233   2.430   2.569  0.0058  0.0955  0.0963
27599W        W43783   5.816   4.422  13.360  0.1226  0.2126 -0.2494
27600W        W43784   0.249   6.372  13.800 -0.1287  0.1285 -0.0588
27601W        W43785  10.753  17.430   2.499  0.0191 -0.1578  0.0145
27602W        W43786  12.586  14.399  11.825  0.1749 -0.3441  0.3197
27603W        W43787  16.832   2.986   2.560  0.1781  0.3830 -0.0464
27604W        W43788   7.203  16.727   3.092 -0.2290  0.2131  0.0658
27605W        W43789  10.642  10.550  16.058 -0.0626 -0.2341  0.1474
27606W        W43790   9.361   3.552   0.137 -0.0063 -0.2001  0.2227
27607W        W43791  11.885   9.626   5.781  0.1689  0.0711  0.0340
27608W        W43792   6.174   6.625   1.704  0.0261  0.1176  0.0286
27609W        W43793  10.366  17.338   3.830 -0.0529  0.0660  0.0730
27610W        W43794   3.818   7.442   5.404 -0.0377  0.1386 -0.1076
27611W        W43795   9.208  13.158   4.406  0.1872  0.0989  0.0624
27612W        W43796  13.603   4.402  12.165  0.1475  0.1520  0.1062
27613W        W43797  14.051  17.068   4.431  0.1778  0.2510 -0.0355
27614W        W43798  12.212  12.792   6.551  0.0070 -0.0168 -0.0775
27615W        W43799   7.165   7.225  13.806  0.0328  0.0411  0.0732
27616W        W43800  10.624   3.133   2.557 -0.1909  0.0135 -0.1012
27617W        W43801   7.841  15.243  15.288  0.0144 -0.3000  0.0484
27618W        W43802   4.515  17.089   5.003  0.0744 -0.1192  0.1061
27619W        W43803  12.242   5.526  16.773 -0.1075  0.1998  0.1456
27620W        W43804  16.555  15.987   0.257 -0.1810  0.1031 -0.0226
27621W        W43805   0.512   1.057  16.335 -0.1723 -0.2396 -0.1834
27622W        W43806   0.672   0.606  11.513 -0.0825  0.3902 -0.0635
27623W        W43807   5.467  14.136  15.860 -0.1299 -0.0020  0.1152
27624W        W43808   5.941   2.938  12.069 -0.0518 -0.2978  0.0558
27625W        W43809  14.249   0.374  12.183 -0.0411 -0.0205 -0.0767
27626W        W43810   9.534  17.437  16.858 -0.0242 -0.1533 -0.4054
27627W        W43811   5.669   2.515  14.188  0.0665  0.1085  0.0252
27628W        W43812   9.535  16.576   0.956  0.1764 -0.1659 -0.0825
27629W        W43813   9.938  10.445   2.615 -0.1276  0.0715 -0.1203
27630W        W43814  14.321   0.974   3.719  0.1877  0.2289 -0.2249
27631W        W43815   8.996  14.710  11.870 -0.2343  0.3237 -0.2352
27632W        W43816   6.225   2.010   1.931 -0.2646 -0.0835 -0.0614
27633W        W43817  14.717   6.553  13.911 -0.0902 -0.1378  0.1126
27634W        W43818   0.224   5.528   1.227 -0.0843  0.1813 -0.0365
27635W        W43819  14.809  10.070   2.560 -0.1246  0.1495 -0.1252
27636W        W43820   4.063   1.613  16.791 -0.0705  0.1378 -0.0980
27637W        W43821   1.935  15.334   4.684 -0.1812 -0.2362 -0.2243
27638W        W43822  14.090  12.472   3.638 -0.0950  0.0491 -0.0579
27639W        W43823   6.676  12.182  16.842 -0.0605 -0.0687 -0.1477
27640W        W43824   4.736  10.525  16.824 -0.1236 -0.0871  0.0919
27641W        W43825  14.245  16.850   2.375  0.1142  0.1617 -0.1410
27642W        W43826   7.225   7.716   1.154  0.1094  0.5824  0.1940
27643W        W43827   1.751  11.384   0.898  0.0184  0.3017  0.1433
27644W        W43828   0.720   4.388   6.105 -0.0482 -0.1603 -0.2502
27645W        W43829  11.467   6.726  11.835  0.1216 -0.2768  0.1748
27646W        W43830   7.308  10.708   0.604 -0.1823 -0.0237  0.1003
27647W        W43831   3.385   5.758   4.899 -0.0782 -0.0139  0.0426
27648W        W43832   6.127   9.227  11.295 -0.0128  0.4671 -0.0044
27649W        W43833   5.730   8.213   2.237  0.3807 -0.1556 -0.0198
27650W        W43834  15.059   7.736  11.828 -0.0064  0.1028  0.0044
27651W        W43835   4.802   2.831   3.130  0.1590  0.2014  0.2625
27652W        W43836   1.097  10.798  15.492 -0.2144 -0.4997 -0.1611
27653W        W43837   8.571  11.195   2.779  0.0234 -0.0286 -0.0981
27654W        W43838  17.573   6.394   5.545 -0.1646 -0.1680  0.0434
27655W        W43839  15.625  13.181  15.669 -0.0419 -0.0414  0.0047
27656W        W43840  16.340   0.708  14.189 -0.0292 -0.0467  0.2321
27657W        W43841  14.240  12.903  14.375  0.1092 -0.2424 -0.0293
27658W        W43842   3.254  11.352  13.944 -0.1751 -0.2564 -0.1559
27659W        W43843  10.400   0.686  15.774  0.2276  0.2521  0.1681
27660W        W43844   0.244   3.361   4.768 -0.2133 -0.1317 -0.0819
27661W        W43845   2.362  10.334   3.277  0.0154 -0.0016 -0.0016
27662W        W43846  14.906   7.232  14.767  0.2292 -0.3400 -0.0717
27663W        W43847  15.506   9.006   1.993  0.2300 -0.0999 -0.1268
27664W        W43848   5.579  10.891  15.527 -0.0145  0.0915 -0.1852
27665W        W43849  12.632   7.843  15.574 -0.1986  0.1673  0.0363
27666W        W43850  14.207   9.774  12.660 -0.1014  0.3147 -0.2636
27667W        W43851  13.211  14.983   0.643 -0.1273 -0.1267  0.0624
27668W        W43852  14.676   1.859  12.271  0.2038 -0.0938 -0.0805
27669W        W43853   0.773   2.383  12.345 -0.1280 -0.0124 -0.1804
27670W        W43854  14.815  15.518  13.469 -0.1368 -0.3436  0.0302
27671W        W43855  14.083   2.300  12.898 -0.2602 -0.0790 -0.1607
27672W        W43856  13.918   2.406  14.262  0.4539 -0.0600 -0.0440
27673W        W43857   2.021   5.796   4.532 -0.0877 -0.2396 -0.2200
27674W        W43858  11.870   1.112   0.228  0.1774  0.2174 -0.1390
27675W        W43859  16.840  10.696  12.983  0.1049 -0.2997 -0.0364
27676W        W43860  16.753   2.284  15.688  0.0312 -0.3954 -0.1979
27677W        W43861  10.379  16.119   0.046  0.1974  0.0136 -0.1848
27678W        W43862   2.628   7.885   2.559 -0.0408  0.2621 -0.1490
27679W        W43863  10.343   1.965   3.811 -0.2314 -0.0963  0.2664
27680W        W43864   1.997   4.076  14.513  0.1374 -0.0605  0.0728
27681W        W43865  14.615  15.118   5.022 -0.1039  0.0348  0.1180
27682W        W43866   8.040  16.533   2.309  0.0748  0.1336  0.0647
27683W        W43867  12.751   4.925   3.249 -0.1043  0.0045  0.1718
27684W        W43868  17.040   4.712   0.380  0.0068  0.1074  0.1757
27685W        W43869  11.413  14.372   0.616  0.1178 -0.0183 -0.0315
27686W        W43870   0.475   9.301   1.563  0.1477 -0.0648 -0.3930
27687W        W43871   2.088   2.686  11.985  0.3127  0.0853  0.0757
27688W        W43872   7.692   0.291  11.766  0.0983  0.1752 -0.0269
27689W        W43873  11.551   3.703  11.792 -0.0795  0.2451 -0.0171
27690W        W43874  14.920  15.996   0.386  0.1764  0.1390 -0.0542
27691W        W43875  16.109   8.599   3.936 -0.0987 -0.3176 -0.1944
27692W        W43876   0.130   6.826   5.193  0.0602 -0.3079 -0.1832
27693W        W43877   6.240  17.281   3.573  0.1905  0.2669  0.1823
27694W        W43878   7.952  13.249   5.034  0.3249 -0.2014 -0.0471
27695W        W43879   1.728  11.217   4.196 -0.0396 -0.1113 -0.0107
27696W        W43880   4.330   8.341  14.518 -0.0270  0.3903  0.0541
27697W        W43881   6.701  15.642  12.089 -0.1189 -0.2510 -0.0919
27698W        W43882  14.107  10.450  12.817 -0.2141 -0.0778 -0.1507
27699W        W43883  13.204  15.827  15.502 -0.0333 -0.2442 -0.0290
27700W        W43884   8.322  16.209   5.707  0.0211  0.0097  0.0144
27701W        W43885   9.964   2.135   2.436  0.0012  0.0675  0.0370
27702W        W43886  12.716   7.389  15.851  0.0561  0.0175 -0.1460
27703W        W43887   3.652   7.755   5.765  0.0605  0.0415 -0.3216
27704W        W43888   4.865   0.279   3.998  0.0582 -0.1137  0.0253
27705W        W43889   5.517  17.683   3.664  0.0879  0.2231  0.1399
27706W        W43890   9.805  15.202  14.984  0.0134  0.0915 -0.0646
27707W        W43891   1.456   2.804  14.770 -0.1824  0.0587 -0.3160
27708W        W43892   8.465  10.121   5.319 -0.1373 -0.0901 -0.0375
27709W        W43893   9.489   2.297  15.715 -0.3592 -0.1632 -0.0184
27710W        W43894   9.478   5.882   2.576 -0.0438  0.0040 -0.1854
27711W        W43895   6.584  17.864  16.337 -0.1309  0.0052 -0.2968
27712W        W43896   0.857  13.928  12.200 -0.0328 -0.1199 -0.1956
27713W        W43897   9.043  10.538   2.145 -0.0639  0.1377  0.0453
27714W        W43898  17.811   0.962  16.341 -0.1621 -0.2807 -0.0882
27715W        W43899  13.729  11.791  16.479  0.0207 -0.0765  0.4578
27716W        W43900   4.602  13.032  15.773  0.1342 -0.2362  0.0847
27717W        W43901  11.308  14.875   0.503  0.0712  0.1430 -0.0819
27718W        W43902   8.858  15.272  15.600 -0.0934  0.2045  0.0771
27719W        W43903  16.138  13.098  13.566  0.0383 -0.1050 -0.2856
27720W        W43904   4.070  17.108   2.637  0.3359 -0.0859  0.1062
27721W        W43905   1.507   0.889  11.800  0.2127 -0.0519  0.1743
27722W        W43906   0.627   8.939  12.137 -0.3054 -0.1795  0.2321
27723W        W43907   3.949   9.140   0.037  0.0337 -0.0895 -0.2390
27724W        W43908  16.970  13.826  11.762  0.2183 -0.1133  0.2759
27725W        W43909   7.944   3.804  14.205  0.0565 -0.0027 -0.1271
27726W        W43910   1.209  13.408  14.267  0.1519 -0.0431 -0.1521
27727W        W43911   3.406  16.884  14.722 -0.2499  0.0294  0.0899
27728W        W43912  11.612   0.145   4.503 -0.0628 -0.0468 -0.1488
27729W        W43913   7.728  13.998   4.278 -0.0660  0.0074  0.2480
27730W        W43914  15.558  10.224   3.540  0.0037  0.1669 -0.2040
27731W        W43915  14.213   2.133   5.595 -0.0072 -0.2223  0.1830
27732W        W43916  12.882  14.799  14.872  0.1915 -0.2235 -0.0342
27733W        W43917  13.443   9.339  16.179  0.1350  0.0166 -0.2440
27734W        W43918  16.091  12.179   0.411  0.3140  0.2808  0.0508
27735W        W43919   2.871   7.632  14.798 -0.0400 -0.2645 -0.1787
27736W        W43920  16.361   5.831  13.893  0.2128 -0.1765 -0.2685
27737W        W43921   4.291   9.389  15.679  0.0105  0.1215 -0.2186
27738W        W43922  17.392   0.738   1.252 -0.2656 -0.0461 -0.4202
27739W        W43923   2.384   8.911   0.446  0.1037  0.1857 -0.0454
27740W        W43924  13.326   2.939  14.392 -0.1238 -0.3362 -0.2065
27741W        W43925  15.681  15.269  15.539 -0.0375 -0.3903 -0.2165
27742W        W43926  11.100  10.202   2.393 -0.0331 -0.1181 -0.0000
27743W        W43927  13.665  16.138   4.613  0.0813 -0.2217 -0.0981
27744W        W43928   8.502  17.419   5.650 -0.1513  0.0511 -0.1767
27745W        W43929  17.471  16.515  11.526  0.0285 -0.0648 -0.0044
27746W        W43930   6.122   4.220  13.764  0.4054 -0.0375  0.1818
27747W        W43931   9.276   7.660  13.146  0.0010  0.0794  0.1556
27748W        W43932   6.233  11.401  14.034 -0.2841  0.1753 -0.1898
27749W        W43933  16.100  13.727   4.478 -0.0826  0.0782 -0.1546
27750W        W43934  15.817  14.821  15.832  0.0962 -0.1300 -0.1708
27751W        W43935   9.372   6.220   3.966 -0.1296  0.1715 -0.1935
27752W        W43936   3.931  11.929  15.670 -0.2069 -0.0936  0.4668
27753W        W43937  16.025  15.145   0.316  0.1356  0.0282 -0.3476
27754W        W43938  17.223   6.327  14.497  0.2006 -0.1771  0.2264
27755W        W43939   8.847  14.258  13.313 -0.0044  0.3404  0.2620
27756W        W43940   6.604   8.021  13.913 -0.1195  0.1695  0.1862
27757W        W43941   6.342   2.691  15.342  0.1974 -0.0183 -0.3781
27758W        W43942   0.120  11.896   2.627 -0.0679 -0.0379  0.5068
27759W        W43943  10.698   9.611   0.102 -0.1783 -0.1458  0.0355
27760W        W43944  13.072   2.561  15.441  0.1464  0.1545 -0.1235
27761W        W43945   8.711  16.589  16.032 -0.2540  0.0664 -0.0109
27762W        W43946   4.873   5.473   6.368 -0.0994 -0.0882 -0.4003
27763W        W43947   1.585  17.847   4.692 -0.0074 -0.0505 -0.0301
27764W        W43948  17.504   0.891   2.380  0.0477  0.2624 -0.0529
27765W        W43949  17.014  15.026   3.839 -0.0974 -0.2383 -0.3270
27766W        W43950  12.389   0.182   5.279  0.1641  0.1145  0.3120
27767W        W43951   3.579   9.253  12.113 -0.1703  0.1455 -0.0782
27768W        W43952  10.139  14.269  15.396 -0.0046 -0.2605  0.0743
27769W        W43953  16.538   9.667   2.256  0.1241 -0.1572  0.0411
27770W        W43954  13.521  12.834  16.699 -0.0248  0.1154 -0.3078
27771W        W43955  10.257   6.464  16.094 -0.1590  0.2013 -0.2026
27772W        W43956   1.701   7.392  12.229  0.1224  0.1230 -0.1467
27773W        W43957  11.127   2.885   2.582  0.1980 -0.0962 -0.0055
27774W        W43958   7.013   4.023  14.444 -0.1966  0.0917  0.0303
27775W        W43959   1.421  10.384  15.783  0.0036  0.1660 -0.2612
27776W        W43960   8.870   6.728  13.265 -0.1328 -0.0318 -0.0416
27777W        W43961   8.901   2.846  16.924  0.0177 -0.1894  0.0267
27778W        W43962  12.201   8.078   2.872 -0.0360  0.1096  0.3560
27779W        W43963  17.409  15.472   2.382  0.0476  0.1271 -0.2625
27780W        W43964  14.885  13.181  15.402  0.1045  0.1742 -0.2908
27781W        W43965  17.625  12.480  12.654  0.0488  0.0921 -0.2566
27782W        W43966   4.077  14.546   5.329 -0.2200 -0.2367  0.0668
27783W        W43967  15.574   9.425  16.417  0.1758  0.0482  0.1192
27784W        W43968  13.753   4.056  12.578  0.2666 -0.1205 -0.1109
27785W        W43969  10.143  10.485   5.285 -0.0325  0.0952 -0.3191
27786W        W43970  12.403  16.345   4.982 -0.2081 -0.0914 -0.0816
27787W        W43971  16.207   9.364   3.607  0.1297 -0.1822  0.0042
27788W        W43972   8.381   0.791   0.855 -0.1568  0.1773  0.0868
27789W        W43973   3.750   8.308   4.748  0.0398 -0.0569  0.0618
27790W        W43974  15.499   4.060  12.915  0.3837 -0.1220  0.2249
27791W        W43975   9.930  12.021   5.573 -0.0821  0.2163  0.1646
27792W        W43976   2.993   7.343   1.240  0.1491  0.0706  0.2291
27793W        W43977  14.002   1.844  11.728 -0.0290  0.1731  0.4371
27794W        W43978  13.663  13.212  16.904  0.0017 -0.0735 -0.0560
27795W        W43979  14.857   8.351   2.517  0.3703  0.0964  0.0628
27796W        W43980   1.888   5.665   5.054 -0.1828 -0.4220 -0.0746
27797W        W43981   5.431  10.150   3.108  0.1850  0.1284 -0.1149
27798W        W43982   1.927   8.791  14.778 -0.1417 -0.3071 -0.0591
27799W        W43983   6.431  14.937  13.965 -0.0023  0.2214 -0.3585
27800W        W43984  15.300  12.103   3.058 -0.1999 -0.0165  0.1884
27801W        W43985   6.447   9.818   3.332 -0.0042  0.2582  0.4744
27802W        W43986  10.810  17.033   3.945  0.1288 -0.0661  0.0042
27803W        W43987   2.455  10.082   1.249 -0.3661 -0.2331 -0.4427
27804W        W43988   1.256  10.996   4.209  0.1510  0.1782  0.0889
27805W        W43989   3.796   9.208   3.574 -0.1561  0.0941 -0.0433
27806W        W43990   7.762  17.878   3.320  0.0549 -0.4600  0.1632
27807W        W43991  10.552   4.349  12.309 -0.0275 -0.1396  0.0306
27808W        W43992  12.202   4.034  13.575  0.0519  0.3664 -0.1891
27809W        W43993   6.214  15.726   0.463 -0.1754 -0.0641  0.3261
27810W        W43994  11.681   8.566  12.604  0.2642  0.1051  0.1967
27811W        W43995  14.671   6.032   4.474  0.1378 -0.0857 -0.1770
27812W        W43996   6.306  17.725  12.507  0.0307  0.0416 -0.4485
27813W        W43997   7.625   1.397   4.197 -0.3309 -0.0443 -0.2712
27814W        W43998   8.915  17.363   1.426  0.3088 -0.0967  0.0490
27815W        W43999   3.043  12.062   3.055  0.0165 -0.1776 -0.0096
27816W        W44000  10.570  11.496  14.723  0.2611  0.0650 -0.2099
27817W        W44001  14.482  14.863   1.662  0.0260  0.2388  0.3307
27818W        W44002   0.648  17.242   4.574  0.0116  0.0342  0.0179
27819W        W44003  14.119   2.295   2.696  0.0653  0.1318  0.1107
27820W        W44004  16.205  15.512  11.950 -0.0232 -0.0542  0.2187
27821W        W44005   2.397  15.241   1.809 -0.0275 -0.0394 -0.0757
27822W        W44006   3.367  15.497  13.113 -0.0585  0.0793 -0.3415
27823W        W44007  11.868  11.538   4.161 -0.1243 -0.0659 -0.1072
27824W        W44008   4.140   3.467  13.964 -0.1930  0.1327 -0.0741
27825W        W44009  13.709  14.249  11.912  0.0646  0.3535 -0.1976
27826W        W44010   2.523   3.448   3.235  0.3241 -0.1732  0.2020
27827W        W44011  14.751   3.550  16.846  0.1456 -0.2525  0.1789
27828W        W44012   4.054   9.018   4.477  0.2382  0.0309  0.3034
27829W        W44013   8.231   6.640   6.043  0.1797  0.0726 -0.4360
27830W        W44014   9.538  12.419  12.935  0.1881  0.1076 -0.0752
27831W        W44015   9.675   0.507   4.717 -0.2432  0.4028  0.3193
27832W        W44016   6.496  10.654  13.379 -0.0436  0.1366  0.0388
27833W        W44017   0.636  16.951   3.543  0.4345  0.1730  0.0341
27834W        W44018   3.555   4.608  15.431  0.0451 -0.0211  0.2222
27835W        W44019  11.709  17.557   2.725 -0.0471 -0.0559 -0.1921
27836W        W44020  11.277  17.212   4.085 -0.2718 -0.0765 -0.1483
27837W        W44021  15.214   9.909  16.680 -0.2976 -0.4124 -0.0016
27838W        W44022   0.612   0.252  14.791 -0.1101 -0.0351  0.2438
27839W        W44023  12.062   0.651   1.579 -0.3828  0.0273 -0.0797
27840W        W44024  16.276  16.487  13.081 -0.0948 -0.1279 -0.2638
27841W        W44025  14.925   2.316  16.550 -0.3263 -0.2796 -0.3487
27842W        W44026   5.527   7.506   0.900 -0.0903 -0.1819  0.1761
27843W        W44027  14.588   9.115  15.100 -0.0108  0.0659  0.0756
27844W        W44028   8.581  14.874  11.248  0.2838  0.0619  0.0406
27845W        W44029   0.605  13.389  12.059 -0.1646 -0.0349  0.0258
27846W        W44030  17.817   7.171   0.932 -0.0411 -0.2955  0.2158
27847W        W44031   7.592   0.342   4.244 -0.2396  0.2505  0.0488
27848W        W44032   4.275   9.713   3.641 -0.0488  0.1014 -0.3262
27849W        W44033   4.303   2.892  15.902  0.0890  0.2220 -0.1910
27850W        W44034   2.100  12.234  15.072 -0.2425 -0.0685 -0.0935
27851W        W44035  14.591   7.031  15.699  0.1335  0.2527  0.4408
27852W        W44036   1.718   0.650   0.064 -0.0539  0.1633  0.1850
27853W        W44037  14.902   2.472  13.895 -0.2623 -0.1953  0.2648
27854W        W44038  11.107  11.313  12.125  0.2791 -0.0545  0.2616
27855W        W44039   2.728   0.902  15.070 -0.3022 -0.1788  0.0168
27856W        W44040  17.464   8.464  12.653  0.2254  0.0689  0.1485
27857W        W44041   0.417  13.756  12.400 -0.1828 -0.1316  0.1492
27858W        W44042  17.770  12.305   2.402 -0.0775  0.1730  0.1774
27859W        W44043  15.220   2.368   1.471 -0.1369  0.1559 -0.0159
27860W        W44044  12.852   0.411  16.134  0.0720 -0.1204 -0.3070
27861W        W44045  10.922   6.092   6.258 -0.0904 -0.0197 -0.1683
27862W        W44046   0.114  10.627   3.611  0.0771  0.3485  0.1713
27863W        W44047  11.995  16.711  11.835 -0.2437  0.1570  0.1393
27864W        W44048   2.641   6.285  13.021 -0.0341  0.4088  0.0897
27865W        W44049   1.044  13.382   5.101 -0.0836 -0.1249  0.2228
27866W        W44050  12.591  10.032  12.828  0.1049  0.1810 -0.1675
27867W        W44051  12.051   8.205   4.953  0.1501  0.0273  0.2237
27868W        W44052   5.025   3.298  16.708 -0.4066  0.2349 -0.0618
27869W        W44053  11.169   2.245   4.244 -0.1114  0.0396 -0.0018
27870W        W44054   3.303   2.978  15.990 -0.1533 -0.0807 -0.2537
27871W        W44055   6.509  14.417   3.737 -0.2057  0.2891  0.0680
27872W        W44056  13.259   2.488   1.051  0.1259  0.0736  0.2872
27873W        W44057  13.946  10.788   0.615  0.0017  0.0884 -0.3586
27874W        W44058   9.710   9.571  13.683 -0.0256 -0.0037  0.1244
27875W        W44059  11.325  15.535   2.728  0.0737 -0.0247  0.0019
27876W        W44060   2.160  16.845   3.851  0.4602 -0.0879 -0.1612
27877W        W44061   5.559   7.534   3.725 -0.0889  0.0190 -0.0180
27878W        W44062   1.674   2.775  16.659  0.0252  0.0078  0.2946
27879W        W44063   2.538  10.262   4.319 -0.1078 -0.1316  0.0617
27880W        W44064   3.255  17.575  14.525  0.0830  0.1562 -0.1321
27881W        W44065  14.216   7.527   2.739  0.2817  0.5053 -0.0758
27882W        W44066   4.065   6.190  14.674 -0.0832  0.1859  0.2268
27883W        W44067   6.155   5.852   2.533  0.3080 -0.1582 -0.0042
27884W        W44068   4.110  11.436   3.458 -0.3735 -0.0147 -0.0554
27885W        W44069   7.032  12.574   3.775  0.3998 -0.2088  0.1916
27886W        W44070   5.913  11.335   2.418  0.0727  0.0522  0.1847
27887W        W44071   4.859   3.416   0.760 -0.0428 -0.0359 -0.3468
27888W        W44072   9.342   2.080   1.532 -0.1039 -0.0787  0.0546
27889W        W44073   9.233   7.624  15.463 -0.1432 -0.0404 -0.1987
27890W        W44074   5.990   9.474  16.701 -0.0787  0.0522 -0.0761
27891W        W44075  17.883   7.629   6.254  0.2001  0.2158  0.0101
27892W        W44076  10.888  17.284  14.068 -0.3059  0.2030 -0.0365
27893W        W44077   2.862  16.355  16.736 -0.2974 -0.1935  0.3646
27894W        W44078   9.696   3.751   0.427 -0.1562  0.0148 -0.0175
27895W        W44079   8.655   6.773   3.264 -0.1944 -0.4831  0.1719
27896W        W44080  16.989   0.366   4.875 -0.0036 -0.0223  0.1753
27897W        W44081   5.050  11.277   2.671 -0.1013 -0.1474 -0.0743
27898W        W44082   7.817   1.905  12.502 -0.0728  0.2343 -0.0495
27899W        W44083   8.979   0.918  14.221  0.0759  0.4050  0.1047
27900W        W44084  12.083   6.646   6.389 -0.0796 -0.1858  0.1328
27901W        W44085   4.855   2.734  14.165 -0.1980 -0.1175 -0.2821
27902W        W44086  16.084   8.962  12.834 -0.0091 -0.2126 -0.0231
27903W        W44087  12.785   4.670   5.666 -0.0504  0.1899 -0.0994
27904W        W44088  11.062   4.854   1.775  0.1039 -0.2838 -0.1109
27905W        W44089  15.647  15.507   1.890 -0.2111  0.0911  0.1135
27906W        W44090  13.704   2.329   0.185  0.3145 -0.3052 -0.0842
27907W        W44091   9.025  14.279   3.041  0.3373  0.0479 -0.1178
27908W        W44092  15.240   8.637   2.318  0.1281  0.0003  0.3017
27909W        W44093  11.281   3.284   3.497 -0.2287 -0.1315  0.0695
27910W        W44094   0.401   6.405   0.893 -0.2482  0.0593  0.0560
27911W        W44095   9.936   4.462   1.926  0.0348  0.1909 -0.1637
27912W        W44096  17.364  12.161   5.754 -0.0208  0.2346  0.2421
27913W        W44097  14.140  14.366  12.199  0.0411 -0.1009 -0.0464
27914W        W44098  13.973  12.123   0.304 -0.2047 -0.0852  0.1600
27915W        W44099  16.839  17.349  12.272  0.1121 -0.2607 -0.1296
27916W        W44100   6.589   9.288   3.472 -0.1391 -0.0131  0.0090
27917W        W44101  10.282  10.529  16.936  0.1259  0.3470 -0.4179
27918W        W44102   8.748  12.194   0.470  0.2822 -0.1119 -0.0757
27919W        W44103  14.461   2.754  13.657 -0.1401 -0.1360 -0.1445
27920W        W44104   7.140   5.169   0.051  0.0791 -0.0870 -0.2616
27921W        W44105  13.651   8.620  13.615 -0.1308  0.0196 -0.2591
27922W        W44106   4.782  14.368   2.642 -0.0957 -0.0020  0.0407
27923W        W44107  16.198   7.427  15.973  0.0046  0.2553  0.4084
27924W        W44108  17.884   5.569  11.987  0.2761  0.0532 -0.3020
27925W        W44109  17.123  11.015  12.660  0.1568  0.1336 -0.0399
27926W        W44110   2.810   3.020  13.251 -0.0095 -0.2086  0.0404
27927W        W44111  13.378  14.853  12.810  0.0460  0.0424  0.1170
27928W        W44112  11.828   4.594  13.336  0.2449  0.1164 -0.0719
27929W        W44113   7.362  15.927   0.462  0.0431  0.2265  0.1746
27930W        W44114   3.194  17.684  12.115 -0.0329  0.0704 -0.1145
27931W        W44115   0.537   9.038  16.561 -0.1220 -0.1421  0.1631
27932W        W44116  15.370  13.586   1.873  0.1803  0.1034  0.1163
27933W        W44117  12.485  15.112  12.167 -0.1229 -0.0598  0.2662
27934W        W44118  10.038  11.653   6.099 -0.0986 -0.1371 -0.0172
27935W        W44119   7.529   9.376   3.770  0.1858  0.1289  0.1568
27936W        W44120   2.622  13.382  15.649 -0.2354 -0.0418 -0.0975
27937W        W44121  14.915   6.665   0.253 -0.1799  0.0275 -0.2744
27938W        W44122  17.048   3.192  16.213 -0.1475 -0.4261 -0.2512
27939W        W44123  10.537  12.010   3.800  0.0800  0.2605 -0.1461
27940W        W44124   0.317   9.174  13.138 -0.0652 -0.0953  0.0540
27941W        W44125  12.695   3.524   3.934 -0.2655  0.0192 -0.0280
27942W        W44126  14.879  10.953   0.614 -0.0759  0.1035 -0.0798
27943W        W44127   8.822  12.894   1.065 -0.2973  0.2831 -0.1415
27944W        W44128   8.247  16.679   4.601  0.1623  0.0008  0.1168
27945W        W44129   3.944   1.293  11.733 -0.2266 -0.1764 -0.2935
27946W        W44130  10.055  10.074  12.483 -0.1232  0.1093  0.2856
27947W        W44131   4.736   0.922   2.466 -0.0264 -0.2228 -0.0417
27948W        W44132   1.091  13.705  15.135  0.1522 -0.0036  0.0080
27949W        W44133  16.686   2.686   2.913  0.2264  0.3754  0.0328
27950W        W44134  15.515   8.082  16.355 -0.1588 -0.2064 -0.0166
27951W        W44135  16.154  13.981  11.752 -0.3129 -0.1737 -0.0180
27952W        W44136  11.195   5.165  12.707  0.0610 -0.0397  0.0203
27953W        W44137   6.376  17.332   3.073 -0.2773  0.1839  0.0075
27954W        W44138  11.677  17.106   2.911  0.0971  0.0906  0.4741
27955W        W44139   6.615   0.323   4.954 -0.2294  0.1433  0.0541
27956W        W44140   9.297   7.403  12.566 -0.3560 -0.1143 -0.0719
27957W        W44141  17.383  15.664  14.428  0.1109 -0.2254 -0.1055
27958W        W44142   9.273  13.347   5.293 -0.2738  0.2160  0.0369
27959W        W44143   9.541  15.539   0.195  0.1093  0.2410  0.1025
27960W        W44144   2.687  14.237   5.153  0.1441 -0.0896  0.0172
27961W        W44145  15.816   9.054  12.225 -0.2447  0.0468  0.3098
27962W        W44146  17.015  14.598  13.182 -0.0535 -0.0971  0.0270
27963W        W44147  11.809   9.027  16.704 -0.0447 -0.0642 -0.2771
27964W        W44148  15.744   1.347   4.605  0.1509 -0.1919 -0.1640
27965W        W44149   9.773   0.518  14.359  0.2026 -0.2070  0.1808
27966W        W44150   8.923   7.996   2.907 -0.1887 -0.2025  0.0213
27967W        W44151  17.418   1.503  14.108  0.1111  0.3495 -0.2069
27968W        W44152  13.185  16.441  14.168 -0.2414 -0.0603  0.0546
27969W        W44153   1.755   8.087   0.391 -0.1377 -0.2341  0.1986
27970W        W44154  14.575  14.496   2.116  0.0596 -0.4033  0.0509
27971W        W44155   8.287   2.673  14.789 -0.3367 -0.0446 -0.0359
27972W        W44156   8.447   4.265   4.264 -0.0834  0.0400 -0.0446
27973W        W44157   1.744   0.279   1.512 -0.1147 -0.1139 -0.1300
27974W        W44158  17.177   8.558  14.979  0.2785  0.0841  0.0211
27975W        W44159  12.029   6.447  10.419  0.1322 -0.2527 -0.3293
27976W        W44160  11.154  10.575  13.805 -0.0266  0.1807  0.1734
27977W        W44161  13.952   2.909   4.598 -0.4471 -0.2606  0.0600
27978W        W44162   7.480   4.979  14.450 -0.0220  0.2688 -0.0394
27979W        W44163   4.759  17.847   4.369  0.0930 -0.2485  0.2087
27980W        W44164   9.146  17.120   3.799 -0.0715  0.1723 -0.3013
27981W        W44165   0.449  12.451   2.656  0.2064 -0.0678 -0.1543
27982W        W44166  13.749  17.066   4.801  0.2133  0.3129 -0.1035
27983W        W44167   2.916  17.145   0.619 -0.1480  0.1319  0.0082
27984W        W44168   9.377  14.904   4.937 -0.0642 -0.2187  0.0634
27985W        W44169  11.290   2.071   3.549  0.0430  0.1129 -0.2471
27986W        W44170  17.803  17.344   3.383 -0.3713 -0.1431  0.2133
27987W        W44171  10.181  13.475  15.171 -0.1421  0.2892  0.1833
27988W        W44172   8.913   5.675   5.657  0.1419 -0.1115  0.2159
27989W        W44173  11.479   9.023   1.588  0.1228  0.0487  0.0829
27990W        W44174   6.728  16.003   4.766  0.0871 -0.2001  0.0424
27991W        W44175   6.078   4.926  15.127 -0.2069 -0.2872  0.0138
27992W        W44176  16.013  17.222   1.441  0.0830  0.0645 -0.2433
27993W        W44177   7.650   4.774  15.700  0.1131  0.1055 -0.2478
27994W        W44178  17.451  10.726   4.394  0.1486  0.3110 -0.0122
27995W        W44179  16.739  14.291  14.846  0.1600 -0.1814  0.2378
27996W        W44180  15.890   2.902  14.208  0.3567  0.2557 -0.0034
27997W        W44181  15.335   2.383  11.859 -0.1368  0.0965  0.2624
27998W        W44182   9.645   3.774   0.947 -0.2978  0.2069 -0.0637
27999W        W44183  12.233   7.899   6.252 -0.0293  0.1570  0.1147
28000W        W44184  16.268   1.137   5.362  0.1292 -0.0350 -0.2373
28001W        W44185  10.659   9.751   1.711 -0.1547 -0.0229 -0.0714
28002W        W44186   2.920  15.113  12.165  0.3507  0.3093 -0.1109
28003W        W44187  15.700   0.833  16.544  0.1865  0.0966 -0.0255
28004W        W44188   0.015   6.706   0.810  0.0048  0.0772  0.2171
28005W        W44189   9.558   1.596  11.684 -0.0088 -0.0742  0.1601
28006W        W44190  15.512  17.362   4.286 -0.2851  0.1834  0.0117
28007W        W44191   2.061  16.462   1.350  0.1541 -0.2341 -0.0639
28008W        W44192  17.784   9.962   2.970 -0.0715 -0.0348  0.0143
28009W        W44193  10.137  11.478  15.729  0.0969  0.1128 -0.0421
28010W        W44194   1.048   3.335  12.061 -0.0577 -0.0190 -0.1483
28011W        W44195  12.134  12.301  16.676  0.3984 -0.1995 -0.0199
28012W        W44196   5.348  17.417  14.179  0.1694  0.0974 -0.0323
28013W        W44197  15.533  14.727  12.601 -0.1805  0.1556  0.0056
28014W        W44198   5.880  17.847   4.296 -0.0509 -0.0051  0.3033
28015W        W44199  11.209  17.293  16.857  0.1786 -0.2893  0.2909
28016W        W44200   7.217  14.546   0.043  0.3481 -0.0346 -0.0189
28017W        W44201  15.524  10.371   4.102 -0.0634 -0.0733  0.0912
28018W        W44202   1.642   0.149   4.230  0.0028  0.1971  0.2151
28019W        W44203   0.353  14.148  12.103  0.2840  0.0819  0.0233
28020W        W44204  17.570  16.479  13.065  0.2766 -0.2552 -0.0451
28021W        W44205  15.483   5.639   0.010  0.0332 -0.1025  0.1444
28022W        W44206  10.709   9.275   0.506  0.0774 -0.0377 -0.1186
28023W        W44207   8.073  10.970  16.716 -0.1070 -0.0885 -0.2458
28024W        W44208   0.448   4.201   0.731  0.0722  0.0022 -0.0204
28025W        W44209   0.798  15.542   3.802 -0.1610  0.1017  0.1098
28026W        W44210   0.639  11.397   1.511 -0.0577 -0.1071 -0.0390
28027W        W44211  16.279   4.794   6.377 -0.1074  0.0490  0.1138
28028W        W44212   0.387   8.166  16.443  0.0240  0.1405 -0.2784
28029W        W44213   4.651  11.686   1.467  0.2486 -0.1947 -0.0708
28030W        W44214   1.369  16.578   2.898 -0.2762 -0.0883 -0.0443
28031W        W44215  10.811  13.807  12.220  0.1724 -0.1753  0.1801
28032W        W44216  10.890  11.913  14.853  0.0415 -0.0347  0.1226
28033W        W44217  17.119   0.433  13.836 -0.1388  0.0530 -0.2246
28034W        W44218  16.061  12.517   5.630 -0.0484 -0.0308  0.0020
28035W        W44219  13.355  15.117  14.890  0.0252  0.0385 -0.2339
28036W        W44220  15.926   3.015   3.577 -0.2348 -0.1620  0.1949
28037W        W44221   5.578   5.455   4.503 -0.2886  0.0740  0.0165
28038W        W44222  17.501  14.330  16.369  0.2554  0.0595  0.0618
28039W        W44223   9.949  13.152   0.413  0.5094  0.0663  0.0240
28040W        W44224   4.411   1.494  14.527  0.0271  0.0814  0.0447
28041W        W44225  14.558  12.505   3.743 -0.1065 -0.1340  0.2419
28042W        W44226  16.092   7.261  13.719 -0.1243  0.0583 -0.1421
28043W        W44227  11.533   1.053   5.027 -0.1570  0.0965 -0.1212
28044W        W44228  16.809   5.978   0.483  0.3455  0.0304  0.0016
28045W        W44229  17.361   6.197   0.911 -0.2057 -0.0523  0.2716
28046W        W44230   2.558   7.038  15.827  0.0362 -0.0819 -0.0292
28047W        W44231  11.700  16.995  16.829  0.0683  0.2494 -0.1231
28048W        W44232   1.625  15.692   1.948  0.0367 -0.0926  0.1302
28049W        W44233   3.320   7.237  12.743 -0.6121  0.0622  0.3010
28050W        W44234   4.790   4.290  15.071  0.1281  0.0166  0.1970
28051W        W44235   5.538   6.035  12.226 -0.0891  0.0710  0.0215
28052W        W44236  12.148  17.716  15.533  0.0330  0.0365  0.2475
28053W        W44237  14.263   7.579   4.418  0.0180 -0.0229 -0.0575
28054W        W44238  11.887  10.332  14.833 -0.1640  0.1022 -0.0336
28055W        W44239   1.877  16.189   1.756  0.1050  0.0103  0.1777
28056W        W44240  17.366   6.799  11.647 -0.0686 -0.0196  0.0497
28057W        W44241  14.565   3.236  14.826  0.1089  0.1866 -0.1564
28058W        W44242   1.611   8.934  15.784 -0.3066  0.0019  0.0504
28059W        W44243  12.769  15.506  15.492  0.1948  0.0419  0.0013
28060W        W44244  16.677  10.934  14.211 -0.4647 -0.0773 -0.0589
28061W        W44245   3.525   8.941  16.611 -0.1055  0.0444 -0.3438
28062W        W44246  10.017   9.355  13.306 -0.0069 -0.1140  0.1191
28063W        W44247   0.902  10.200  12.669 -0.0538 -0.0521 -0.1411
28064W        W44248  11.517  11.474  13.210  0.1367  0.0921  0.1423
28065W        W44249  11.580   0.461  14.694  0.1113 -0.2251  0.1679
28066W        W44250   9.046  12.531   2.624 -0.0905 -0.2985  0.3192
28067W        W44251   4.033   9.956  14.154  0.0847 -0.2788  0.0894
28068W        W44252   2.906  12.601   0.645  0.1424  0.1791 -0.2662
28069W        W44253   3.969  12.982  14.702  0.0966  0.1455  0.3167
28070W        W44254   4.434  10.598   4.365 -0.3405  0.1345 -0.0949
28071W        W44255  17.789  14.146  13.083  0.1091  0.1180  0.1690
28072W        W44256   4.205   1.104  12.140 -0.1178  0.0066  0.1480
28073W        W44257  12.050  16.678  15.841 -0.1967  0.2689  0.0949
28074W        W44258   0.664  13.408   3.727  0.0030 -0.2698  0.1688
28075W        W44259   7.125  17.819  12.595  0.1798 -0.0053  0.2053
28076W        W44260  12.117  16.626   3.363  0.0764  0.1230 -0.0385
28077W        W44261   0.120   0.861  14.339  0.1971 -0.2040  0.1453
28078W        W44262   3.264   3.298  13.495  0.0157 -0.0694  0.0966
28079W        W44263  14.532   0.503   0.057 -0.4053  0.0926  0.0272
28080W        W44264  16.025   1.877  12.299 -0.2952 -0.1258  0.0584
28081W        W44265   5.567  14.090   4.300 -0.1045  0.0226 -0.2543
28082W        W44266   3.766   7.547  13.834  0.0774 -0.1628  0.0851
28083W        W44267   4.294  15.807   5.350 -0.1203  0.0215  0.3184
28084W        W44268  15.002  15.621  12.982 -0.0561  0.0312 -0.0840
28085W        W44269  17.513  12.584   0.096  0.1065 -0.1449  0.1766
28086W        W44270  14.359  13.203   4.257  0.0946 -0.1392  0.1649
28087W        W44271   4.754   0.192   1.908 -0.0565  0.0089  0.1994
28088W        W44272   4.684   4.157  15.570 -0.1282 -0.2162  0.1206
28089W        W44273   8.598   3.457   2.323  0.0218 -0.0173  0.1616
28090W        W44274   9.931  12.087   1.510  0.1451  0.0010 -0.1500
28091W        W44275  15.141   8.606   4.924 -0.1059 -0.3192  0.0210
28092W        W44276   0.500  13.343   1.862  0.0648  0.0139 -0.1732
28093W        W44277  12.494   2.363   4.841  0.2162  0.1694 -0.0575
28094W        W44278  13.506  14.151   5.462  0.0150 -0.1958  0.3672
28095W        W44279  13.354  11.829  13.399  0.1090  0.2151  0.2637
28096W        W44280  13.815   3.736   2.758  0.1252 -0.0315 -0.0742
28097W        W44281   1.651  14.284  12.315 -0.0007 -0.0864  0.0296
28098W        W44282  12.413   2.736  14.795  0.1118  0.1819  0.0745
28099W        W44283   2.941   0.589   2.077  0.5240 -0.0605 -0.0014
28100W        W44284   7.319   7.193  12.158 -0.0790  0.0016  0.0174
28101W        W44285   5.014  12.540   1.192  0.1771 -0.0827 -0.1519
28102W        W44286  14.599   7.004  12.133  0.1517 -0.3837 -0.0367
28103W        W44287   2.078  15.280  14.341  0.0997 -0.0892 -0.2117
28104W        W44288  14.267   2.984  12.188 -0.1285  0.1338  0.0798
28105W        W44289  16.626   6.260   3.277  0.0197  0.0617  0.0323
28106W        W44290   0.954   6.100  13.121  0.1899 -0.1222  0.1678
28107W        W44291  13.060   5.331  16.922  0.0924 -0.3565 -0.2014
28108W        W44292   1.467   0.778  14.366 -0.0450 -0.2205  0.0313
28109W        W44293  14.491   5.181   4.673  0.0478 -0.0453 -0.1686
28110W        W44294  17.011   6.477  15.045 -0.1016 -0.2694 -0.0398
28111W        W44295  11.108   5.499  11.717  0.2480  0.2160 -0.0294
28112W        W44296   3.400   1.351  13.136  0.0317  0.2217 -0.0849
28113W        W44297  10.291  17.649  13.557  0.1979  0.0251 -0.0427
28114W        W44298   5.540   5.407  16.120  0.1862  0.2191  0.0285
28115W        W44299   2.242   3.392   4.315 -0.2420  0.0742 -0.0695
28116W        W44300  16.311  16.738  14.659  0.0875  0.2024 -0.2949
28117W        W44301   7.278   5.081  15.262 -0.1509  0.2217 -0.2740
28118W        W44302  16.216  11.131   5.042  0.1711  0.4064 -0.0678
28119W        W44303  16.325  15.080   2.722 -0.1055  0.1988 -0.2062
28120W        W44304   2.481   1.099  12.209  0.0437 -0.1734 -0.1273
28121W        W44305  14.639  16.023  13.029  0.2347 -0.0792  0.0984
28122W        W44306   9.569  14.956  14.585 -0.3393 -0.1312 -0.0462
28123W        W44307   6.772  10.510  11.919 -0.1625 -0.4346 -0.2492
28124W        W44308   0.900   0.337   5.876 -0.0609 -0.5020 -0.1534
28125W        W44309   9.204   2.192   0.493  0.0015 -0.0372  0.1156
28126W        W44310  11.309   2.005  14.259 -0.0592 -0.2574  0.0539
28127W        W44311   3.762  12.375  15.855  0.0604  0.0071  0.3413
28128W        W44312   8.166   9.430  13.666  0.3370 -0.1800  0.2814
28129W        W44313  14.179   6.170   5.727  0.0729  0.0590  0.1372
28130W        W44314   7.986   3.974  16.734  0.0957 -0.1518 -0.2768
28131W        W44315  10.502   9.248  12.418  0.1581 -0.1918  0.0685
28132W        W44316   2.663   0.595   1.219  0.0195  0.1373  0.0616
28133W        W44317   9.420   9.313  16.807 -0.3209  0.2316 -0.0272
28134W        W44318  12.790  12.965  12.663 -0.1445 -0.2882  0.0778
28135W        W44319   6.510  11.456   0.828 -0.0375  0.1393 -0.0701
28136W        W44320  13.368   5.746   5.430  0.0577 -0.0820 -0.1928
28137W        W44321   2.098  14.431   4.812  0.0497  0.0515 -0.1622
28138W        W44322   5.673  10.542   0.804 -0.0646  0.2860 -0.0894
28139W        W44323   6.852   0.866  13.827 -0.2621  0.0139  0.2117
28140W        W44324   5.948   8.186  16.691  0.2730 -0.0299 -0.1373
28141W        W44325   7.257   1.148   1.891  0.1294  0.0111 -0.0372
28142W        W44326   3.980   4.447  15.221  0.1527 -0.0956 -0.0639
28143W        W44327   2.593  10.640   0.144 -0.0631 -0.2026 -0.0652
28144W        W44328   5.127   9.189   3.503  0.1685 -0.1144  0.0662
28145W        W44329   5.766  10.434  11.771 -0.1388  0.0199  0.2040
28146W        W44330   9.242  11.928   4.847 -0.0208  0.2429  0.1313
28147W        W44331   3.184  11.205   3.113 -0.1544 -0.2268  0.0184
28148W        W44332   5.807   3.798  12.786 -0.0847  0.1612 -0.0044
28149W        W44333  11.745   4.455   4.674 -0.3380  0.0268 -0.0024
28150W        W44334   6.821   4.110   4.887  0.1789  0.2657 -0.1096
28151W        W44335   3.110   6.659   1.560 -0.0306 -0.1288 -0.0838
28152W        W44336  16.820   0.606   6.467 -0.2701 -0.0577 -0.2526
28153W        W44337  16.402   6.485   1.829  0.2156 -0.2819 -0.1685
28154W        W44338  16.592   4.969   5.847 -0.2081 -0.2224 -0.0444
28155W        W44339   5.063   2.489   0.607  0.0559 -0.4035 -0.2712
28156W        W44340  12.954  16.351   1.480  0.3079 -0.1649 -0.3327
28157W        W44341  14.961  12.435  12.794 -0.0686 -0.0740  0.0028
28158W        W44342  17.034   1.768  12.626 -0.3442 -0.2401 -0.1282
28159W        W44343  15.024   0.187  14.876  0.0113  0.1039  0.0597
28160W        W44344   4.926   4.556   3.898 -0.0821 -0.2125 -0.0714
28161W        W44345  14.109  12.600  13.413 -0.0383 -0.2975  0.1063
28162W        W44346  14.156  14.569   1.297 -0.2254  0.0052  0.1326
28163W        W44347  13.660   4.873   5.138 -0.0070  0.0577  0.0026
28164W        W44348  14.351   7.192   1.438 -0.1432  0.1377 -0.0195
28165W        W44349  17.024  12.973   4.387 -0.2394  0.2722  0.3991
28166W        W44350  17.354  10.724  12.307  0.0845 -0.0517  0.1288
28167W        W44351  12.759  13.600  15.461 -0.3730 -0.3018 -0.0405
28168W        W44352  15.157  14.471   0.243  0.1117 -0.0837 -0.1450
28169W        W44353  14.552   6.937   0.523  0.2139 -0.0102  0.2057
28170W        W44354   8.370  15.350   5.284 -0.1858 -0.0918 -0.1259
28171W        W44355   5.564   6.557   0.725  0.1197  0.0177  0.0179
28172W        W44356   9.157   3.583   1.181  0.2264  0.0689  0.0444
28173W        W44357  10.469   7.148   5.371 -0.2281  0.1013 -0.1383
28174W        W44358   3.081   9.477  14.926  0.0806  0.0114 -0.3509
28175W        W44359  16.943  13.665   5.006  0.5399 -0.2232  0.3237
28176W        W44360  11.660   8.429   0.459 -0.2066 -0.0299 -0.2959
28177W        W44361   7.224   3.347   3.837 -0.1544  0.4021 -0.2310
28178W        W44362   8.292   6.150  14.629 -0.1927 -0.1891  0.1510
28179W        W44363   0.387   4.601   5.297  0.0333 -0.0015  0.1120
28180W        W44364  10.030  11.112  14.922  0.1133 -0.1368 -0.2034
28181W        W44365   6.623   8.918  16.405  0.0283  0.0085 -0.0630
28182W        W44366  11.312   5.850  15.551 -0.0117  0.0532  0.1296
28183W        W44367  12.333  15.790  15.947  0.2197 -0.1935 -0.2890
28184W        W44368  14.278   5.612   1.243  0.0987  0.2637  0.1579
28185W        W44369   6.612   9.192   0.367  0.0033 -0.0953  0.1115
28186W        W44370   0.449  11.748  13.252 -0.1301 -0.2405 -0.2335
28187W        W44371   1.797   6.197   4.961  0.0817  0.0643  0.2062
28188W        W44372   9.718   7.274  12.855  0.1510 -0.1567  0.2160
28189W        W44373   2.810  14.661  11.334  0.0818 -0.0251  0.0465
28190W        W44374  10.130   0.929   0.781 -0.1566  0.1612  0.0211
28191W        W44375   9.308  10.780   3.329 -0.0532  0.2760 -0.3111
28192W        W44376  13.325  14.951  10.763 -0.2013 -0.2788  0.0478
28193W        W44377  12.170   9.226   0.967  0.1498 -0.0791 -0.0427
28194W        W44378  16.020   1.466   1.591 -0.0793  0.2284  0.1571
28195W        W44379  15.839   6.716   1.735  0.1604  0.2218 -0.0544
28196W        W44380   0.545   7.308   2.049 -0.4551  0.0322  0.2065
28197W        W44381   8.607   4.896  14.219  0.1263  0.2576  0.0884
28198W        W44382  16.817   8.534   1.524 -0.0405 -0.2337  0.1321
28199W        W44383  16.799  11.361  16.938 -0.1039 -0.2269  0.0236
28200W        W44384   0.488   3.362  13.276 -0.0105 -0.1795  0.1175
28201W        W44385   7.069  11.474   0.904  0.0871  0.0238  0.2408
28202W        W44386   5.580   2.334   0.539 -0.2694 -0.0392 -0.2173
28203W        W44387   3.456  16.898   1.999  0.3278  0.1454  0.1750
28204W        W44388   6.179  12.931   0.963 -0.1964  0.2999  0.0217
28205W        W44389   6.111  14.760   1.233  0.1025 -0.0959 -0.2631
28206W        W44390  12.463   2.362  13.743  0.1833 -0.1976  0.0315
28207W        W44391   9.517   5.750   1.564 -0.1255 -0.4408  0.0816
28208W        W44392  16.005  17.702  14.077  0.0923 -0.2589  0.2285
28209W        W44393   9.549  17.383   0.448  0.1443  0.2132  0.0254
28210W        W44394   7.577  11.983  12.651  0.1808  0.0460 -0.0105
28211W        W44395   1.761   7.977   3.555  0.0177  0.0041 -0.1436
28212W        W44396  13.285  12.463  14.918  0.1262  0.1993 -0.1839
28213W        W44397   7.354   5.589   4.554 -0.1869 -0.3697  0.0414
28214W        W44398   1.187   6.441   4.477  0.1227 -0.3213  0.0807
28215W        W44399  11.934   2.529   4.810 -0.1909 -0.0600 -0.3419
28216W        W44400  15.681  10.320   6.020  0.0241 -0.2408 -0.2795
28217W        W44401   4.368   2.091  12.691 -0.2098  0.1131 -0.0369
28218W        W44402  10.500  14.431   6.278 -0.2096 -0.1221  0.2956
28219W        W44403   4.989  12.747  15.686  0.0886  0.3724  0.0847
28220W        W44404  13.258   4.370  11.616 -0.1318 -0.2268  0.1340
28221W        W44405   6.770   8.750   4.626  0.1071 -0.1120  0.1640
28222W        W44406   0.125  14.854  15.271  0.0011 -0.3030 -0.0365
28223W        W44407   7.155   1.692  12.833 -0.1095  0.1658  0.0803
28224W        W44408  11.162   8.083   0.823  0.2417  0.1234 -0.4212
28225W        W44409  14.896  17.470  16.484 -0.1534 -0.4115  0.2926
28226W        W44410  17.083  14.602  15.098  0.1022  0.1317  0.1657
28227W        W44411  10.312   4.234   1.665 -0.0381  0.0248  0.3858
28228W        W44412   9.741  15.559   1.191  0.0230  0.1780 -0.0489
28229W        W44413  13.275  15.676  16.450 -0.1506 -0.0622  0.0141
28230W        W44414   4.762   8.795   1.335  0.2092  0.4295  0.0022
28231W        W44415   5.997   0.597  14.848 -0.0897  0.0292  0.0771
28232W        W44416  10.984  11.129   2.794 -0.1068 -0.2796 -0.1875
28233W        W44417   4.295  14.425  12.993 -0.2868  0.0858 -0.1061
28234W        W44418   2.929  13.321  13.151 -0.0396 -0.0909  0.0916
28235W        W44419   2.827   3.076  15.122  0.0635  0.1390  0.1488
28236W        W44420  16.531  16.414   1.553 -0.1515  0.1711 -0.0219
28237W        W44421  10.932   7.573   2.834  0.1952  0.3766  0.0716
28238W        W44422   7.206   7.420   4.167  0.1615 -0.0852  0.0466
28239W        W44423   1.837   2.924  12.407 -0.3368  0.1671 -0.0862
28240W        W44424   7.039  17.869   4.961  0.1655 -0.0703  0.1179
28241W        W44425  11.967   9.667  13.249 -0.1432 -0.1136  0.0210
28242W        W44426   1.196  15.160   2.602  0.1264 -0.0628  0.0535
28243W        W44427  16.301  10.700   5.276  0.0800  0.1384 -0.1071
28244W        W44428  12.084   5.582   1.800 -0.0620  0.1415 -0.1684
28245W        W44429  14.464   7.988  12.058  0.0850 -0.1288  0.2078
28246W        W44430  16.293  16.915  12.002 -0.2335 -0.3240 -0.0889
28247W        W44431  11.293   8.710   1.223  0.2505  0.1457  0.0684
28248W        W44432   4.798   1.516   3.130  0.1377 -0.0964  0.1402
28249W        W44433   3.391  11.062  13.223 -0.1649  0.0862 -0.2631
28250W        W44434   0.080   1.533   3.061 -0.0910  0.3809  0.1125
28251W        W44435  11.945   5.737   5.523 -0.0670  0.1269  0.2586
28252W        W44436   0.029   7.985  13.964  0.0087  0.5988  0.2483
28253W        W44437   5.608   5.227  13.833 -0.0032 -0.3194 -0.0846
28254W        W44438   9.084   9.119   4.256 -0.0599 -0.0461  0.2062
28255W        W44439  14.735   7.620   3.570 -0.1650  0.0503  0.1148
28256W        W44440  11.558  16.043  11.523  0.4101 -0.1651  0.2606
28257W        W44441  10.326   1.477   3.702 -0.3046  0.1403 -0.1365
28258W        W44442   4.971  14.134  13.548  0.0217 -0.0810 -0.1185
28259W        W44443  15.578   3.508  16.698 -0.0761  0.1211 -0.1271
28260W        W44444   8.904  14.125   5.478  0.0591 -0.1687 -0.1157
28261W        W44445  17.585  11.464   0.292 -0.0255  0.0329 -0.3174
28262W        W44446   4.854   6.750   4.468  0.0234 -0.0338 -0.1236
28263W        W44447   0.917   4.719  13.066  0.1508 -0.0540  0.1167
28264W        W44448   0.158   3.132  14.304 -0.0728  0.4146 -0.2297
28265W        W44449   2.279   7.379  16.754 -0.0352 -0.2244  0.0339
28266W        W44450   7.973   4.230  14.594  0.0888  0.2081 -0.0302
28267W        W44451  11.295   7.506   0.567  0.5070  0.2344 -0.0923
28268W        W44452  14.056  10.015  14.124 -0.0846 -0.0069 -0.2527
28269W        W44453  13.935   7.341   2.343  0.2355 -0.0819 -0.0969
28270W        W44454  11.143   2.567   5.218 -0.0761  0.1298 -0.1306
28271W        W44455  10.280   6.066   1.408  0.2654 -0.0946  0.0290
28272W        W44456  10.343  13.594   1.203  0.3585  0.2586 -0.1002
28273W        W44457   7.521  16.132   0.905 -0.2006  0.1006  0.4513
28274W        W44458  10.737   6.148  14.452  0.0737  0.1147 -0.1346
28275W        W44459   2.825  12.735   2.455 -0.0812  0.2401 -0.2956
28276W        W44460  11.652   3.237  13.263 -0.2449 -0.1281 -0.0003
28277W        W44461   4.457   5.277   3.666  0.0125  0.2005 -0.0861
28278W        W44462   4.654  11.314   5.023 -0.1379 -0.1645 -0.0159
28279W        W44463  14.192   0.945  14.151  0.2824  0.1493  0.2676
28280W        W44464   5.791   1.668   3.478 -0.1488 -0.0054 -0.2657
28281W        W44465  14.119   8.436   4.924 -0.0941 -0.0904 -0.2679
28282W        W44466  15.466   2.104  15.799  0.0274 -0.2560 -0.2179
28283W        W44467  17.004  12.403  14.918  0.3581  0.0635  0.2376
28284W        W44468   8.411  10.566   3.451 -0.3776  0.1424  0.1751
28285W        W44469   2.186   6.781   0.764  0.3018 -0.2832 -0.1619
28286W        W44470  16.440   7.535   4.767 -0.0380 -0.1194  0.2209
28287W        W44471   2.388   4.360  16.449  0.3291  0.0500  0.0167
28288W        W44472  14.811  16.083   4.044  0.3729 -0.0580 -0.3682
28289W        W44473   6.587  14.417  15.726  0.1725  0.0443  0.1619
28290W        W44474  17.465   9.253   1.138  0.1050  0.0427 -0.0021
28291W        W44475  16.404  15.410   3.102  0.2128  0.0038 -0.0771
28292W        W44476   4.646  11.677   4.638 -0.0691  0.0506  0.0649
28293W        W44477  10.874  12.446  15.053 -0.0649 -0.1584  0.0935
28294W        W44478   1.495   8.866  16.746  0.1204  0.6309 -0.2598
28295W        W44479  16.943  11.291   5.546 -0.1116  0.0787 -0.1103
28296W        W44480   2.954  12.536  16.379 -0.0259 -0.1177 -0.0749
28297W        W44481   0.077  16.510  12.729 -0.1141 -0.1178 -0.0886
28298W        W44482   8.717   8.856   4.053  0.2222  0.0598  0.4456
28299W        W44483   0.844   3.550  12.491 -0.0603  0.1723 -0.2992
28300W        W44484   4.521   8.543   6.007 -0.3323 -0.0757 -0.1023
28301W        W44485  10.467  11.324   0.520  0.1118 -0.0202  0.2447
28302W        W44486   2.450  10.545   2.788 -0.0581  0.3499  0.0340
28303W        W44487   6.932   5.933   4.579 -0.1317 -0.0386 -0.1552
28304W        W44488  11.608   8.281  14.321  0.1007  0.1188 -0.1769
28305W        W44489  16.436   8.898   3.669  0.0306  0.4853  0.0877
28306W        W44490   4.291  14.079  11.454  0.1390  0.3281  0.1768
28307W        W44491   5.804   2.993  15.852  0.2373 -0.0027  0.3003
28308W        W44492  12.670  17.044   4.337 -0.0601 -0.1903  0.1335
28309W        W44493   9.296   2.112  13.503  0.2433 -0.0188 -0.2084
28310W        W44494   0.097  13.438  15.342 -0.0250  0.3074  0.0885
28311W        W44495   2.517   2.720   1.881 -0.1130 -0.0767  0.3466
28312W        W44496   9.091   3.818   4.670  0.0003  0.0750 -0.0953
28313W        W44497  11.554  13.335   3.862 -0.0695 -0.0449  0.3176
28314W        W44498  12.082  17.150   4.166  0.0626  0.0603 -0.1131
28315W        W44499   8.565  12.604   2.853 -0.1292  0.1145  0.1199
28316W        W44500   6.942   1.570  11.911  0.2304  0.0589  0.0376
28317W        W44501  17.711   0.959  11.440 -0.2694  0.0967 -0.2007
28318W        W44502  17.828   3.861  15.363  0.2276  0.0558 -0.0582
28319W        W44503   9.384  16.750   2.880  0.0580 -0.0074 -0.0808
28320W        W44504   3.648  14.001   4.072  0.0581 -0.1016 -0.0088
28321W        W44505  11.535   4.022   5.796  0.1092  0.2552  0.1589
28322W        W44506  17.017   7.204   5.953 -0.2847  0.1266  0.3484
28323W        W44507   6.135  11.662  11.537  0.1764 -0.1842  0.0150
28324W        W44508  15.604  16.592   3.836 -0.5074 -0.1530  0.1110
28325W        W44509  12.861  13.339   5.179  0.3399  0.0343 -0.0239
28326W        W44510   9.980   7.540  14.993 -0.0259 -0.1503  0.3362
28327W        W44511   8.755  16.157   2.139  0.0203 -0.1093  0.2133
28328W        W44512   3.519   9.482   3.150  0.0907 -0.1757  0.0417
28329W        W44513  12.881   7.835  16.540 -0.2588 -0.1162 -0.1155
28330W        W44514   1.132   4.555   0.354  0.0131 -0.1203  0.2624
28331W        W44515  14.708   2.885  14.072 -0.1761  0.1949  0.1404
28332W        W44516   1.639   6.115   1.320 -0.2101  0.2208  0.2383
28333W        W44517   7.301   4.202  10.957 -0.1103  0.1903 -0.1148
28334W        W44518  15.850  13.471  16.347 -0.1266 -0.1446  0.0141
28335W        W44519   5.292   1.481   1.033 -0.0184 -0.1563  0.0722
28336W        W44520  17.854  11.671   3.445  0.2952 -0.0451 -0.0585
28337W        W44521  17.504  17.363   5.741  0.1360 -0.1184  0.2733
28338W        W44522   4.273   7.730   2.417 -0.0546 -0.3468  0.0424
28339W        W44523   4.986   6.902   6.099 -0.0293  0.1695  0.0263
28340W        W44524   2.254   6.854  12.077  0.1846 -0.0156  0.3288
28341W        W44525  15.234   5.597  15.156 -0.2988  0.1130  0.0336
28342W        W44526   6.285   8.861  13.107 -0.1034 -0.1117 -0.3367
28343W        W44527   0.545   1.283  15.089  0.0811  0.1193  0.1203
28344W        W44528   8.150  15.414   3.559  0.1101 -0.1706  0.3823
28345W        W44529  17.862  16.672  14.683 -0.1256 -0.1736  0.0742
28346W        W44530   3.955   0.469   4.958 -0.3666  0.1897  0.2378
28347W        W44531   5.976  11.832   2.367  0.2748  0.1452  0.1482
28348W        W44532  15.643  10.556  11.576  0.0849  0.3277  0.1296
28349W        W44533   7.155   3.846   6.283  0.0893  0.4733  0.1487
28350W        W44534  10.585   9.794   4.989 -0.2795  0.1395 -0.0726
28351W        W44535   2.166   3.209  16.795 -0.0413  0.0903 -0.2072
28352W        W44536  13.696  12.551  12.681 -0.4533 -0.2476  0.1011
28353W        W44537   0.878  17.048   1.988 -0.0230 -0.1939  0.0214
28354W        W44538   4.591  15.207  14.758  0.0483  0.2949  0.2277
28355W        W44539   9.020   8.986   0.151 -0.0128  0.0342 -0.1983
28356W        W44540  14.959   0.014  16.206 -0.0110 -0.1895 -0.1506
28357W        W44541  15.614  14.907   4.853 -0.0461 -0.1066 -0.0550
28358W        W44542   9.327   3.083   1.296  0.0207 -0.2869 -0.0086
28359W        W44543   9.017  11.284  11.702  0.1489  0.0513  0.2595
28360W        W44544   6.052   6.583  14.839  0.1303 -0.1639  0.0363
28361W        W44545  11.931   0.143   1.478  0.1098 -0.0634 -0.0586
28362W        W44546  16.348  10.781  16.405  0.2274 -0.0614 -0.0385
28363W        W44547  15.324  14.417   5.915 -0.3587 -0.0664  0.1886
28364W        W44548   6.715  13.781   2.802 -0.1272  0.0616  0.0565
28365W        W44549   5.579  13.066  13.102  0.0685  0.2286 -0.1369
28366W        W44550  16.301   5.327   6.133  0.0713 -0.0221  0.1873
28367W        W44551   6.700   4.587   0.064  0.3176 -0.0024  0.2040
28368W        W44552   6.430  13.259   5.727  0.2804  0.1153 -0.2779
28369W        W44553  13.598  13.651   2.443 -0.1614  0.0376  0.0336
28370W        W44554  15.162   2.667   2.599 -0.0351  0.1076 -0.3290
28371W        W44555  13.638  16.337  14.671 -0.0844 -0.1246 -0.0537
28372W        W44556  15.918  11.737  14.880  0.1580 -0.1552 -0.1599
28373W        W44557   4.618  13.894  12.181 -0.4439  0.3310 -0.1345
28374W        W44558  11.953   7.582  16.210 -0.0917 -0.0488 -0.1880
28375W        W44559   2.233   2.319   1.835  0.3684  0.0017  0.0131
28376W        W44560  16.085  10.066  16.583  0.1889  0.0626 -0.1007
28377W        W44561  14.172  13.273   1.181 -0.3322  0.0086 -0.3177
28378W        W44562  13.617  17.495  16.695  0.0059 -0.0890 -0.0310
28379W        W44563   6.271   9.446   1.915  0.0317 -0.0830 -0.1319
28380W        W44564   7.294   0.932  13.367 -0.3185  0.1202 -0.2515
28381W        W44565   2.326   9.705   0.859  0.1112  0.0731 -0.2171
28382W        W44566  12.688  11.006   0.253 -0.1527 -0.0828 -0.2041
28383W        W44567  14.620   4.126  16.196  0.1520 -0.1505  0.1234
28384W        W44568  11.393   7.446  15.343  0.1561  0.1085 -0.2589
28385W        W44569  12.488   4.151   1.167  0.1998 -0.0820 -0.0297
28386W        W44570   6.763   4.242   2.249 -0.2318 -0.1852  0.1896
28387W        W44571  10.470  10.824  13.230 -0.1964 -0.3108 -0.1314
28388W        W44572  14.377   8.336  16.514 -0.2053 -0.0230  0.0067
28389W        W44573   1.655   4.830  13.886  0.0636  0.0974  0.0107
28390W        W44574   1.203   1.714   4.277  0.1153  0.1196 -0.1291
28391W        W44575   4.108   6.190  15.189  0.3530  0.1291 -0.0225
28392W        W44576  17.266   2.239   0.854  0.2095 -0.0457  0.2400
28393W        W44577  11.748   6.981  14.875  0.1096  0.0550 -0.0762
28394W        W44578   1.124   4.698   2.097 -0.0088  0.1472 -0.1474
28395W        W44579   4.501  12.336   0.037 -0.1402 -0.2655 -0.1886
28396W        W44580  16.294  10.514  11.333 -0.2674  0.0420 -0.0340
28397W        W44581  12.877   5.669   5.728 -0.0104 -0.0159 -0.2056
28398W        W44582   1.848   8.774  13.329 -0.2517  0.0407 -0.1853
28399W        W44583  10.978   5.269  14.845  0.3533  0.0573 -0.0304
28400W        W44584   2.573  16.742  14.962  0.3171  0.1388  0.0952
28401W        W44585  16.136  12.912   1.053  0.0236  0.0792 -0.0940
28402W        W44586   6.956   3.239   1.457 -0.3546  0.1237 -0.1410
28403W        W44587  11.354  17.845  14.754 -0.0076  0.0693 -0.0223
28404W        W44588  14.341   3.871  16.863 -0.3308  0.1289 -0.2789
28405W        W44589  10.938   5.575   3.972 -0.0880 -0.0240 -0.1361
28406W        W44590  15.822  12.882  12.631 -0.2050  0.0899 -0.0273
28407W        W44591   2.458   0.398  14.320 -0.2163  0.3491  0.2995
28408W        W44592  14.174  14.853   4.298  0.0001 -0.2503 -0.0666
28409W        W44593  16.290   4.395   3.668  0.0549 -0.0348 -0.2739
28410W        W44594   3.665  10.117   3.831 -0.0735 -0.2884 -0.1018
28411W        W44595   7.111   2.260  12.505 -0.1879  0.2501 -0.0380
28412W        W44596   5.135   3.860   0.937 -0.0865 -0.1312 -0.1242
28413W        W44597   0.423  14.697   3.969  0.0247 -0.0374 -0.0843
28414W        W44598  13.552   1.024   4.424 -0.0619 -0.0470  0.0980
28415W        W44599  15.943  13.698   1.095 -0.1776 -0.0475  0.2394
28416W        W44600  14.641   9.389   2.407  0.0362  0.0742  0.0469
28417W        W44601  16.330  17.638  15.016 -0.2421  0.2905  0.1136
28418W        W44602   3.723  10.240   0.947  0.1223  0.2034  0.0131
28419W        W44603   5.943  16.822  13.480  0.2666  0.3379  0.0559
28420W        W44604  13.453  17.064   0.605 -0.4602 -0.0286 -0.2357
28421W        W44605   6.976   9.439  15.510  0.1298 -0.0755  0.0758
28422W        W44606   8.229  17.515   4.214 -0.0819  0.2130  0.0879
28423W        W44607  15.343   5.290   3.189  0.0155  0.4494 -0.1620
28424W        W44608  10.216   8.215  14.972  0.0140  0.4025 -0.1331
28425W        W44609   3.117   4.724   5.069 -0.1322 -0.1239  0.1522
28426W        W44610  10.927   8.777   3.610  0.2574  0.3733  0.0827
28427W        W44611  11.722   3.303  13.774 -0.0240 -0.1756  0.0327
28428W        W44612   1.151   6.331   6.161 -0.1111  0.0924  0.0557
28429W        W44613   8.409   1.803  15.854 -0.3843  0.1441 -0.1340
28430W        W44614   2.276   6.318  10.847 -0.0837 -0.0973  0.1326
28431W        W44615   6.885  15.076  16.180 -0.4814 -0.2703  0.1843
28432W        W44616  11.512   3.438   4.861  0.0377 -0.0538  0.4848
28433W        W44617  17.850  12.643   3.667  0.0125  0.0118 -0.0522
28434W        W44618  10.959   8.646  11.935 -0.0000  0.2023 -0.0315
28435W        W44619  16.914  10.175  12.975  0.2784 -0.0283  0.0219
28436W        W44620  16.933   5.900   1.046 -0.2356  0.0850  0.1058
28437W        W44621   8.380   3.605  15.594  0.1690  0.0217  0.1083
28438W        W44622  15.058  11.890  12.705 -0.1146 -0.1865  0.0969
28439W        W44623   8.572   4.348   2.499  0.0938 -0.2362 -0.1658
28440W        W44624   5.595   0.293  14.820  0.4358  0.1943 -0.0626
28441W        W44625   6.338   0.726  13.139  0.0659  0.1163  0.1190
28442W        W44626   3.167  15.480  11.402 -0.0219  0.1851  0.0334
28443W        W44627   6.103   8.692   6.870  0.0471  0.2074 -0.5979
28444W        W44628   2.771   3.403   3.698 -0.0790 -0.2911  0.1198
28445W        W44629   9.940  17.548   3.660 -0.1096  0.0456  0.0264
28446W        W44630   8.653   0.619  16.625  0.1821 -0.0418  0.1204
28447W        W44631   1.201  15.974  16.452  0.2023 -0.0806  0.1158
28448W        W44632   8.250  15.385  14.860 -0.0047  0.0639  0.0274
28449W        W44633   6.750   5.482  16.360 -0.1048  0.0570 -0.0402
28450W        W44634   3.428   2.530   1.498  0.2584  0.0776  0.2735
28451W        W44635  17.053   1.059  16.359 -0.0946 -0.2705  0.1944
28452W        W44636   1.340   9.711   2.424 -0.2116 -0.2846 -0.0472
28453W        W44637   9.447  15.970  15.673 -0.2878 -0.3679 -0.0383
28454W        W44638  17.134  17.193   4.961 -0.1095 -0.1174  0.0214
28455W        W44639  13.765   8.036   4.966 -0.0067 -0.3383 -0.2212
28456W        W44640   8.324  13.881  15.501  0.0718 -0.0272  0.0582
28457W        W44641   5.428   8.161  12.432 -0.2849 -0.0739  0.0849
28458W        W44642   4.691  15.731  12.879  0.3330 -0.1556 -0.0852
28459W        W44643   8.204  12.922   0.922 -0.0358  0.2700 -0.0810
28460W        W44644  16.540  16.667  15.135  0.2218 -0.1451  0.1280
28461W        W44645   7.913  13.812   0.539  0.1840  0.2203 -0.4033
28462W        W44646  12.983  12.895   5.432 -0.0245  0.1088  0.0958
28463W        W44647  15.660  14.283   2.304  0.0471 -0.1031  0.3409
28464W        W44648   7.242   6.661   2.631  0.0748  0.1811 -0.2860
28465W        W44649  14.280   2.163   5.039  0.1012  0.1958 -0.1183
28466W        W44650   8.446   2.163  14.780  0.2210 -0.4203  0.0675
28467W        W44651   8.460   0.187   0.552  0.1278  0.0018  0.1147
28468W        W44652   2.370  10.821   3.599 -0.0978  0.1014  0.1499
28469W        W44653  13.406  10.960  13.385 -0.1627  0.1541 -0.3176
28470W        W44654  14.738  15.339  11.559 -0.1772 -0.2094 -0.0658
28471W        W44655  10.353   8.277  13.868  0.3869 -0.0423 -0.1924
28472W        W44656  12.151   4.626  16.526 -0.1245 -0.1045  0.2594
28473W        W44657  10.756   9.336   1.906  0.1813  0.3009 -0.0083
28474W        W44658   1.352  15.978  14.205  0.3008 -0.1820  0.0888
28475W        W44659   0.367   6.646   1.890  0.0718 -0.2051  0.1046
28476W        W44660  15.452   7.641  16.585 -0.1420 -0.1062 -0.1778
28477W        W44661  10.158   3.748   1.000 -0.2490  0.2537 -0.3325
28478W        W44662  15.060  16.289   1.930 -0.1800  0.1968  0.2170
28479W        W44663   0.583  17.564   3.630  0.0278 -0.0168  0.1115
28480W        W44664   5.296   9.214   2.942 -0.0569  0.1355 -0.0678
28481W        W44665   2.580   5.674  15.670 -0.3264 -0.0933 -0.0499
28482W        W44666  10.875   2.282   1.068 -0.0013 -0.0702 -0.2512
28483W        W44667   0.763   3.189   4.948  0.1763 -0.1514 -0.2080
28484W        W44668   1.705   6.395  15.067 -0.2731 -0.1797  0.2528
28485W        W44669  10.818   9.851   3.228  0.2057  0.0794 -0.2383
28486W        W44670  16.188   8.653   0.240  0.0803 -0.0601 -0.0131
28487W        W44671  11.637   1.292   1.604  0.4640  0.0226  0.2253
28488W        W44672  10.054  10.809  12.505  0.0899  0.1246 -0.0211
28489W        W44673   5.381  14.827   1.562 -0.0031 -0.0054 -0.0385
28490W        W44674   8.575   3.269   4.042  0.0511  0.2127  0.3886
28491W        W44675  10.282  15.980   1.940 -0.3990  0.1275 -0.1709
28492W        W44676   5.100   4.947   5.425  0.1398  0.2145 -0.0469
28493W        W44677   6.701  15.498  15.949  0.1915  0.2474  0.2375
28494W        W44678   7.854   6.089   3.970  0.3564  0.0910  0.2635
28495W        W44679  15.960  17.204  16.685  0.2356  0.1893 -0.1248
28496W        W44680  16.105  10.398  15.622  0.1950  0.2962  0.0443
28497W        W44681  15.107  16.468  16.346 -0.1419 -0.0028  0.4303
28498W        W44682   9.766   2.984  12.063  0.2076 -0.0305 -0.1721
28499W        W44683  17.548   8.504   2.862 -0.1270 -0.1284 -0.0268
28500W        W44684   1.245  13.796   1.866 -0.0026 -0.0607 -0.2111
28501W        W44685   6.950  16.768   0.259 -0.2125  0.0163  0.1603
28502W        W44686  15.054  17.669   5.002  0.0198 -0.1830  0.2429
28503W        W44687  15.599   1.647  12.418  0.0646 -0.2994 -0.0346
28504W        W44688  11.423   8.954   3.783 -0.2039 -0.1390 -0.0118
28505W        W44689   0.828   6.083   1.038  0.0294 -0.0681 -0.0632
28506W        W44690  14.385   2.900  14.457 -0.0950 -0.2801 -0.0420
28507W        W44691  11.664   0.523  14.195 -0.4491 -0.3647  0.2065
28508W        W44692   5.607  12.606   4.354 -0.4608  0.3665  0.0489
28509W        W44693  12.220  16.630   0.644  0.0231  0.3829  0.2177
28510W        W44694   9.556  10.177   2.355 -0.2463  0.0087 -0.0401
28511W        W44695  17.635  15.612   6.237  0.3008 -0.0641 -0.1286
28512W        W44696   3.933  14.954  11.986  0.1502  0.0317  0.0196
28513W        W44697   8.855   7.946  15.552 -0.1703  0.0507 -0.0154
28514W        W44698   8.347  17.220  13.180  0.3079  0.2864 -0.0012
28515W        W44699  15.733  15.879   1.400 -0.1838  0.1282 -0.1281
28516W        W44700   6.814   0.404  14.460  0.0388 -0.0505 -0.0952
28517W        W44701  15.877   1.522  12.039  0.1019  0.0396  0.1426
28518W        W44702  17.381  16.665  14.505 -0.1495 -0.0782 -0.0598
28519W        W44703   2.219   4.817  16.543 -0.0768  0.1573 -0.1822
28520W        W44704   4.964   9.789  12.119  0.2978  0.1141 -0.1690
28521W        W44705   1.761   9.763  15.071  0.0269  0.1816  0.3230
28522W        W44706   2.910   5.490  13.029  0.0621 -0.3270  0.0556
28523W        W44707   4.624   5.694   5.433  0.0739 -0.0983 -0.2184
28524W        W44708   2.535   4.680  16.903  0.6346 -0.4077 -0.0434
28525W        W44709   3.171  17.332   4.455  0.0038 -0.0396 -0.0181
28526W        W44710   0.387  16.082  12.869 -0.0841 -0.0323 -0.0725
28527W        W44711   1.710  14.760   4.750  0.1637 -0.3471  0.2762
28528W        W44712  14.017  10.709  15.367  0.1241  0.0341 -0.2297
28529W        W44713   3.691   4.143  14.389 -0.1381 -0.1141  0.0637
28530W        W44714   3.765  12.080  13.594  0.0459  0.1024  0.2442
28531W        W44715  16.298   8.326   1.143  0.4320  0.0869  0.0445
28532W        W44716   0.180  10.557   5.354  0.0921  0.2677 -0.2449
28533W        W44717   7.829   0.509  16.884 -0.1693  0.1192  0.1415
28534W        W44718   9.054   0.351  13.350  0.2473  0.0795  0.1417
28535W        W44719   8.861   6.426  11.934  0.0322  0.0144 -0.2202
28536W        W44720  16.757  15.821   5.520  0.2577  0.1314  0.1144
28537W        W44721   7.591  15.009   5.543 -0.1383 -0.0425 -0.1103
28538W        W44722   6.781  11.170   3.657  0.2292 -0.0011 -0.0337
28539W        W44723   6.040  12.413  15.414  0.0593 -0.1255 -0.1045
28540W        W44724   7.232  15.498  12.190 -0.3623  0.1112  0.1276
28541W        W44725   5.236  17.378   1.070  0.3181  0.1123  0.0229
28542W        W44726   7.619  16.595   5.425  0.1691  0.0985 -0.1240
28543W        W44727   2.329  16.463  14.018 -0.4692 -0.2841  0.1036
28544W        W44728   6.745  14.341  13.172 -0.3213  0.3157 -0.0575
28545W        W44729   2.153  16.356   0.493 -0.0883  0.4454 -0.0376
28546W        W44730  17.430   2.178  15.457  0.1020  0.2242  0.1114
28547W        W44731   7.685   4.667   4.522 -0.1513 -0.1455  0.2769
28548W        W44732   7.384  17.243  16.136  0.0713 -0.0090  0.4759
28549W        W44733   8.684   8.681   3.465 -0.2045  0.3305 -0.1157
28550W        W44734   0.416  14.280  16.185 -0.0634 -0.2132  0.1569
28551W        W44735  17.288   0.908  13.832  0.1348 -0.1127  0.0608
28552W        W44736  12.467  11.112   2.811  0.1157  0.3810  0.2058
28553W        W44737   0.478  15.390  16.884  0.2468 -0.0170  0.0315
28554W        W44738   9.169   8.279  12.027 -0.2791 -0.1837 -0.0001
28555W        W44739  11.950   5.150   3.521  0.1636 -0.0897  0.0420
28556W        W44740  12.653   3.442  15.666  0.0678 -0.3127  0.2278
28557W        W44741  15.975  14.366   0.603 -0.0160 -0.1343  0.3825
28558W        W44742   8.810   9.554   5.207  0.1455  0.0111 -0.3505
28559W        W44743  17.090  17.106   6.020 -0.1579 -0.0318 -0.1276
28560W        W44744   9.125  10.188   4.243  0.1120  0.1374  0.0095
28561W        W44745   4.344  12.070   1.607 -0.1505  0.0052  0.1083
28562W        W44746   6.730   3.300  12.425 -0.0329 -0.1062  0.0936
28563W        W44747  12.741   4.435   3.437  0.0000 -0.0219 -0.0800
28564W        W44748   1.766   9.728   5.521  0.1608  0.0928  0.3890
28565W        W44749  11.133  13.322   2.156 -0.2260  0.1923  0.0573
28566W        W44750   3.309  17.121   0.112 -0.0046 -0.0600  0.2914
28567W        W44751   9.378   3.398   0.772 -0.2592 -0.0812 -0.3157
28568W        W44752   0.428   6.411   4.501 -0.0164  0.1361 -0.1232
28569W        W44753   4.785   1.469  16.706  0.2063  0.1975  0.1945
28570W        W44754  16.559   7.487   2.749 -0.0556  0.3269  0.1547
28571W        W44755   2.210   4.977  12.527  0.3096  0.0015  0.0240
28572W        W44756  11.627   0.113   3.977 -0.1862  0.0094  0.0228
28573W        W44757   6.403   4.640  13.655 -0.1258 -0.2515 -0.1474
28574W        W44758  11.257   4.537  15.976 -0.0055 -0.0710  0.1324
28575W        W44759   3.037   8.356   2.935  0.0064 -0.1466 -0.1686
28576W        W44760   6.265  10.358  11.885 -0.3404 -0.3898 -0.1525
28577W        W44761   5.622  14.906  12.206 -0.1440  0.1444 -0.0742
28578W        W44762  17.733  13.717  12.788 -0.3057  0.2581 -0.0994
28579W        W44763  13.311  12.818  11.879 -0.1112  0.1087  0.2432
28580W        W44764  13.761  14.684   1.578 -0.1127  0.0071 -0.0310
28581W        W44765  15.177  14.713   3.927  0.2480 -0.0716 -0.0996
28582W        W44766   7.719   9.906   2.905 -0.3873 -0.4289 -0.0060
28583W        W44767   3.035  15.932  11.825 -0.1979 -0.2214 -0.0017
28584W        W44768  15.065   9.796   3.544 -0.1369 -0.1309  0.4161
28585W        W44769  14.365   7.363  16.089  0.0548  0.0717  0.0999
28586W        W44770   4.592  16.155  15.271  0.1342  0.2090  0.0256
28587W        W44771   2.853  16.434  16.221 -0.2651 -0.0259 -0.1382
28588W        W44772  11.639  12.542  11.738 -0.1293 -0.5652 -0.0605
28589W        W44773   6.752   6.230  16.077  0.0840 -0.1925 -0.1512
28590W        W44774   4.077   3.030   5.563  0.2043 -0.0106  0.1378
28591W        W44775  12.104  17.252   1.991  0.0244 -0.0574  0.0563
28592W        W44776   9.119  12.452   5.362 -0.4066 -0.0183  0.3019
28593W        W44777   2.521  15.226   3.263 -0.3005  0.0077 -0.0436
28594W        W44778  17.559  12.873   4.584  0.1154  0.3353  0.1531
28595W        W44779   1.192  12.250   3.348 -0.1153  0.3042 -0.2407
28596W        W44780  10.220  12.797   3.167  0.0378 -0.0653 -0.0103
28597W        W44781   1.729   4.966   6.445  0.0786 -0.0072  0.0201
28598W        W44782   0.835   0.114   3.666 -0.4140  0.0176 -0.1790
28599W        W44783   8.252   7.740   0.510 -0.0154 -0.2890 -0.1798
28600W        W44784  11.554   6.633   2.844 -0.1747 -0.0017 -0.1566
28601W        W44785   9.409  10.001  12.300 -0.1035 -0.1930  0.1448
28602W        W44786  13.223   6.820  11.915 -0.1322 -0.2271 -0.1521
28603W        W44787   2.444   8.177   1.098  0.0782 -0.0148 -0.2753
28604W        W44788  11.497   3.683   3.311 -0.1150 -0.0144 -0.0896
28605W        W44789  16.154  10.816  13.135 -0.1016  0.2521 -0.2954
28606W        W44790   5.883   6.262  13.578  0.2800 -0.1439  0.1971
28607W        W44791  14.536  17.539   1.806  0.0735 -0.0434  0.3456
28608W        W44792  14.756   2.354   3.418 -0.1608 -0.3600 -0.1661
28609W        W44793  10.662   6.478   1.340 -0.1712  0.1953  0.0777
28610W        W44794  13.621  17.467   1.630  0.0129 -0.0435 -0.1708
28611W        W44795   3.166   5.519  11.581 -0.1475  0.2378 -0.1332
28612W        W44796  11.515   6.231  15.972  0.1866  0.2250  0.1261
28613W        W44797  15.611   4.499  12.654  0.0411 -0.1203 -0.5754
28614W        W44798  11.385  10.897   4.779 -0.0139 -0.1040 -0.1824
28615W        W44799  13.684  10.242   0.785 -0.0576  0.0620 -0.0376
28616W        W44800  11.568   1.356   4.566  0.1658 -0.1897 -0.1273
28617W        W44801  10.035   0.136   3.882 -0.0113  0.0656  0.3734
28618W        W44802   9.618  12.408   3.473 -0.3484  0.1875  0.1083
28619W        W44803  15.404   8.259   2.616  0.2808  0.0805 -0.0664
28620W        W44804   7.484  17.060   1.736  0.1970  0.2666  0.1962
28621W        W44805  16.250  11.803   2.660 -0.0511 -0.0640  0.1200
28622W        W44806  16.110  13.822   0.637 -0.0552  0.1776 -0.1058
28623W        W44807  13.701   1.042   4.934 -0.2225  0.4785  0.0442
28624W        W44808  16.242   5.824  13.348 -0.4148 -0.3963  0.0076
28625W        W44809  15.924  13.636  14.440  0.3619 -0.0045  0.0550
28626W        W44810   7.017   6.890   3.191 -0.1027  0.0505  0.0316
28627W        W44811   8.851   5.203  15.177  0.0145  0.1309  0.2642
28628W        W44812   8.505   3.261  13.537  0.1910 -0.1701 -0.1619
28629W        W44813  15.578  13.285   5.500  0.3446  0.1277  0.2302
28630W        W44814  15.711   9.441  13.484  0.1795 -0.0141 -0.1961
28631W        W44815  12.497  15.479  15.051 -0.0209  0.1733  0.3170
28632W        W44816  15.542  16.117   4.765  0.1895  0.0628  0.0606
28633W        W44817   8.596   6.071   2.739  0.1397  0.3271 -0.1512
28634W        W44818   6.798  17.220  16.011  0.0928 -0.4629 -0.1986
28635W        W44819  17.725   1.685  13.181 -0.1793  0.0864 -0.1685
28636W        W44820  11.244   6.989   0.566 -0.2193  0.1941  0.1713
28637W        W44821  11.666   8.238  14.850 -0.0777 -0.1327 -0.3038
28638W        W44822  17.129   8.704   4.767  0.2922  0.2530 -0.0311
28639W        W44823  13.939  12.430   1.812  0.0436 -0.0936 -0.0266
28640W        W44824   4.005   1.709   1.110  0.0700 -0.0979  0.1460
28641W        W44825  17.593   1.145   3.207  0.0264 -0.2559  0.0112
28642W        W44826  16.868   2.901   4.941  0.1899 -0.0929  0.1299
28643W        W44827   6.334   1.021   2.444  0.2034 -0.0463 -0.0163
28644W        W44828   1.431   6.041  15.351  0.0219  0.1692 -0.2209
28645W        W44829  10.904   8.123   2.797 -0.2755 -0.4121 -0.2231
28646W        W44830   7.021  14.767  11.691 -0.1027  0.2816 -0.0782
28647W        W44831  12.963   0.554  14.767  0.0131  0.0411  0.0360
28648W        W44832  16.935  15.470  13.613 -0.1274 -0.0899 -0.2144
28649W        W44833  10.178   3.203   0.323 -0.0498 -0.1979  0.1380
28650W        W44834  16.786   4.664  15.764  0.0968  0.1408  0.2207
28651W        W44835   1.012   9.551   3.779  0.2998  0.2233  0.2109
28652W        W44836   4.678  16.384   0.403 -0.1071  0.0642  0.0412
28653W        W44837  13.268   8.292  13.575  0.0036  0.0712 -0.1691
28654W        W44838   9.640   9.247   6.319 -0.5056 -0.3021  0.3730
28655W        W44839  11.900  17.333   1.509 -0.0847 -0.2798 -0.1026
28656W        W44840  17.821   2.391  16.315 -0.2666  0.0259  0.0458
28657W        W44841   2.768   9.291  11.977  0.1754 -0.0304  0.1336
28658W        W44842  10.510  16.879  14.758 -0.2613  0.0424  0.0637
28659W        W44843   0.506   6.826   2.917 -0.0651  0.1035 -0.1885
28660W        W44844   4.164   8.952   0.424 -0.1373 -0.2446 -0.2368
28661W        W44845  14.419  15.788  12.490 -0.1413  0.0193 -0.3120
28662W        W44846   1.566   9.938   0.780 -0.2461 -0.3181  0.1867
28663W        W44847  11.986  14.246  15.795  0.0690 -0.0791 -0.1401
28664W        W44848   0.107   1.289   1.797 -0.3457  0.1128 -0.1077
28665W        W44849   3.998  15.931   4.211  0.0488  0.0573  0.0078
28666W        W44850  10.909   4.959  13.056  0.0432  0.1064 -0.1095
28667W        W44851   1.571   1.802  11.484  0.0667 -0.0914 -0.0870
28668W        W44852  14.040   7.874  12.775  0.5493 -0.1516  0.0689
28669W        W44853   0.844   6.610   0.943 -0.4233  0.2906 -0.0039
28670W        W44854   6.397   5.378  13.184 -0.1089  0.4054  0.0228
28671W        W44855  12.358  13.958   1.427 -0.0717 -0.2272  0.1951
28672W        W44856  10.631  13.194  12.245  0.0119 -0.0859 -0.4206
28673W        W44857   2.125   0.881  14.833 -0.3195  0.1756 -0.2495
28674W        W44858   3.248  17.809   3.211  0.0061 -0.0348  0.1959
28675W        W44859  14.500  15.707   0.746  0.5774 -0.2538  0.1245
28676W        W44860   2.381  16.296  12.705  0.0555 -0.0616 -0.1198
28677W        W44861   6.770  16.179  13.773 -0.1223 -0.2991  0.0398
28678W        W44862   6.172  16.289  15.396 -0.0244  0.1861 -0.0774
28679W        W44863   1.487   9.776  13.766  0.1299  0.0685 -0.0014
28680W        W44864   8.218  13.037   5.869 -0.0978  0.0338  0.2967
28681W        W44865  15.032  10.569  13.990  0.0175 -0.1955  0.3227
28682W        W44866   5.592  11.329  15.249 -0.1578  0.2071  0.5072
28683W        W44867   8.979  17.612   1.818 -0.0079 -0.3100 -0.1787
28684W        W44868   9.919   5.064   0.787  0.1896 -0.0014 -0.0039
28685W        W44869   1.261   4.732  12.145  0.1045 -0.3909  0.0104
28686W        W44870   2.581   8.474   3.224 -0.1938 -0.0060 -0.1350
28687W        W44871   2.600  14.447   2.803 -0.1294  0.2789 -0.3868
28688W        W44872   9.292   1.476  16.814  0.1662  0.3540 -0.0107
28689W        W44873  14.730  11.934  11.706 -0.1505  0.2222 -0.1074
28690W        W44874  14.276   3.155   2.530  0.2608 -0.3773  0.1641
28691W        W44875  10.806  16.946  15.190 -0.3632 -0.3390  0.1065
28692W        W44876   9.265  14.351   0.871 -0.3013 -0.1978  0.0785
28693W        W44877  14.155  10.125   0.863 -0.1437  0.0303 -0.0981
28694W        W44878   0.190   4.689   4.790  0.1899  0.2948  0.2692
28695W        W44879   3.843  14.961  12.494 -0.0879  0.1060  0.0424
28696W        W44880  13.414  14.861   1.924  0.0489  0.1488 -0.1514
28697W        W44881   9.597  14.961   5.376  0.0124 -0.0119  0.0044
28698W        W44882  11.735  15.661   0.751 -0.0019  0.3065 -0.2474
28699W        W44883  10.263  14.598   3.896  0.1261 -0.2191 -0.0936
28700W        W44884  15.439  16.503   4.505  0.1583 -0.0087 -0.1721
28701W        W44885   9.923   5.461  13.909 -0.1014 -0.0394 -0.0681
28702W        W44886   9.232   4.737  12.712 -0.2142  0.1226 -0.0687
28703W        W44887   1.079   0.812   5.422  0.1408  0.0366 -0.0216
28704W        W44888  13.091   5.086  13.671  0.2096 -0.0685 -0.1271
28705W        W44889   0.655  17.540   1.852 -0.1121 -0.2583  0.0698
28706W        W44890   7.009  12.241   2.746  0.0667  0.1982 -0.1223
28707W        W44891   5.106  11.149   4.817  0.0185 -0.0767 -0.3433
28708W        W44892   6.227  13.745  16.583  0.0167 -0.2559  0.0478
28709W        W44893   5.554  14.393  13.953 -0.4036  0.4306 -0.3332
28710W        W44894   5.087  17.875  13.928  0.3004 -0.1420  0.1696
28711W        W44895  15.586  15.725   2.473 -0.1672 -0.1460  0.2076
28712W        W44896  17.016   5.796  13.215 -0.0791 -0.0004 -0.0012
28713W        W44897   7.681   3.372   0.062  0.3297  0.3020 -0.1119
28714W        W44898   6.580   2.645   4.421 -0.0966 -0.1054 -0.0336
28715W        W44899   5.037   8.133  14.045 -0.0668 -0.3729 -0.0144
28716W        W44900  16.780  15.825  12.630  0.0450  0.1660  0.0666
28717W        W44901   2.291   2.516   3.327  0.0220  0.2260  0.0765
28718W        W44902  11.063  15.910  11.574 -0.0928 -0.0585 -0.0594
28719W        W44903   9.661   5.401   4.070  0.2537  0.2277  0.0825
28720W        W44904  17.411   3.748  13.243  0.0856 -0.1226  0.3471
28721W        W44905   8.131   1.085  14.142 -0.0895  0.2840  0.2914
28722W        W44906  11.174  13.479  12.341  0.1064 -0.0353  0.0872
28723W        W44907  17.120   6.208  12.865  0.0041 -0.3248 -0.2176
28724W        W44908  17.803  17.813  15.472  0.0829  0.1833  0.3471
28725W        W44909   8.580   7.309  16.718  0.2763 -0.1682 -0.0026
28726W        W44910   3.612   4.540   4.312  0.1374 -0.3124 -0.1048
28727W        W44911   8.415   0.887  15.322 -0.0414  0.2808  0.1791
28728W        W44912   1.867   4.536  12.011 -0.0067 -0.1823  0.0663
28729W        W44913   3.445  12.244   1.980 -0.3437 -0.2555  0.0796
28730W        W44914   2.076  14.820   6.067  0.3796  0.0873  0.2332
28731W        W44915   9.058   1.277   1.871  0.2783  0.1326 -0.1170
28732W        W44916  16.762   3.885   0.953 -0.0456  0.0797  0.2178
28733W        W44917  14.803  12.091   1.307 -0.0807  0.1575  0.1401
28734W        W44918   3.061  14.239   5.606  0.0665  0.0479  0.1012
28735W        W44919  14.915  16.656  16.762  0.1557  0.0845 -0.0709
28736W        W44920  16.952   4.568  16.252  0.1238  0.1469  0.0580
28737W        W44921  13.640   5.538  13.952  0.2873 -0.0978 -0.1264
28738W        W44922  12.933  12.040   4.748  0.0306  0.1439  0.3101
28739W        W44923  16.021  12.442   3.350 -0.2466 -0.0053 -0.2039
28740W        W44924  17.377  16.023  15.116  0.0323 -0.0037  0.2180
28741W        W44925   9.239  17.200   5.578 -0.0141  0.0139  0.3003
28742W        W44926  17.828   2.783   5.979  0.0992 -0.0743 -0.2114
28743W        W44927   9.688   2.530  16.453  0.0060 -0.0132  0.0054
28744W        W44928  13.797   3.134  12.290 -0.2236  0.1754 -0.1445
28745W        W44929  14.371  15.300  14.243 -0.0931  0.0286  0.1130
28746W        W44930   3.541   0.684   0.799  0.0466 -0.1367 -0.0485
28747W        W44931  13.530  17.552  12.248 -0.0210 -0.2962 -0.1103
28748W        W44932  10.271   4.019   5.359 -0.0401  0.1967  0.0614
28749W        W44933  15.552   3.419  16.151 -0.0365  0.2564  0.0323
28750W        W44934  13.894   6.605   3.028  0.1837 -0.2592  0.1536
28751W        W44935  10.194  11.207   2.531  0.0450  0.0025  0.2045
28752W        W44936   3.264   6.305  16.639 -0.0774  0.0091  0.0594
28753W        W44937  16.208   1.311  15.982 -0.2639  0.0066 -0.2928
28754W        W44938   2.196   5.288  15.917 -0.2227 -0.0084  0.0601
28755W        W44939   7.668   3.326   4.039 -0.1764 -0.1113  0.1182
28756W        W44940   1.838  11.032   5.341  0.2969  0.0385 -0.2607
28757W        W44941   7.728  13.272   0.130 -0.0995  0.0661 -0.2469
28758W        W44942   7.614  14.031  16.174  0.2737  0.0046 -0.2312
28759W        W44943  11.257   0.167   3.277  0.1635  0.0411 -0.0657
28760W        W44944   2.764  12.144   3.687 -0.1024 -0.2027 -0.0449
28761W        W44945   6.127   1.073   3.358  0.1864 -0.1900  0.1239
28762W        W44946   0.989  11.583  13.870  0.1872  0.2158  0.0963
28763W        W44947   8.991  17.025   4.793  0.1163 -0.2619 -0.0445
28764W        W44948   7.652  16.319   0.266 -0.1609  0.1627 -0.2391
28765W        W44949  17.268  10.357   2.180 -0.2285  0.1091  0.1356
28766W        W44950  17.884   7.656   5.216 -0.2523 -0.1270 -0.2801
28767W        W44951   3.911   5.832  12.752 -0.1106 -0.2450  0.4521
28768W        W44952   7.870  10.851   1.760  0.0576 -0.0201 -0.2065
28769W        W44953  16.366   9.120  12.382 -0.1011  0.2492 -0.0669
28770W        W44954  14.888   6.404   3.652 -0.0497 -0.0384  0.0520
28771W        W44955  17.059  15.332  11.534  0.2134  0.0725 -0.0797
28772W        W44956   3.431   1.751  15.200  0.0272  0.3228 -0.0915
28773W        W44957   7.494   9.760  14.301  0.0675  0.0146 -0.0691
28774W        W44958   3.171   0.093   2.729  0.0599  0.0125 -0.3847
28775W        W44959   5.878  17.504   3.313  0.2769 -0.5534 -0.3704
28776W        W44960   6.890   6.846   2.280 -0.3502  0.5529 -0.0412
28777W        W44961  10.267  11.512  12.483 -0.1194 -0.0879  0.0576
28778W        W44962   0.889   9.042   1.471 -0.1620  0.0409  0.0867
28779W        W44963  11.347  10.083  13.821  0.0590 -0.4294 -0.3447
28780W        W44964  12.308   3.157   2.351  0.0432 -0.3496  0.2789
28781W        W44965  15.555   6.896  15.449 -0.0322  0.2735  0.1193
28782W        W44966   6.956   4.338   0.586 -0.2407 -0.0399  0.2722
28783W        W44967   7.586   3.034  15.715 -0.3024  0.0228 -0.1056
28784W        W44968   3.408   4.070   1.013  0.0680 -0.2368  0.1915
28785W        W44969   9.257  13.190  13.425 -0.3858  0.0817  0.0688
28786W        W44970  14.562  14.035  12.940  0.0608 -0.2806  0.2433
28787W        W44971   1.413   5.115  13.591  0.3290  0.2730  0.1828
28788W        W44972  17.183   4.395   2.082  0.1362  0.0736  0.0116
28789W        W44973  10.011   8.424   6.092 -0.1758 -0.1389  0.3667
28790W        W44974   6.100   5.472  12.800 -0.1455  0.0268  0.2291
28791W        W44975  16.557  12.891   1.318 -0.1971  0.0930 -0.0543
28792W        W44976  12.787  16.229  16.110  0.0888  0.1227 -0.0915
28793W        W44977   5.513  15.390   0.236 -0.2759  0.0626 -0.2561
28794W        W44978  15.989  14.556   4.395 -0.0546  0.3043 -0.0670
28795W        W44979   9.489  15.726   3.798  0.0410  0.2673  0.1880
28796W        W44980   4.308   1.649  12.478  0.0995  0.1121  0.0180
28797W        W44981   5.780  11.627  15.594 -0.0565  0.3389 -0.0451
28798W        W44982   8.225   1.375   1.548  0.1284  0.0472  0.0309
28799W        W44983   9.539  12.659  15.976  0.1251 -0.1391  0.1372
28800W        W44984  10.868  16.931  14.427  0.0277 -0.0981 -0.1247
28801W        W44985  10.432   2.544   3.179 -0.0395 -0.0830 -0.0954
28802W        W44986  16.438  11.358  15.691  0.0874 -0.1548  0.2593
28803W        W44987  16.570  14.710   5.117 -0.1108  0.1573  0.0494
28804W        W44988   4.766   4.221   0.798 -0.3320 -0.2336  0.2896
28805W        W44989  14.095  14.568  15.051 -0.1585  0.2065 -0.2007
28806W        W44990   2.939   5.809  13.966 -0.1786  0.0069  0.2526
28807W        W44991   0.569  15.706   1.134  0.1226  0.0062 -0.1008
28808W        W44992  13.603   9.844  12.760 -0.1957 -0.1984  0.2645
28809W        W44993   0.416   9.681  15.070  0.0443 -0.1516  0.4466
28810W        W44994   2.783  17.856  14.271  0.1582 -0.1315  0.1568
28811W        W44995   2.382  12.714  14.150 -0.0879  0.2976  0.1514
28812W        W44996   5.529  17.111   4.738  0.1097  0.4977  0.0189
28813W        W44997  13.548  16.589   1.284 -0.0299 -0.2729 -0.1788
28814W        W44998  17.840   5.407   1.849 -0.1710  0.4729  0.1564
28815W        W44999  10.245   8.810   2.470  0.0455  0.0217  0.0366
28816W        W45000  14.457  15.557  12.933 -0.0321 -0.0193 -0.0927
28817W        W45001  16.016   3.412  12.964  0.0845  0.2144  0.1078
28818W        W45002   4.568   4.701   5.497  0.1641  0.2849 -0.3330
28819W        W45003  11.752   9.036  14.117  0.0722  0.2320  0.1384
28820W        W45004  16.275   7.732  13.609 -0.2869  0.0075  0.0981
28821W        W45005  12.385   8.120   5.806 -0.0125 -0.1626  0.0372
28822W        W45006   5.030   2.579  15.295  0.1124  0.1692  0.0092
28823W        W45007   0.780  16.024   5.584 -0.1069 -0.2800  0.0378
28824W        W45008   1.575   2.448  13.113 -0.0083  0.1606  0.0678
28825W        W45009  14.647  17.029   3.531  0.1589  0.1981  0.1382
28826W        W45010  11.734   0.372  13.282 -0.3436  0.1645 -0.2084
28827W        W45011  15.457  10.407  12.542  0.0344 -0.3674 -0.1847
28828W        W45012  17.778  12.954   1.786  0.1502 -0.1544  0.0077
28829W        W45013   2.700  14.322  11.697 -0.2234 -0.0015 -0.0986
28830W        W45014   9.524  17.002   4.284  0.1412 -0.0459 -0.3015
28831W        W45015  11.021   0.514  16.314 -0.1955 -0.0007 -0.2189
28832W        W45016   6.570   7.035   0.827  0.1260  0.2098  0.3739
28833W        W45017   0.324   9.594  14.512  0.0541 -0.1618 -0.1066
28834W        W45018  10.288  10.316  15.797  0.1233  0.1686  0.1011
28835W        W45019  17.010   2.697  16.619 -0.0263  0.1752 -0.1896
28836W        W45020  10.003   5.027   4.581  0.0222 -0.2878 -0.0139
28837W        W45021   7.371  11.190  13.057  0.0583 -0.1676  0.0155
28838W        W45022   4.392  13.141  14.907  0.3023 -0.0766 -0.0602
28839W        W45023   6.401   5.512   0.610  0.1255  0.1000  0.1201
28840W        W45024   3.501   1.197  15.395 -0.1797 -0.1447  0.0754
28841W        W45025   0.958   8.607  12.398 -0.2806  0.0958 -0.0150
28842W        W45026   8.236   7.748  13.470  0.0838  0.1858 -0.0619
28843W        W45027  14.988   1.985   2.703 -0.0846  0.1895  0.1064
28844W        W45028   4.435  17.351  12.977  0.0032 -0.0648 -0.1125
28845W        W45029  15.891   0.723  15.663 -0.0683  0.0476 -0.0758
28846W        W45030   4.945   4.671   0.225 -0.0334 -0.3976 -0.2454
28847W        W45031   2.577  14.203   1.744  0.0337  0.0579  0.1606
28848W        W45032  12.033  13.053   2.419  0.0968 -0.1524 -0.0298
28849W        W45033   2.172  15.818   4.154 -0.0216 -0.0655  0.0697
28850W        W45034  11.019  10.726  16.292 -0.0580 -0.0397  0.1136
28851W        W45035   3.506  12.479   1.180 -0.0471  0.1266 -0.1623
28852W        W45036  17.622   2.602  16.881  0.1742 -0.3335 -0.0087
28853W        W45037   8.924  15.307  16.549  0.1111 -0.2523  0.1282
28854W        W45038   0.903   7.387   5.403 -0.1064  0.1846  0.0633
28855W        W45039   8.110   9.934  15.434  0.0348 -0.0988 -0.1919
28856W        W45040   4.962   6.206   6.208  0.2938  0.1028 -0.1752
28857W        W45041   5.846  11.199  12.762 -0.0075 -0.0234  0.0070
28858W        W45042  15.327  17.842  13.626  0.1761  0.1321 -0.0629
28859W        W45043   2.368  11.831   5.332  0.0929  0.0250  0.2220
28860W        W45044  17.622   8.635  16.764  0.0598  0.1678  0.0284
28861W        W45045   8.726   2.527  15.022  0.2230 -0.2856 -0.0197
28862W        W45046   1.984  11.709  14.166  0.2365 -0.4726 -0.0381
28863W        W45047  17.358   8.672  14.175  0.2009  0.1047  0.1061
28864W        W45048   1.038   2.380   4.606  0.0456  0.1937 -0.1253
28865W        W45049   2.317   7.703   2.124 -0.0785  0.0812  0.0370
28866W        W45050  14.726   0.527  12.608  0.0287  0.2429 -0.1622
28867W        W45051   0.627   1.068  12.514 -0.0482  0.0009 -0.1576
28868W        W45052   7.635  12.602  15.097 -0.0902  0.1791  0.3076
28869W        W45053   3.896   2.330   1.136 -0.1838  0.1466  0.1381
28870W        W45054  11.870   4.878   4.246 -0.0146 -0.3523 -0.1145
28871W        W45055   6.177   3.183  15.234  0.2019 -0.0321  0.1850
28872W        W45056  12.703  17.619   1.443 -0.0991 -0.0463 -0.0691
28873W        W45057   2.641   7.156  14.833 -0.3120 -0.1114  0.1741
28874W        W45058   3.201   6.791   2.590  0.2373 -0.0956 -0.2104
28875W        W45059   5.788   7.210  12.327 -0.0117 -0.0045  0.1061
28876W        W45060  13.898   5.688   2.490  0.0531  0.3354  0.0170
28877W        W45061  13.420   3.268  14.049  0.0389 -0.1563 -0.3972
28878W        W45062  15.733   6.550  15.813 -0.3172  0.2282 -0.0536
28879W        W45063  16.598  10.787   0.418  0.0401 -0.0476  0.2025
28880W        W45064   8.955  13.321  15.171 -0.1065 -0.0425 -0.2470
28881W        W45065  15.062  14.997   5.252  0.1114  0.0653 -0.0577
28882W        W45066  15.645   0.608  11.701  0.0310 -0.2295 -0.4072
28883W        W45067   4.421   4.395   1.941 -0.0241  0.0359  0.2195
28884W        W45068  14.166   4.430  12.291  0.0253  0.3514  0.1197
28885W        W45069   1.424  10.490   4.121  0.0318  0.2307 -0.2850
28886W        W45070   2.412  15.910   0.644  0.0047 -0.1664  0.1224
28887W        W45071   9.049   4.936   5.405  0.5428  0.0996  0.1647
28888W        W45072   0.494   1.373  11.747 -0.0297  0.2406  0.0586
28889W        W45073   4.446  10.643   3.077  0.4326 -0.0598 -0.0546
28890W        W45074   3.720   8.611  12.069  0.1217  0.0971 -0.0552
28891W        W45075   0.104  15.266   3.474  0.0134  0.4143  0.1281
28892W        W45076   5.102  13.914   1.764 -0.4252 -0.1063 -0.0845
28893W        W45077   0.333  16.321   5.335  0.0652  0.0019  0.1689
28894W        W45078  12.806   3.521   5.749  0.1120 -0.0032  0.1377
28895W        W45079   0.651   2.834   5.405 -0.0432  0.1809  0.1353
28896W        W45080   7.985  17.413  15.999 -0.1333 -0.0984 -0.0609
28897W        W45081  14.092   7.044  14.780  0.2737  0.0201 -0.1751
28898W        W45082   5.460  11.504   0.161 -0.2061 -0.3500  0.1753
28899W        W45083   9.253  17.589   3.810 -0.1430 -0.4759 -0.0579
28900W        W45084   5.377   4.699   3.299 -0.1513  0.0511 -0.0646
28901W        W45085   1.030  13.498   1.516 -0.1911  0.1252 -0.0648
28902W        W45086   2.245   6.343   5.021 -0.0326  0.1149 -0.1638
28903W        W45087   4.666   4.499  14.634  0.1093  0.0078 -0.0587
28904W        W45088   6.189   8.132   2.092  0.0969 -0.1203 -0.0404
28905W        W45089   6.827  15.531   5.141  0.0725  0.0030 -0.1367
28906W        W45090   0.158  17.558   2.882 -0.0054  0.3014  0.2609
28907W        W45091   6.641  11.161  12.817 -0.1021 -0.1713 -0.0429
28908W        W45092  17.590  11.711  13.151 -0.1420 -0.0244 -0.1121
28909W        W45093   4.459  14.662   4.012 -0.1507 -0.1591 -0.2555
28910W        W45094   1.047   3.888  14.685 -0.3717 -0.2277  0.4079
28911W        W45095   7.633   5.596   0.692  0.1382  0.2762  0.1782
28912W        W45096   7.056  14.049  11.725  0.1949 -0.0442 -0.3522
28913W        W45097   9.889  13.672  12.453 -0.2713  0.1381 -0.2252
28914W        W45098   5.808   2.967  14.064 -0.1021 -0.1008 -0.0297
28915W        W45099   0.816  10.834  13.511 -0.1915 -0.0622  0.1083
28916W        W45100   7.675   0.772  16.523 -0.0832 -0.1653  0.1137
28917W        W45101  15.708   8.505   1.269  0.2176 -0.0180  0.3786
28918W        W45102  15.542   3.627   6.462  0.0320 -0.1148 -0.3345
28919W        W45103   0.112   8.102   0.441  0.2208 -0.0821 -0.1657
28920W        W45104  12.195  10.495   5.683 -0.1470 -0.3066 -0.0795
28921W        W45105  11.900   0.355  11.851  0.1349 -0.1444 -0.1222
28922W        W45106   1.260   0.253   1.720  0.1878 -0.1761  0.0403
28923W        W45107  16.559   1.747   0.750  0.2048  0.1056  0.0707
28924W        W45108  12.167  10.240   0.841  0.0187  0.0172  0.0894
28925W        W45109  12.129   8.323  16.689  0.0796 -0.1315 -0.1756
28926W        W45110   4.909   3.373   3.129 -0.0973 -0.0459 -0.0184
28927W        W45111   4.646  13.104  12.765 -0.2243  0.1090  0.0142
28928W        W45112   5.781   0.506  16.139  0.0124  0.2995  0.1240
28929W        W45113  16.892   6.198   5.070 -0.1451  0.0635 -0.2914
28930W        W45114  16.213   6.616   3.475  0.1391  0.0730  0.2142
28931W        W45115  12.524   6.737  14.195 -0.2859 -0.0077 -0.0638
28932W        W45116  10.320  17.024  12.111 -0.0687 -0.0574  0.2085
28933W        W45117  17.515   0.017  12.342 -0.1079 -0.0000 -0.0677
28934W        W45118  16.206   4.976   3.615 -0.3842  0.2887 -0.2722
28935W        W45119  12.225  15.399  14.559 -0.2088  0.0515  0.4315
28936W        W45120  16.924   5.061   4.862 -0.3350 -0.1798  0.0718
28937W        W45121   6.333   0.680  15.468  0.0591 -0.1160 -0.0505
28938W        W45122   7.431  14.168   3.917  0.0680  0.1630 -0.1806
28939W        W45123   8.709   4.673   4.520 -0.2486  0.0527 -0.0984
28940W        W45124  11.256  12.797   5.236  0.1196  0.1924 -0.1278
28941W        W45125  11.717  12.962   3.498 -0.1347 -0.0446 -0.3043
28942W        W45126  15.226   1.888  12.107 -0.2921 -0.0763  0.0567
28943W        W45127   8.626   2.554   2.758 -0.1414 -0.1290 -0.4241
28944W        W45128   7.176  11.760  13.764  0.0687  0.3253 -0.1243
28945W        W45129   2.893   6.790   5.446 -0.0853  0.0544  0.1665
28946W        W45130  13.755   4.816   1.331 -0.1779 -0.0425 -0.0277
28947W        W45131   1.481   8.624  13.630  0.2247  0.1187  0.2740
28948W        W45132   2.957   1.474   2.709  0.0763  0.1779 -0.1392
28949W        W45133  14.160   1.269   4.993 -0.1274 -0.2235  0.0675
28950W        W45134   9.483   8.795   4.301  0.1163  0.0812 -0.1261
28951W        W45135  17.014  14.161   0.791  0.0530 -0.2951 -0.1558
28952W        W45136   5.635   9.315   1.391  0.3434  0.0327  0.0027
28953W        W45137   7.203   3.501  11.911 -0.0692  0.2788  0.0711
28954W        W45138   6.361   4.873   3.561  0.1971  0.0735  0.1287
28955W        W45139   6.532   5.802   4.105  0.1674  0.0250 -0.0250
28956W        W45140   5.437  12.757  16.249 -0.1882 -0.0063 -0.1404
28957W        W45141   9.322   9.913  15.524 -0.2183  0.0097  0.0296
28958W        W45142   4.232   1.199  12.611 -0.1956 -0.3428  0.2080
28959W        W45143  17.629   0.727  16.873 -0.0775  0.1671  0.0498
28960W        W45144  11.932   5.750  14.754 -0.0219  0.0245  0.1207
28961W        W45145   8.827   0.913   1.117  0.3096  0.1700 -0.1586
28962W        W45146   5.785   5.461   2.328 -0.1300  0.0587 -0.0294
28963W        W45147  13.206  14.527   0.189  0.2853 -0.3534  0.2059
28964W        W45148   4.804  14.954   4.236  0.3781 -0.1824  0.1339
28965W        W45149  15.802  10.520  13.430  0.0561  0.0478  0.1496
28966W        W45150  12.922   9.673   1.103 -0.0942 -0.1028 -0.1615
28967W        W45151   0.508   6.162  16.830 -0.0585 -0.0723 -0.0250
28968W        W45152  15.994  16.926  11.633 -0.0415  0.3716 -0.3286
28969W        W45153  15.186   5.069   4.470 -0.0786  0.4983  0.2767
28970W        W45154   3.569  17.590   4.867 -0.1286  0.1318  0.1095
28971W        W45155   5.655   9.745   4.028 -0.1774 -0.0485 -0.1069
28972W        W45156   0.665  12.726   3.045  0.0505 -0.0331  0.0673
28973W        W45157  13.389   9.623   4.823  0.2945  0.2632 -0.0039
28974W        W45158  16.488   4.803   0.728  0.0906 -0.2800 -0.1814
28975W        W45159   7.260   0.304   5.759  0.0938 -0.0081  0.2150
28976W        W45160   0.249   0.654   3.580  0.0689 -0.3508  0.0032
28977W        W45161  16.256  14.314  16.623 -0.1465 -0.1135 -0.0382
28978W        W45162  17.027   1.844   3.955  0.3354  0.1233  0.1005
28979W        W45163  16.015   9.275  14.666  0.0001 -0.1244 -0.0767
28980W        W45164  15.696  11.282   5.026  0.0386  0.1599 -0.1873
28981W        W45165   8.652   2.513  12.388  0.3989  0.1846 -0.0402
28982W        W45166   4.072  16.500   2.657  0.0055  0.2731 -0.1589
28983W        W45167   4.256  11.580   2.481 -0.0543  0.4011  0.0322
28984W        W45168   2.725   9.113  14.991  0.2287 -0.1860  0.1457
28985W        W45169   5.918   7.741   0.714  0.0944  0.0018 -0.1087
28986W        W45170   7.957   9.194   3.482 -0.0215 -0.0049 -0.0625
28987W        W45171   8.443   1.735  12.652  0.0617 -0.1849 -0.0146
28988W        W45172  14.839   9.434   0.338  0.0556 -0.0223 -0.1990
28989W        W45173   0.247  16.005   0.058  0.0189 -0.1222 -0.4560
28990W        W45174  16.019   2.278  14.048  0.1910  0.2320  0.1905
28991W        W45175   5.351  10.529  12.275  0.0082  0.0422 -0.2561
28992W        W45176  15.663  17.022   0.115 -0.1542 -0.3134 -0.0183
28993W        W45177   9.844   3.018  12.624  0.3522 -0.0374  0.0649
28994W        W45178   5.833  12.310   2.409 -0.0558  0.1339  0.1167
28995W        W45179   2.709   6.374   4.010  0.3711  0.1584  0.4771
28996W        W45180   3.913  16.460   0.886 -0.1060 -0.1315  0.0084
28997W        W45181  15.843   3.731   2.151 -0.2179 -0.0475  0.0075
28998W        W45182   6.326   7.808  12.316  0.1760  0.3095 -0.0744
28999W        W45183  15.440   0.127  11.890 -0.1353  0.0183  0.1770
29000W        W45184  12.378  12.574   3.730  0.2235 -0.3669  0.0830
29001W        W45185  14.808   8.211  11.784 -0.2880 -0.0982 -0.2157
29002W        W45186   0.508   8.803   3.821 -0.2341  0.0230  0.0069
29003W        W45187  12.190  15.038  12.830 -0.0582  0.1534 -0.0265
29004W        W45188  15.124   1.630  12.488  0.1752  0.0635 -0.1227
29005W        W45189  11.126   3.359  14.919 -0.0454  0.0301 -0.0893
29006W        W45190   4.355   0.291  11.815 -0.0138 -0.1034  0.1345
29007W        W45191   9.459   1.261   0.922 -0.1300 -0.0434 -0.1503
29008W        W45192  11.009  11.640   2.401 -0.0897  0.2725 -0.0712
29009W        W45193  16.915  14.693   0.580  0.0720 -0.0903 -0.0508
29010W        W45194   4.500  12.706  13.490  0.1573  0.0797  0.4265
29011W        W45195   9.975   7.827   1.425  0.3015 -0.0632  0.2790
29012W        W45196  17.546   5.626  14.866  0.1437  0.0024  0.0624
29013W        W45197   2.843   8.836  13.254 -0.0943 -0.2423  0.3357
29014W        W45198   6.453   7.164   5.275  0.0561 -0.1177  0.0998
29015W        W45199  11.627  13.534  14.425  0.2607 -0.1486 -0.0275
29016W        W45200   5.401  14.515  10.690  0.0076  0.2905  0.1917
29017W        W45201  11.285   8.215   2.510 -0.1519 -0.0720  0.0400
29018W        W45202  15.631   7.342   2.250  0.0252 -0.0044  0.0213
29019W        W45203   0.175  17.336   4.482 -0.1142 -0.6074 -0.3130
29020W        W45204  14.572  15.472   0.286 -0.0838  0.1083 -0.0997
29021W        W45205  12.375  16.291   6.425 -0.1892  0.1390  0.4030
29022W        W45206  15.631   5.651  16.146  0.0008  0.0781  0.2211
29023W        W45207  12.589   2.809  15.997 -0.3886  0.1463  0.0251
29024W        W45208  16.845   9.472  13.596  0.0455 -0.0274  0.0408
29025W        W45209   0.903   0.214  14.353  0.0586  0.0302 -0.0399
29026W        W45210  11.663   4.075  13.900  0.0826 -0.1301  0.0248
29027W        W45211   5.950   5.412   4.867  0.2362 -0.1915 -0.1533
29028W        W45212  12.087  14.228  13.756  0.2475 -0.1237  0.2723
29029W        W45213   8.338  13.366  11.612 -0.0107  0.4747 -0.1807
29030W        W45214   4.670  16.282   1.833 -0.2358 -0.2373  0.3797
29031W        W45215   2.533  15.057  12.954  0.3090  0.1421 -0.1383
29032W        W45216   0.999  11.352   5.929  0.0210 -0.1905 -0.4225
29033W        W45217  15.195   6.086   4.578  0.0557  0.1143  0.0212
29034W        W45218   2.515   4.686  16.102 -0.0422 -0.2279 -0.1366
29035W        W45219   3.853  15.078   1.866 -0.4211  0.2242 -0.0199
29036W        W45220  16.911  14.158  15.297 -0.3648  0.1201 -0.0762
29037W        W45221  12.588   5.059  13.396 -0.0868  0.1211  0.3745
29038W        W45222   6.707   5.890   6.007 -0.1904 -0.2234 -0.1837
29039W        W45223  12.430  12.366  13.018  0.1587  0.2289  0.1175
29040W        W45224   9.846  16.741   3.707 -0.2818 -0.0376 -0.2006
29041W        W45225  17.619   6.173   0.047 -0.0300  0.2438  0.2283
29042W        W45226   9.326  14.818   4.319  0.1372  0.2277  0.1000
29043W        W45227   9.119  11.491   3.992 -0.0088 -0.0230 -0.1303
29044W        W45228  11.838   9.217   3.901 -0.2988  0.1266 -0.2178
29045W        W45229  13.082   4.379  13.161 -0.2976 -0.2006  0.0781
29046W        W45230   7.164  11.919  14.233  0.1274  0.2204  0.0636
29047W        W45231  16.824  15.595  16.815 -0.1829 -0.3247  0.0029
29048W        W45232  13.848   7.374   4.354  0.4837 -0.0443 -0.1277
29049W        W45233  12.324   0.917   5.895  0.2346 -0.0884  0.1000
29050W        W45234   8.882  11.691  14.516 -0.1574  0.0260 -0.0112
29051W        W45235  10.957   9.430   5.035 -0.2129  0.1180  0.1912
29052W        W45236   7.501  11.090   4.274 -0.0587 -0.0490  0.1331
29053W        W45237   7.287   9.619   2.776  0.1458 -0.2803 -0.0774
29054W        W45238   2.735  15.951  16.160  0.1714  0.1076 -0.1346
29055W        W45239  10.816   8.802  12.456  0.1332  0.0930  0.3498
29056W        W45240  15.457   8.325   0.845 -0.1967  0.3042 -0.2423
29057W        W45241  10.201  17.400  16.621  0.1076 -0.0682  0.0575
29058W        W45242  13.837   2.397  16.653  0.1449  0.2266  0.1237
29059W        W45243   2.270  15.729   4.759 -0.0274  0.0145  0.0964
29060W        W45244  15.898  10.089   3.967  0.0331 -0.3522 -0.0085
29061W        W45245  11.663  11.722   4.569  0.1850  0.1647  0.1799
29062W        W45246  14.623   6.471  12.102 -0.0259 -0.0389 -0.0210
29063W        W45247   3.945   1.550   1.625  0.2209  0.1148  0.2936
29064W        W45248   4.654  16.624   3.589 -0.0184 -0.0950  0.0683
29065W        W45249   6.331  16.972  14.056  0.1279 -0.0709 -0.0269
29066W        W45250  17.873   6.215   1.013 -0.1052  0.1654 -0.1590
29067W        W45251  10.956   5.534  13.897  0.0733 -0.0771  0.1087
29068W        W45252   4.236  16.105   0.499 -0.0227 -0.2431 -0.0325
29069W        W45253  10.769  13.706  13.853  0.0734 -0.0036 -0.0954
29070W        W45254   0.694   8.896  12.915  0.1583  0.3359  0.1194
29071W        W45255  10.379   9.020   0.170 -0.3145 -0.0708 -0.3096
29072W        W45256  13.658  15.055  14.235  0.1701 -0.0448 -0.0892
29073W        W45257   0.346   7.709   6.568  0.1052  0.0501  0.0972
29074W        W45258  13.016  15.547  15.094 -0.0037  0.2162  0.2231
29075W        W45259  16.458  16.790  16.596 -0.4093  0.0141  0.2384
29076W        W45260  14.843  15.513   2.388  0.0294  0.0561  0.0406
29077W        W45261   7.310   8.423  16.517 -0.1097  0.1389 -0.0158
29078W        W45262   5.071   2.976   0.521  0.1626  0.2198 -0.2309
29079W        W45263   4.326  12.263   5.298  0.1493 -0.1626  0.0453
29080W        W45264   6.340   1.431   4.150 -0.1020 -0.0513  0.2069
29081W        W45265   0.515  13.136   4.969  0.1364  0.1790  0.2531
29082W        W45266   2.756   3.323  13.639 -0.0276  0.0716  0.1235
29083W        W45267   2.701   6.216  15.828 -0.0108 -0.3086  0.3059
29084W        W45268   1.809   8.760   4.440 -0.0861 -0.0190  0.1275
29085W        W45269  12.515  10.864  13.147  0.1337 -0.0410  0.2467
29086W        W45270   5.894   7.084  12.954 -0.2203 -0.0268  0.0210
29087W        W45271   1.599  12.602  16.647  0.2768  0.3492  0.1455
29088W        W45272   6.819   6.189  13.573 -0.0633  0.3276 -0.3542
29089W        W45273   4.940   8.681  15.629 -0.0289  0.0421  0.0743
29090W        W45274   1.714  12.727  15.520 -0.0804  0.1630  0.0248
29091W        W45275   3.074  11.846   6.173  0.0319  0.0000  0.1016
29092W        W45276  11.811   0.066  14.111  0.2762  0.1814  0.0881
29093W        W45277  10.420  14.458   0.633 -0.0091  0.1093  0.3216
29094W        W45278   3.257  12.041   0.878  0.0636 -0.0288  0.0680
29095W        W45279  14.656  10.971  14.625  0.0837  0.0273 -0.0032
29096W        W45280   3.826   0.608  13.902 -0.3193 -0.0939 -0.1348
29097W        W45281  15.799  16.164  12.988  0.2475  0.1189  0.1984
29098W        W45282  16.419  16.181   5.569  0.1200 -0.1143 -0.0152
29099W        W45283  10.479  16.542  14.398 -0.0097 -0.2694  0.2112
29100W        W45284   1.966  15.256  11.328 -0.1661  0.0641  0.1580
29101W        W45285  11.771  10.431   5.371 -0.1580  0.1469  0.2131
29102W        W45286  16.858   2.793  12.645 -0.0246 -0.1349 -0.1339
29103W        W45287  12.412   6.200   6.290 -0.1463 -0.2669 -0.0328
29104W        W45288   7.477   4.841   0.288 -0.0546 -0.0258 -0.0369
29105W        W45289   3.992   8.135   2.563  0.0927  0.1342 -0.0510
29106W        W45290   7.786   9.537  14.637  0.1061 -0.1045  0.0415
29107W        W45291   6.936   5.388   5.408  0.0942  0.0923 -0.0796
29108W        W45292   0.938   6.297  15.904  0.0955 -0.0161  0.3765
29109W        W45293  14.280   0.906   2.364 -0.2430  0.1653 -0.0022
29110W        W45294   7.607  10.571   0.992 -0.1846 -0.2551  0.0685
29111W        W45295   7.644   4.996  14.917  0.0166  0.1461 -0.0606
29112W        W45296   3.896   0.372  11.577 -0.1429 -0.1873 -0.2141
29113W        W45297  10.438   5.064  13.154  0.0154  0.1256 -0.0421
29114W        W45298   4.181   8.596   2.243  0.1433  0.0985 -0.2631
29115W        W45299  14.305  11.566   2.948  0.0327 -0.1212  0.1053
29116W        W45300   8.553  17.225  14.324  0.1795 -0.2770  0.1957
29117W        W45301  12.717   8.316   2.866  0.1214 -0.1794  0.1407
29118W        W45302  11.870   2.084   5.787  0.1858 -0.1446  0.0902
29119W        W45303  15.988   9.980   0.679  0.0255 -0.0480 -0.1260
29120W        W45304  10.066   6.484  13.061  0.0755 -0.1953  0.1518
29121W        W45305  17.645  14.650   3.156 -0.0323 -0.0310 -0.0594
29122W        W45306  17.870  10.302  13.907  0.1845  0.2650 -0.2099
29123W        W45307  10.555   2.628   1.282 -0.2911 -0.2111 -0.0728
29124W        W45308   8.558  12.996   0.131  0.0014 -0.0583  0.0675
29125W        W45309   9.857   9.462   3.966 -0.1433 -0.0270  0.1584
29126W        W45310  15.063   9.193  13.877 -0.0352  0.1554 -0.2773
29127W        W45311   1.340   4.665  16.403  0.0039 -0.0059 -0.1049
29128W        W45312   8.716  14.725  14.385  0.2006  0.1713  0.0511
29129W        W45313   8.940   0.783   1.615 -0.0013  0.0187 -0.3784
29130W        W45314   5.557  12.158  14.236  0.2885 -0.1351  0.1684
29131W        W45315   2.919   7.239  14.348 -0.0815  0.3009  0.3915
29132W        W45316  11.681   6.654   6.120  0.0037 -0.1648  0.0116
29133W        W45317   5.281  10.961   3.460 -0.0766  0.1487 -0.0313
29134W        W45318  17.737  11.956   4.838  0.0377  0.2495  0.0775
29135W        W45319  11.072   7.740   5.578  0.0200 -0.0423 -0.0263
29136W        W45320   9.386   9.749   1.543 -0.0504 -0.0610 -0.2312
29137W        W45321   8.869   0.262   1.514  0.1807  0.1812 -0.1445
29138W        W45322  13.664  10.907   0.151 -0.0847  0.0021 -0.3898
29139W        W45323  14.017   0.893   5.998 -0.1486  0.1170 -0.0180
29140W        W45324   9.816  15.887  14.444  0.1257 -0.2346  0.0753
29141W        W45325   0.775   5.943  16.444 -0.1641 -0.2537  0.0190
29142W        W45326   5.229   3.752  16.689 -0.0914  0.0781  0.0998
29143W        W45327   7.926   0.811   3.727 -0.2091  0.0120  0.1166
29144W        W45328   0.632   9.084  15.988 -0.2297 -0.1380  0.0535
29145W        W45329   4.643  13.622  13.402 -0.2163  0.0183  0.0070
29146W        W45330  11.004   4.299  12.484 -0.1420  0.2863  0.3056
29147W        W45331  14.440   1.667   4.932  0.0056 -0.3066  0.0103
29148W        W45332  14.987   1.969  16.058 -0.2134 -0.4918 -0.1452
29149W        W45333  14.931   7.960  13.096  0.1385  0.0683  0.0584
29150W        W45334   0.676   1.824   4.154  0.1097  0.1015  0.1359
29151W        W45335   2.818  10.022  16.587 -0.0427 -0.1453 -0.3997
29152W        W45336  11.609   0.124   2.982 -0.3523  0.0643  0.0419
29153W        W45337   8.508  11.290   0.259 -0.0781 -0.0996  0.0064
29154W        W45338  10.066   6.719   2.400  0.0955  0.1253 -0.0687
29155W        W45339  11.761  14.018  14.546  0.1023 -0.0183 -0.0538
29156W        W45340  11.686   9.247   2.468  0.0885  0.0896  0.0158
29157W        W45341  13.692  10.658   1.025  0.0388 -0.2213 -0.2872
29158W        W45342   2.313   5.643   5.835  0.0774 -0.0082 -0.3142
29159W        W45343  12.288  10.520  12.288  0.0840 -0.0188 -0.1115
29160W        W45344   0.860   4.506  12.372 -0.3164  0.0544  0.2154
29161W        W45345   5.601   6.203   3.108  0.0967 -0.1217 -0.0866
29162W        W45346  11.576  15.741   4.192  0.0540  0.0311 -0.0344
29163W        W45347  10.347   8.597   0.443 -0.1967 -0.0293  0.1410
29164W        W45348   9.046  17.759  16.869 -0.3815  0.1122  0.2655
29165W        W45349  13.596  17.720  14.941  0.0604 -0.0712 -0.0180
29166W        W45350  14.301  13.707   0.819  0.0145 -0.0871 -0.0321
29167W        W45351  11.729  16.854   0.617  0.2057 -0.0314  0.0672
29168W        W45352  12.515   7.377   2.062 -0.0711 -0.0235 -0.5082
29169W        W45353   6.293   9.527   5.151 -0.2925  0.0933 -0.0488
29170W        W45354  12.488  13.323  13.962  0.2809 -0.0403 -0.0700
29171W        W45355  10.684   2.255   2.787  0.1610  0.2793 -0.1696
29172W        W45356  15.318  14.171  16.774 -0.4457  0.3515  0.2527
29173W        W45357   2.522   1.349   0.023 -0.1623 -0.1235  0.2706
29174W        W45358   1.455   9.966  16.096 -0.0460  0.1697 -0.0423
29175W        W45359  11.963   7.431  12.353  0.0055  0.0741 -0.0582
29176W        W45360   9.409   7.321  14.971 -0.0902 -0.2248 -0.0179
29177W        W45361   0.690  17.146   3.987  0.1244  0.0036  0.2042
29178W        W45362  17.469   0.306   1.019 -0.1774 -0.3439 -0.2545
29179W        W45363  11.300  12.394   2.328 -0.1268 -0.0520 -0.0523
29180W        W45364  15.498  14.398  15.890 -0.1615 -0.0258  0.3294
29181W        W45365  13.303   1.119  13.026 -0.2334  0.1242 -0.4454
29182W        W45366   1.835   0.109  12.139  0.1157  0.2591 -0.3206
29183W        W45367  14.619   8.697  14.756  0.0522  0.2899 -0.0255
29184W        W45368   7.370   5.181  13.570 -0.3642  0.0450  0.0617
29185W        W45369   1.116  10.765  11.722  0.2588 -0.3253  0.0822
29186W        W45370   1.456   4.058  15.461  0.0237  0.2915 -0.0109
29187W        W45371  12.730   2.300   4.385  0.2381  0.0828 -0.4476
29188W        W45372   6.000   1.757  16.761  0.2535 -0.1000 -0.1911
29189W        W45373   6.583  12.364   2.533  0.2809 -0.1548 -0.0902
29190W        W45374  15.713  12.061   3.465 -0.2587 -0.0230  0.0837
29191W        W45375  14.568   6.073  12.946 -0.0308  0.2221 -0.0614
29192W        W45376  13.759  14.559   2.055  0.0348 -0.1138 -0.0873
29193W        W45377  15.832   2.280   1.996 -0.0807  0.1054 -0.0974
29194W        W45378  17.332  10.863   1.925 -0.0340  0.3057  0.1756
29195W        W45379  12.400  15.052  13.612 -0.0954  0.2581  0.2963
29196W        W45380   5.328   5.781   4.263  0.1441 -0.1348  0.1447
29197W        W45381   7.708   4.706   4.006 -0.0894  0.1390  0.1081
29198W        W45382   4.733   7.194  15.856  0.2838  0.4060  0.2044
29199W        W45383  11.784  15.125   4.382  0.1838 -0.0124  0.1836
29200W        W45384  17.642  10.902   3.829  0.0182  0.0075  0.2719
29201W        W45385   1.398   4.946  13.132 -0.0762 -0.0778  0.2353
29202W        W45386   5.674   1.383  11.743 -0.1472 -0.0043 -0.1345
29203W        W45387  10.064  13.806   4.842 -0.1359 -0.2631 -0.0736
29204W        W45388   8.221  15.650   1.923  0.1683 -0.1733  0.1240
29205W        W45389   7.510  11.879   3.627  0.1692 -0.0157 -0.0706
29206W        W45390  17.146  10.502   6.112 -0.4655  0.2506 -0.3079
29207W        W45391   2.089  15.551  16.792  0.0544  0.3705 -0.0480
29208W        W45392   0.263   2.611  12.311  0.2573 -0.1195 -0.3239
29209W        W45393  12.064   8.307  14.530  0.3278  0.2791  0.2993
29210W        W45394  13.810   9.923   5.925 -0.0933 -0.2022 -0.1342
29211W        W45395  16.634  17.189   4.686  0.2118  0.1110  0.0661
29212W        W45396   3.310   4.040   2.757 -0.1655 -0.0787  0.1486
29213W        W45397   5.197  17.011   4.335  0.0306 -0.0279 -0.1633
29214W        W45398  16.688   3.591  15.666  0.0622 -0.2736  0.1840
29215W        W45399   9.146  12.311   0.795  0.2979 -0.1881  0.3039
29216W        W45400  17.829   6.109  13.496  0.1197 -0.2672  0.2638
29217W        W45401  17.632  16.758   0.282  0.3898 -0.2138 -0.1853
29218W        W45402   6.028  15.797  15.338 -0.0259 -0.1506 -0.1392
29219W        W45403   2.459   2.864   5.966 -0.0633 -0.0886 -0.0291
29220W        W45404   9.611  12.458   2.670 -0.1835 -0.0153 -0.1467
29221W        W45405   8.200   2.330  12.675 -0.0190  0.1132 -0.0835
29222W        W45406   2.567   7.577  12.409 -0.1160  0.0511  0.0615
29223W        W45407   9.494   6.699   1.213 -0.0861 -0.0271  0.0857
29224W        W45408  10.423  17.660   2.047 -0.0145  0.1901  0.0410
29225W        W45409  11.359  10.140   5.400 -0.2584  0.0939  0.1510
29226W        W45410  17.749  11.182  12.093 -0.2847  0.2908 -0.1334
29227W        W45411  11.914   6.202   4.804  0.1099  0.2003  0.2253
29228W        W45412  14.476   2.029  12.899  0.0861  0.0475  0.0763
29229W        W45413   4.658   4.705   1.612 -0.0827 -0.1234  0.0573
29230W        W45414   1.674   0.095  14.663  0.1122 -0.2949  0.1127
29231W        W45415   6.087   2.591  16.609 -0.2087  0.1702 -0.0900
29232W        W45416  13.501   9.602  14.656 -0.0340 -0.0383  0.2398
29233W        W45417   4.214  16.627  14.225 -0.2092  0.2837  0.0359
29234W        W45418   5.970   2.050   1.390 -0.3585  0.0521  0.0937
29235W        W45419   7.751  15.363  12.093  0.0597  0.0083  0.2600
29236W        W45420  17.321   8.416   1.495 -0.0543 -0.1219 -0.0885
29237W        W45421   0.069  12.927   0.118  0.1314  0.2990 -0.1036
29238W        W45422  17.227   7.003   6.319  0.1036  0.2384 -0.1360
29239W        W45423   7.929   8.201   5.296  0.2974 -0.1792 -0.0933
29240W        W45424  13.567   5.434   0.166 -0.1435  0.1466 -0.0102
29241W        W45425  17.011   0.643   0.925 -0.3422  0.0614  0.1497
29242W        W45426  16.310  10.964   4.133 -0.0335  0.1041  0.2812
29243W        W45427   4.408   2.768  15.089  0.5289  0.2400 -0.0411
29244W        W45428   3.377   5.073   4.498  0.0745  0.3339  0.1905
29245W        W45429   4.486   4.769   4.510 -0.2840  0.0758  0.2016
29246W        W45430  12.360   3.871   4.699 -0.2251 -0.0245 -0.2527
29247W        W45431   5.247   3.723  16.182  0.1845  0.1476 -0.1715
29248W        W45432  15.456  16.518   1.208  0.3629 -0.0572  0.4160
29249W        W45433   6.770   1.101   2.105  0.2208  0.2557  0.1199
29250W        W45434  14.529  15.649   3.144 -0.0889  0.0663  0.2727
29251W        W45435   9.856   2.554  13.517  0.5129 -0.0044 -0.1789
29252W        W45436   2.168   7.596   6.495 -0.1506 -0.1330  0.1610
29253W        W45437   1.716  13.985   1.417 -0.2335 -0.0878 -0.0567
29254W        W45438  11.536  16.437  16.629  0.0427  0.2867 -0.3873
29255W        W45439  12.254  14.234   0.152 -0.0009 -0.0003 -0.1572
29256W        W45440  11.444  16.473   1.421 -0.3098  0.0146 -0.1861
29257W        W45441   2.132  13.163   5.713  0.0019  0.3513  0.2041
29258W        W45442   0.441  14.475   4.916 -0.1653 -0.0667  0.1025
29259W        W45443   3.101  12.431   3.466 -0.0970 -0.1936  0.2385
29260W        W45444  15.050   3.815  12.126  0.1753 -0.1000  0.0717
29261W        W45445  14.431  15.838   5.722 -0.0596 -0.1257  0.1973
29262W        W45446  17.691  17.472  15.105  0.1369  0.0856  0.2406
29263W        W45447   5.214   6.653   1.084  0.0960  0.0077  0.1245
29264W        W45448   5.011  16.286   3.814 -0.0382  0.1722  0.0566
29265W        W45449   5.656   4.374   0.004 -0.0441  0.2204 -0.1968
29266W        W45450  14.451  11.759   4.735 -0.2438 -0.2250  0.2098
29267W        W45451   3.916   0.712   1.693 -0.1863 -0.1377  0.0653
29268W        W45452  14.006   0.205  16.503  0.0265  0.0155  0.2253
29269W        W45453  10.578   8.363  14.643 -0.0698  0.2140  0.0556
29270W        W45454  14.426   2.958   0.740 -0.0252 -0.0326 -0.0007
29271W        W45455   7.359  15.534   3.034  0.1914 -0.0778 -0.0002
29272W        W45456  12.571   4.755  15.310 -0.0767  0.1722 -0.5034
29273W        W45457   7.861  16.535  13.466  0.0445 -0.2096 -0.3929
29274W        W45458  17.807   0.414   1.393  0.2421 -0.3102  0.0313
29275W        W45459   2.751   5.371   4.995 -0.0611 -0.1974 -0.0300
29276W        W45460   6.493   0.449   5.532 -0.3860 -0.0321 -0.0191
29277W        W45461  16.279   8.324  11.903  0.3910 -0.1124 -0.3928
29278W        W45462   8.279   1.800  14.359  0.0929  0.1530 -0.0861
29279W        W45463  17.778   7.215   1.884 -0.0224  0.1921 -0.4172
29280W        W45464   4.174  15.773   2.350 -0.2690  0.0511  0.1270
29281W        W45465   9.689  13.175  13.701  0.0723 -0.2936  0.1379
29282W        W45466  11.139  13.603   3.470  0.0330 -0.2891 -0.2017
29283W        W45467   5.767   5.662  13.836 -0.0951 -0.0865 -0.0403
29284W        W45468   8.147  10.488  16.473  0.1808 -0.0169 -0.2534
29285W        W45469   4.862  17.787   0.960  0.2188 -0.2527 -0.0126
29286W        W45470  10.128  14.472   1.291 -0.1298  0.0267  0.0218
29287W        W45471  13.462  14.288   5.965 -0.0599  0.0708  0.0573
29288W        W45472  14.993  10.678  12.375  0.3418  0.1365  0.1647
29289W        W45473  13.393  16.888  11.804  0.0378  0.3694  0.2420
29290W        W45474  15.343  14.593   5.153  0.0481  0.0622  0.4072
29291W        W45475  12.486   2.179   1.160 -0.0004  0.0532  0.1082
29292W        W45476  15.793   0.396   5.474  0.0872  0.3595 -0.0862
29293W        W45477  11.411  10.877  14.067 -0.0641 -0.1787  0.0461
29294W        W45478   5.065   0.625   2.691 -0.0647 -0.1546 -0.0378
29295W        W45479  13.386   6.964   1.617  0.2079 -0.1592  0.0940
29296W        W45480   5.568   8.140  15.905 -0.1694 -0.2578  0.1261
29297W        W45481   2.677  14.096  12.169 -0.0844  0.1107  0.2319
29298W        W45482  10.598   0.373  16.124  0.0648  0.1452  0.0391
29299W        W45483   9.356   0.880   1.314  0.1584  0.1569  0.0566
29300W        W45484  13.552   2.714  15.400  0.1646  0.2709 -0.1405
29301W        W45485   5.464  13.994  14.346 -0.0495  0.2119 -0.0655
29302W        W45486   5.403   7.403   3.028 -0.0587  0.0865 -0.1600
29303W        W45487   3.715   9.763   4.971  0.2309  0.1597  0.1385
29304W        W45488   5.253  17.766  14.933 -0.0457 -0.2048  0.0595
29305W        W45489   0.287  10.035   0.088 -0.2544 -0.0403  0.3929
29306W        W45490   5.819  14.246  11.022  0.1119  0.1968  0.2262
29307W        W45491  17.458  11.421   2.825  0.3276 -0.1905 -0.0342
29308W        W45492   1.943   5.103   1.769  0.0350 -0.0386  0.0340
29309W        W45493   7.282   4.995   3.257 -0.1663  0.0769  0.3147
29310W        W45494  15.789  10.207  14.528 -0.2317  0.0313 -0.0655
29311W        W45495   4.772  15.438   4.430 -0.1019  0.0397 -0.0921
29312W        W45496  12.974   6.292   2.544  0.0496  0.2270  0.0141
29313W        W45497  14.150   7.752   0.307  0.0052 -0.1275 -0.0154
29314W        W45498   4.268   4.023   4.921 -0.1268 -0.1603  0.1640
29315W        W45499   1.559   5.544   0.806 -0.1430 -0.0480 -0.2866
29316W        W45500  17.656  13.953   0.352 -0.0589  0.3892 -0.1965
29317W        W45501  11.272   2.111  13.750  0.2095  0.0577 -0.0761
29318W        W45502  15.749   9.815   1.086  0.2370  0.2032  0.3525
29319W        W45503  11.344   8.122  12.653 -0.4367  0.2012 -0.0974
29320W        W45504  17.594  14.547  13.836  0.0781 -0.1492 -0.3296
29321W        W45505   9.303   7.120   1.023  0.0013 -0.2436  0.0484
29322W        W45506   9.149   5.580  12.738 -0.0070 -0.1843  0.1415
29323W        W45507   2.317  11.291   3.435 -0.1617 -0.1378  0.1411
29324W        W45508   5.011  17.008   0.291  0.0003 -0.0441  0.0513
29325W        W45509  16.024   8.245  15.489 -0.2492  0.3554 -0.1264
29326W        W45510   2.754   5.537   2.136  0.0758  0.1798  0.2068
29327W        W45511   7.539  17.192   0.037 -0.0179  0.0113  0.0646
29328W        W45512  17.473  11.397  15.890 -0.3183  0.1623 -0.1399
29329W        W45513   2.803   9.859   0.613  0.1542  0.0120 -0.0379
29330W        W45514  17.269  17.827   2.621 -0.1524  0.1270  0.1807
29331W        W45515   6.401   0.540   2.599 -0.0280  0.1339 -0.1242
29332W        W45516   7.480   6.019   4.306  0.2064 -0.0829 -0.2253
29333W        W45517   3.792  11.346   2.211 -0.1536 -0.4028  0.5014
29334W        W45518   4.203   9.225   3.194 -0.1297 -0.1573  0.0575
29335W        W45519  11.612  14.903  12.207 -0.0997  0.1129 -0.1312
29336W        W45520  15.856   0.245  16.517  0.0245 -0.3729  0.1186
29337W        W45521   2.421  16.396   2.669 -0.4755  0.0109 -0.1037
29338W        W45522  13.476  11.096   1.308  0.0717  0.1574  0.2609
29339W        W45523   9.951  13.895   2.549 -0.0319 -0.0465  0.0733
29340W        W45524   5.010   7.666   3.858  0.1315 -0.2868 -0.0593
29341W        W45525  15.101   4.801   2.371 -0.1792 -0.0459 -0.0401
29342W        W45526  10.891  14.869  11.723  0.1613  0.2615  0.2028
29343W        W45527  10.584  15.309   3.910 -0.2118  0.1419 -0.1866
29344W        W45528   3.862   5.774   5.113  0.1177 -0.0899 -0.2457
29345W        W45529  12.405  10.015  15.983  0.2096 -0.0126 -0.1984
29346W        W45530   1.676  16.520  15.001 -0.3657 -0.1416 -0.1317
29347W        W45531  15.856  10.883  14.288 -0.1007  0.0671 -0.0962
29348W        W45532   3.778   4.547   0.392 -0.2100  0.2012 -0.2582
29349W        W45533  12.960  14.778   3.850  0.1732  0.0615 -0.0584
29350W        W45534  14.200   3.059  16.357  0.1230 -0.0423  0.1178
29351W        W45535   9.081   4.049   1.009 -0.2275 -0.0370 -0.2766
29352W        W45536   1.184   3.191   1.918 -0.3109 -0.0543 -0.0471
29353W        W45537  11.700  14.381   5.618 -0.0216 -0.3997 -0.1871
29354W        W45538   1.626   2.817  13.496  0.0043 -0.0144  0.0546
29355W        W45539  13.754   8.946  12.831  0.4409  0.4189 -0.0864
29356W        W45540  11.777   4.712  12.796 -0.0953 -0.0073 -0.0123
29357W        W45541  14.396  17.565  14.251 -0.0572  0.2832  0.1905
29358W        W45542   9.758  15.674   4.877 -0.1290 -0.1783  0.0570
29359W        W45543   6.732   9.227   5.292 -0.1133 -0.1686  0.0001
29360W        W45544  15.303  10.242  14.852  0.1105 -0.0417 -0.0398
29361W        W45545   9.526   0.924  12.336  0.4248  0.1976 -0.0286
29362W        W45546   2.564  10.737   1.426  0.1546  0.0812  0.0480
29363W        W45547  16.192   0.318  15.828  0.3673 -0.1453  0.0837
29364W        W45548   4.295   1.367   1.288  0.1406  0.1329  0.1158
29365W        W45549  17.630   8.414  16.278  0.2380  0.1056 -0.0568
29366W        W45550   4.824   7.988  12.063 -0.0515 -0.0854 -0.0780
29367W        W45551  12.833   1.137   0.717  0.0006 -0.1858 -0.5363
29368W        W45552  16.454   6.400  12.786  0.1285  0.2016  0.1458
29369W        W45553   8.856   1.245  15.274  0.0472  0.4008  0.1072
29370W        W45554  12.376   5.420  13.130  0.1024 -0.2960  0.1221
29371W        W45555   3.501   3.583  15.575  0.0361 -0.1515 -0.0170
29372W        W45556  16.201  16.358  11.614  0.2181 -0.2440 -0.1192
29373W        W45557   9.404   5.160   0.872 -0.1324 -0.1621  0.0409
29374W        W45558   0.802   6.720   4.462 -0.2014  0.3950  0.1369
29375W        W45559   3.389  12.852   2.933 -0.0048  0.1127 -0.1060
29376W        W45560   2.280  11.764   2.356  0.2274  0.1682 -0.0596
29377W        W45561  13.429   1.665  11.681 -0.0608  0.1231  0.0484
29378W        W45562   2.050  10.757   2.115  0.3483  0.2967 -0.0996
29379W        W45563   8.063  10.841  15.030  0.0204  0.1698 -0.2925
29380W        W45564  14.376   0.455  14.374 -0.1408 -0.1991 -0.1981
29381W        W45565  11.409  16.649  12.288  0.1682 -0.2723 -0.0812
29382W        W45566   4.436  12.128   3.317 -0.0189  0.1613  0.0140
29383W        W45567   1.566   7.869  16.152  0.0937 -0.2434  0.1242
29384W        W45568  12.459   9.303   2.720 -0.3064 -0.1230  0.0271
29385W        W45569  11.280   9.239  14.178  0.2056  0.0601 -0.0218
29386W        W45570  14.190  10.140  11.948  0.0916 -0.1789  0.2844
29387W        W45571  17.452  14.712   4.519  0.2537 -0.1467  0.1000
29388W        W45572   6.385  14.932   3.562 -0.1446  0.1869  0.2811
29389W        W45573   7.006   2.491   4.245 -0.3246  0.0524 -0.0497
29390W        W45574   6.287   4.651   6.123  0.0347  0.1181  0.1006
29391W        W45575   5.748   1.475   4.925 -0.2729 -0.0916 -0.1477
29392W        W45576   5.657   2.393  14.663 -0.1024 -0.3826  0.3808
29393W        W45577   9.486   3.375  11.880  0.0022 -0.0531  0.3020
29394W        W45578   6.280   0.410  16.213 -0.0249 -0.0446  0.0020
29395W        W45579   4.556   2.514  16.718  0.3939  0.0743 -0.0705
29396W        W45580  14.021   2.078  14.899  0.1284 -0.3362  0.1983
29397W        W45581   9.533   6.240  11.776  0.1976 -0.0089 -0.1740
29398W        W45582   4.827  12.418   4.094  0.0151  0.1126 -0.1576
29399W        W45583   7.815   5.561   2.180  0.3093  0.0145 -0.0140
29400W        W45584  13.555  10.745  15.118 -0.0184 -0.1551  0.0014
29401W        W45585  15.428  11.147   3.405 -0.0814 -0.2934  0.0367
29402W        W45586  14.070   6.047  15.887 -0.1387 -0.3568 -0.1132
29403W        W45587   0.469  17.193   2.656 -0.2537  0.3489 -0.2092
29404W        W45588   1.175   3.181   1.262  0.1103  0.0968  0.1908
29405W        W45589  15.668  12.818   0.790 -0.1738 -0.0360 -0.2185
29406W        W45590   5.771  11.749  12.389  0.2514 -0.1833 -0.0818
29407W        W45591   7.813  13.493   1.681  0.1297  0.3264  0.1913
29408W        W45592   7.089  15.107   5.524 -0.1190  0.2046  0.0737
29409W        W45593  15.915  15.405   1.489  0.0524  0.1141  0.0244
29410W        W45594  10.853  17.491   3.714 -0.2794  0.0479  0.4752
29411W        W45595   6.222   6.060  12.930  0.0356  0.0606  0.0612
29412W        W45596  10.507  16.053  14.145 -0.0076  0.2075  0.1221
29413W        W45597   5.812  13.814  13.314 -0.1701  0.0152  0.3171
29414W        W45598  12.057   8.602  14.098 -0.0927  0.0113  0.3722
29415W        W45599  14.902   2.810  16.362 -0.1332 -0.1828 -0.0320
29416W        W45600   4.616   5.258   4.615 -0.0232  0.1675 -0.1112
29417W        W45601  14.216  12.543  14.674  0.1410  0.0331  0.1438
29418W        W45602   4.998   5.763  16.851  0.3062  0.2827  0.0906
29419W        W45603  12.601  17.753  12.696  0.0528  0.1485 -0.1937
29420W        W45604  14.411  10.251  13.155 -0.1063 -0.0254  0.2757
29421W        W45605  11.692   6.043   3.697 -0.2391 -0.2591 -0.3220
29422W        W45606   4.978   8.378  12.431  0.0234  0.2249 -0.0167
29423W        W45607   6.207   9.186   0.720  0.1517  0.1432  0.0426
29424W        W45608   8.381  10.432  14.201 -0.1438 -0.2378  0.2535
29425W        W45609  15.273   6.577   4.468 -0.0473 -0.0057 -0.2536
29426W        W45610   6.370  14.953  12.545 -0.1094 -0.1177 -0.3115
29427W        W45611  15.685   2.372  16.243 -0.3740  0.0858  0.1258
29428W        W45612  16.471  11.366  14.617 -0.4127  0.1536 -0.0253
29429W        W45613  17.492   7.653   0.915 -0.2667  0.1573  0.1344
29430W        W45614  11.349   2.852   5.753 -0.3091  0.0676 -0.3915
29431W        W45615  12.873   4.650  13.538 -0.0797 -0.0112  0.2141
29432W        W45616  14.905   3.160  14.480 -0.1576 -0.3290  0.3576
29433W        W45617   8.551   0.212  13.634 -0.0784  0.2414  0.0974
29434W        W45618  11.465  15.595  15.906  0.1148  0.2437 -0.0971
29435W        W45619  10.603  13.574   4.106 -0.0993  0.0006  0.4336
29436W        W45620  10.418  16.666  16.710  0.1072 -0.2603  0.1063
29437W        W45621   6.344   1.429   0.191  0.0298 -0.0275  0.1082
29438W        W45622   2.254   6.289   0.736  0.0346 -0.2179 -0.0476
29439W        W45623  16.879  12.648  15.351 -0.0863 -0.0021 -0.1517
29440W        W45624  12.862  17.746   0.932 -0.0547  0.2961 -0.1028
29441W        W45625   3.931   1.740   2.575 -0.1499 -0.0569  0.1910
29442W        W45626  11.369   2.782  11.944 -0.4647 -0.1661 -0.0099
29443W        W45627   1.652   5.639  13.604 -0.0233 -0.0344  0.2432
29444W        W45628   1.948   2.289   5.440  0.3218  0.3866 -0.0791
29445W        W45629  17.350  13.767  14.034 -0.2010 -0.2585 -0.0144
29446W        W45630   0.688  11.682   4.417 -0.2456  0.2133  0.2885
29447W        W45631  14.818  12.899   4.020 -0.0628 -0.3450 -0.0653
29448W        W45632   3.437  14.763  16.269  0.0667  0.1839 -0.0448
29449W        W45633   8.926  16.650   3.689  0.3727  0.1520  0.0824
29450W        W45634  14.084  17.203   1.241 -0.0997 -0.0397 -0.3431
29451W        W45635   3.333   2.583   3.619  0.0317  0.3216  0.0097
29452W        W45636   2.028  17.383   3.899  0.2545 -0.3015 -0.2024
29453W        W45637  10.228   2.174  14.782  0.0826  0.1842  0.0129
29454W        W45638   6.004   5.019   2.895  0.3892 -0.3384 -0.1383
29455W        W45639   9.109  10.877  13.914  0.1669  0.2825  0.0515
29456W        W45640   8.038   8.394  15.152 -0.2194  0.3485  0.0479
29457W        W45641   5.050   1.889  16.540 -0.1428  0.2389 -0.3599
29458W        W45642   9.647   1.639  13.799  0.1582 -0.1485 -0.0198
29459W        W45643   1.719  12.520  12.115  0.1757  0.4638 -0.0317
29460W        W45644  14.673   5.032  14.698 -0.5121 -0.0954  0.0746
29461W        W45645  14.822   0.040   5.491  0.1662  0.4061 -0.2969
29462W        W45646   4.785   7.219  16.696  0.0967  0.2131  0.0056
29463W        W45647  10.906  15.815   0.333 -0.0818  0.2321 -0.0397
29464W        W45648  11.812   4.484   2.303  0.0532  0.1630  0.1774
29465W        W45649   2.455  12.696  16.271 -0.3723 -0.1436  0.1705
29466W        W45650   1.505   8.468  13.130 -0.1132 -0.2861 -0.0524
29467W        W45651   7.572  12.436   1.797  0.1258 -0.0488 -0.0116
29468W        W45652   3.015  16.859  16.686  0.2369 -0.2760 -0.0335
29469W        W45653   4.645  11.376  16.476 -0.2406  0.0891 -0.0345
29470W        W45654  11.562   6.078  12.852  0.1210 -0.3001  0.0608
29471W        W45655   0.237  11.747   0.090  0.1023  0.3287 -0.2930
29472W        W45656   8.335  15.315  11.353 -0.1134  0.1089 -0.2579
29473W        W45657  11.945   6.484  14.082 -0.1238  0.0851  0.0685
29474W        W45658  11.551  14.823   3.097 -0.1158 -0.2850  0.0022
29475W        W45659   4.762  16.162   3.179 -0.2138  0.2800 -0.2773
29476W        W45660   2.264  14.543  13.090  0.0748 -0.0886 -0.0512
29477W        W45661   3.126   8.099   1.556  0.0795 -0.0539 -0.0545
29478W        W45662  13.456   2.035   0.654 -0.1507 -0.0709  0.2753
29479W        W45663  14.753   6.709   5.250 -0.2166 -0.1804  0.3290
29480W        W45664   2.720  14.123   3.295 -0.1442  0.0126 -0.1393
29481W        W45665  14.178  12.208   4.046  0.2306  0.3162 -0.4121
29482W        W45666   6.133   5.466   1.469  0.0255  0.2489 -0.1640
29483W        W45667   8.458  16.300  13.353  0.0628 -0.0629 -0.0300
29484W        W45668   4.655  10.954  14.788  0.1235 -0.1097  0.3255
29485W        W45669  10.886  10.440   3.909  0.1286  0.1100  0.3280
29486W        W45670  13.798   5.867  14.267  0.1675  0.1155 -0.1975
29487W        W45671  16.767   9.302   3.698  0.1398 -0.4056 -0.1034
29488W        W45672  16.351   9.546  14.409 -0.1105  0.0742  0.0669
29489W        W45673   6.543   2.813   2.465  0.0420  0.1300  0.0647
29490W        W45674  15.509  15.457   4.025 -0.0244 -0.0167 -0.4370
29491W        W45675   7.258   5.268   0.544  0.1379 -0.5661 -0.1491
29492W        W45676   8.608  17.857  14.868 -0.0637 -0.1307 -0.5401
29493W        W45677   2.738   3.188   1.837 -0.0677  0.0735 -0.1978
29494W        W45678  10.247   5.448  11.709  0.0785 -0.0613 -0.2826
29495W        W45679   8.880   7.505  12.198  0.1716 -0.1173 -0.0558
29496W        W45680  11.035   0.796  12.786 -0.0882  0.2002  0.0487
29497W        W45681  14.758   1.287   4.771 -0.0988  0.2418 -0.0035
29498W        W45682   7.678   1.449   0.821 -0.0650 -0.3691 -0.0475
29499W        W45683   0.888  17.413  16.604  0.3376  0.2608 -0.1909
29500W        W45684   0.351   6.410   2.668 -0.0651 -0.0838  0.3924
29501W        W45685   6.814  17.190  11.609 -0.2423 -0.0966 -0.1113
29502W        W45686   7.222  11.224   0.526  0.1211  0.1101 -0.3208
29503W        W45687   1.416  13.797   3.687 -0.1314 -0.0146  0.3800
29504W        W45688   6.219  12.418  15.900 -0.1441  0.1605 -0.5139
29505W        W45689  13.964  11.787  12.166 -0.3257 -0.1427 -0.0315
29506W        W45690   4.995  16.733  12.068  0.0579  0.2092 -0.0098
29507W        W45691   1.055  14.951  15.662 -0.0604 -0.0523  0.0781
29508W        W45692   7.932   7.689   4.995 -0.0141  0.0235  0.2822
29509W        W45693   7.671  10.648  16.661  0.0146 -0.5753 -0.0884
29510W        W45694   9.261  12.895  13.828 -0.0270  0.1436 -0.1092
29511W        W45695   7.052  14.131   5.182 -0.0245 -0.0188  0.0294
29512W        W45696   1.667  14.957   3.284 -0.1844 -0.1014  0.2349
29513W        W45697   0.153   8.769  13.405  0.1072  0.3016  0.1184
29514W        W45698   7.760   6.314   4.882 -0.0036  0.0908 -0.2559
29515W        W45699  10.783  12.230   1.023 -0.2678  0.0385  0.1701
29516W        W45700   3.907  16.371   0.258 -0.2726  0.1547  0.0033
29517W        W45701  12.108  14.894   0.915  0.1637  0.1105  0.1137
29518W        W45702   1.482   4.598   4.042  0.0682 -0.2145  0.0266
29519W        W45703  16.110   6.281   3.929  0.3693 -0.3860 -0.0483
29520W        W45704  16.321   1.651  13.312 -0.1215 -0.1731 -0.1135
29521W        W45705  16.062  16.912  13.677 -0.1180 -0.1144 -0.1960
29522W        W45706  12.818   1.142   2.074  0.1710  0.0486  0.2471
29523W        W45707   9.080  13.151   1.441  0.0648 -0.3319 -0.2449
29524W        W45708   2.667   0.083   2.881 -0.0270 -0.1187  0.2021
29525W        W45709  15.108   3.850   4.052  0.2242  0.3817  0.0293
29526W        W45710   6.027  14.316   3.725 -0.0921  0.0279 -0.3051
29527W        W45711   4.858  12.140   1.495  0.0585  0.1578  0.2836
29528W        W45712   7.586  17.069  14.287  0.1888 -0.1348 -0.0672
29529W        W45713   0.363  10.862  14.906 -0.2099 -0.4555  0.1184
29530W        W45714  10.572   5.239   5.491  0.1427 -0.2307 -0.1178
29531W        W45715  14.477   3.639  15.154  0.4219  0.2798 -0.1141
29532W        W45716   3.502   7.974  15.146 -0.2417 -0.0325 -0.2200
29533W        W45717   7.024  17.523  14.937  0.0051 -0.1089 -0.1937
29534W        W45718   7.239   7.637   5.708 -0.0352 -0.1238  0.4105
29535W        W45719   4.247   0.707   0.458  0.0548  0.0554  0.0091
29536W        W45720   9.958  15.896  13.406  0.1790  0.1604 -0.1525
29537W        W45721   0.131   5.874   0.105 -0.0786 -0.0161  0.0782
29538W        W45722  12.110   3.567   0.228  0.0486 -0.0606 -0.0735
29539W        W45723  15.161   4.748   2.852  0.1622  0.1881 -0.0109
29540W        W45724  14.552  11.940   0.346  0.0010 -0.1173  0.0036
29541W        W45725  12.281   6.380   4.490 -0.1640 -0.0389 -0.0075
29542W        W45726  16.307   0.970   3.265  0.0545  0.0450 -0.0508
29543W        W45727   8.506  13.494  14.982 -0.0514 -0.0241  0.0961
29544W        W45728   3.732   7.546  14.908  0.1985 -0.5135  0.3369
29545W        W45729  16.474   5.932   0.879  0.1029  0.1206 -0.1476
29546W        W45730   8.014  16.282   4.806  0.1661  0.1127  0.4546
29547W        W45731   7.579   8.289  16.085 -0.1349 -0.2642 -0.0111
29548W        W45732   6.134   6.709   0.833 -0.0059 -0.1126 -0.3005
29549W        W45733   3.860  16.172   2.257 -0.0710  0.0271 -0.1060
29550W        W45734  10.364  12.158   1.277  0.0754 -0.0896 -0.3877
29551W        W45735   7.105   9.578   3.621  0.2851 -0.0240  0.0880
29552W        W45736  14.475   1.769  11.811 -0.0181 -0.2981 -0.3016
29553W        W45737   4.423  13.710   1.448 -0.0987  0.0293  0.1438
29554W        W45738  10.352  11.076  12.221 -0.1345  0.2404  0.1240
29555W        W45739   0.386   5.562  16.675 -0.0906  0.0861 -0.1102
29556W        W45740   7.063  10.030  13.947 -0.1474  0.0710 -0.1634
29557W        W45741   0.865   6.088  11.914 -0.2452 -0.0461  0.0776
29558W        W45742   2.171   8.594   5.163 -0.0316 -0.1992 -0.3821
29559W        W45743   1.038  10.752  16.013 -0.0741 -0.1104  0.1533
29560W        W45744   5.203  15.149  12.216 -0.1530 -0.3107 -0.3595
29561W        W45745  13.289  13.960   4.843  0.1227 -0.1510  0.0813
29562W        W45746  13.615  15.153   5.886  0.4927  0.1799 -0.0872
29563W        W45747   7.676  13.638  16.679  0.1739  0.0350  0.2281
29564W        W45748  13.555  17.761   2.207  0.5063  0.1047  0.0253
29565W        W45749  10.512   9.771   6.299 -0.0800  0.2889 -0.0657
29566W        W45750  13.773   8.968   3.818  0.2631 -0.0214 -0.1828
29567W        W45751   5.267  17.286   3.776 -0.1689 -0.1605 -0.1833
29568W        W45752   5.542  16.618  11.111  0.0402 -0.4344  0.2005
29569W        W45753   6.646  14.526  14.094  0.1330  0.1351 -0.1950
29570W        W45754  13.022   7.382   2.731  0.1673  0.1769  0.0877
29571W        W45755  13.425   3.263   2.238  0.1386  0.0303  0.0724
29572W        W45756  12.902   3.503  16.516  0.1434 -0.2340 -0.2229
29573W        W45757   8.950   6.267   1.386 -0.0435 -0.3425 -0.0425
29574W        W45758  15.434   4.469  13.619  0.0100 -0.1195 -0.3615
29575W        W45759  15.483   0.333   2.382 -0.0157 -0.0513  0.0975
29576W        W45760  10.824  13.784  14.331  0.0112 -0.0496  0.1633
29577W        W45761  17.227  14.440   2.937  0.0139  0.0529 -0.0557
29578W        W45762  11.579   6.985  14.163  0.1670 -0.1831 -0.0939
29579W        W45763  11.106   9.936   1.437  0.2527  0.2898  0.2712
29580W        W45764  14.580  14.770   2.564 -0.0123  0.0311  0.1879
29581W        W45765  10.409   7.922  14.543 -0.1070  0.2478 -0.0419
29582W        W45766   1.723   8.352  14.096  0.3402 -0.0517  0.0717
29583W        W45767   4.823   9.986  11.330  0.4736  0.0256 -0.1192
29584W        W45768  14.414  15.824   4.868  0.2712  0.1554 -0.1409
29585W        W45769   6.855  16.200  14.344  0.0541 -0.0327 -0.1611
29586W        W45770   4.934  10.561  13.143  0.0165 -0.0376  0.2320
29587W        W45771   5.459  13.704  16.491  0.0973 -0.0656  0.1926
29588W        W45772  13.805   8.983  16.339 -0.1516  0.2023 -0.4009
29589W        W45773   6.475   8.476  12.780 -0.2306  0.2144 -0.0755
29590W        W45774   7.781   0.584  14.921 -0.0044  0.0258 -0.1033
29591W        W45775   3.530   4.149  13.557  0.1316 -0.0546 -0.0127
29592W        W45776  16.815  16.273   0.735  0.1606  0.0872  0.1095
29593W        W45777   3.146   0.421  12.374 -0.0857 -0.1072  0.0137
29594W        W45778   1.296  13.293   3.313  0.2456 -0.1400 -0.1587
29595W        W45779   2.455  17.531   4.695 -0.2780 -0.4752  0.1160
29596W        W45780  10.013   6.358   0.502  0.0257  0.2920  0.4507
29597W        W45781  12.676  15.133   4.728  0.0565  0.0416  0.0977
29598W        W45782   7.449  14.379  15.842 -0.2545 -0.2605  0.0191
29599W        W45783   8.615   2.855  16.027 -0.1923 -0.0334 -0.0304
29600W        W45784   3.605   3.030   5.476 -0.3813  0.1589  0.0101
29601W        W45785  13.535  13.795  12.127 -0.1949 -0.4020 -0.0793
29602W        W45786  13.908  10.960  13.595 -0.2567 -0.1245 -0.0812
29603W        W45787   0.477  14.188  11.489 -0.1229 -0.0999  0.2732
29604W        W45788   8.684   6.670   5.756  0.2470  0.0895  0.2787
29605W        W45789   4.513  11.796  12.741 -0.0697 -0.0535  0.0509
29606W        W45790  12.492   9.801   3.477  0.0617 -0.1570  0.1473
29607W        W45791  15.923   9.970   3.106  0.0434 -0.2236  0.1322
29608W        W45792  12.331   6.092   5.422  0.0704 -0.3437  0.1931
29609W        W45793   2.738   4.789  12.557 -0.0313 -0.2864  0.1120
29610W        W45794  14.651   7.951   1.527  0.0431  0.1865 -0.1748
29611W        W45795   5.957  15.216   1.231 -0.2067  0.0518  0.0983
29612W        W45796  11.142   3.040  12.384 -0.0304  0.1872  0.0701
29613W        W45797   7.383  14.376   4.858 -0.3464 -0.2004 -0.0600
29614W        W45798  10.215  17.585  11.656 -0.1504  0.0422 -0.0263
29615W        W45799   4.876  17.602  16.133 -0.1487  0.3025  0.0173
29616W        W45800   7.709   8.701  15.369  0.0731  0.1262 -0.0776
29617W        W45801   7.486  16.383   5.883 -0.1268 -0.0098 -0.1917
29618W        W45802   8.502  11.367  16.175  0.1972  0.1101  0.1280
29619W        W45803   6.959  17.043  14.900 -0.2371 -0.0394  0.1463
29620W        W45804  10.145   6.881   3.780 -0.0508  0.1207 -0.0071
29621W        W45805  16.608  11.253   1.372 -0.1173  0.0519  0.0032
29622W        W45806  16.456  16.287   4.374 -0.2962 -0.1355 -0.1359
29623W        W45807  12.553   7.665  11.823 -0.1878 -0.1990  0.0066
29624W        W45808  11.899   4.933   4.801  0.4928 -0.0603  0.2402
29625W        W45809   9.732   3.548  13.478 -0.1072  0.1624  0.0291
29626W        W45810   2.315  13.965  13.841 -0.1014  0.0377 -0.0329
29627W        W45811   1.314  12.199   2.843 -0.2777  0.3994 -0.1311
29628W        W45812   8.213   8.540   0.696 -0.2869  0.0029  0.1194
29629W        W45813  17.763  13.810  15.596 -0.0265 -0.0074  0.0831
29630W        W45814  13.417   4.192  16.710  0.0513  0.2135  0.1065
29631W        W45815   4.036   0.700  13.469  0.1654  0.3216 -0.1449
29632W        W45816   5.517   0.978  11.502  0.2544 -0.2452 -0.0061
29633W        W45817   1.086   9.260   4.746  0.1328  0.0010  0.2731
29634W        W45818   2.246  17.317   1.831 -0.0066 -0.1652  0.1451
29635W        W45819  12.401   1.355   2.254  0.1961 -0.1102 -0.1482
29636W        W45820  15.585  16.568   3.269  0.1853 -0.2490  0.0396
29637W        W45821   7.816   1.940   4.257 -0.2473 -0.0575 -0.0446
29638W        W45822  13.144   3.776  11.674 -0.1221  0.1663 -0.0113
29639W        W45823   8.763   6.227  14.824  0.0216  0.1918  0.1143
29640W        W45824   6.178   5.276   3.286 -0.1677 -0.0507 -0.3294
29641W        W45825   7.612   5.164  16.758  0.0779  0.1633 -0.2070
29642W        W45826  14.291   0.170  15.408  0.1221  0.2862 -0.2576
29643W        W45827   7.833  16.051  15.203  0.1314 -0.0680 -0.3372
29644W        W45828  16.792   1.303  14.825 -0.0364  0.1102 -0.1970
29645W        W45829  14.363   2.211  11.639  0.0163  0.2358  0.2116
29646W        W45830   8.692   4.376   1.541 -0.0215  0.1190 -0.0197
29647W        W45831   5.978  15.488  12.931 -0.0552 -0.0779  0.0706
29648W        W45832  12.680   5.734  15.194 -0.0103  0.0092  0.1791
29649W        W45833  12.990  14.989  16.747 -0.2385  0.2147  0.0741
29650W        W45834   2.635   6.671   1.289 -0.0123 -0.1437  0.0870
29651W        W45835  12.382  11.345  13.034 -0.0951 -0.0803 -0.0882
29652W        W45836  15.658  12.716  14.378  0.0763 -0.2932  0.0888
29653W        W45837   3.945   0.279   0.412 -0.0296 -0.0833 -0.0627
29654W        W45838  15.291   9.198   0.469 -0.2046 -0.1322 -0.4126
29655W        W45839   3.691  15.279   1.153 -0.0689  0.0602  0.1709
29656W        W45840   1.735   7.290  13.795  0.1150  0.1695  0.0964
29657W        W45841  13.879  15.533  14.190  0.3801 -0.2166  0.1265
29658W        W45842  12.004   4.469  13.839  0.1133 -0.2543 -0.0298
29659W        W45843   8.409   6.065  12.361  0.0211 -0.1612  0.1424
29660W        W45844  15.536  14.819  14.899 -0.0342  0.1348 -0.1761
29661W        W45845   9.663   4.538   0.106 -0.2032 -0.4040 -0.4024
29662W        W45846  14.506   8.553  13.784 -0.2256 -0.1436 -0.0046
29663W        W45847   8.940  12.059   0.016  0.1346 -0.1108  0.1356
29664W        W45848   9.969  15.691  14.925 -0.1309  0.0204  0.2950
29665W        W45849   3.585   6.515   1.447 -0.0690 -0.0162 -0.1656
29666W        W45850  16.359  17.069   5.565  0.2815  0.1028  0.1049
29667W        W45851  14.541   4.717   3.217 -0.0481  0.0391 -0.4061
29668W        W45852   6.303  16.478  15.856  0.0849  0.0275 -0.1081
29669W        W45853  17.388   3.635  13.811 -0.1271 -0.3227  0.3399
29670W        W45854  17.536  13.001   0.342 -0.0105  0.0674 -0.0319
29671W        W45855   3.816  14.428  13.872  0.1103  0.1719 -0.0464
29672W        W45856  14.175  14.455   2.725  0.2413 -0.3830 -0.2465
29673W        W45857   3.661   4.672   1.465  0.1716  0.0616 -0.4877
29674W        W45858   2.653  17.297  11.688 -0.0665  0.0663 -0.0707
29675W        W45859  17.609  14.012   5.414  0.1603  0.3628  0.0098
29676W        W45860   1.358  17.492   2.414 -0.0323  0.4923 -0.0585
29677W        W45861   5.947   3.214   5.123  0.0496 -0.0520  0.1202
29678W        W45862   8.442   6.922   0.603  0.2274  0.0893  0.1001
29679W        W45863   5.827  15.725  11.438 -0.3833 -0.0714  0.3952
29680W        W45864  14.588   9.979  15.090 -0.0678 -0.0044 -0.1032
29681W        W45865   4.259  10.729  11.451 -0.0124  0.1984  0.0405
29682W        W45866   5.770   5.222  12.471 -0.3438 -0.1588  0.1542
29683W        W45867  11.883  16.333  13.929  0.0685 -0.0034 -0.0207
29684W        W45868   0.974  11.738   2.298  0.0632  0.1849  0.0955
29685W        W45869   7.348   0.677   5.383  0.0655  0.1744  0.0331
29686W        W45870   2.385  11.779   0.713  0.1365 -0.2373 -0.0530
29687W        W45871   3.813   4.355   5.129  0.2553  0.3818  0.1413
29688W        W45872  15.660   6.591  16.619 -0.0547 -0.1195  0.0731
29689W        W45873   7.601   7.013   3.348 -0.0034  0.1173 -0.3474
29690W        W45874   2.253   1.640   4.113  0.4141 -0.0835 -0.1911
29691W        W45875   6.900   0.610   0.554 -0.1092  0.1405 -0.1206
29692W        W45876  17.795   9.739   3.708  0.2148  0.2819 -0.1965
29693W        W45877   2.000  11.148  16.553  0.0465  0.1849 -0.0564
29694W        W45878   9.780   0.159   4.341 -0.0890  0.0620  0.1526
29695W        W45879  15.267  11.516   5.090 -0.0364  0.1667 -0.0321
29696W        W45880   5.373  10.122  16.240 -0.1555  0.2026  0.0382
29697W        W45881   0.014  10.127  12.920 -0.2009 -0.0126  0.0037
29698W        W45882   0.280  13.112   0.522 -0.1855  0.0361  0.0838
29699W        W45883  11.954   4.723   0.921  0.1544  0.1325 -0.2977
29700W        W45884   5.619  17.055   3.467  0.2122  0.0921  0.0392
29701W        W45885   5.205  10.797   0.859 -0.1141 -0.0032  0.1064
29702W        W45886   5.424   7.973   0.801  0.1134 -0.0414  0.2417
29703W        W45887   1.810   5.206  16.305  0.0507  0.1946 -0.0644
29704W        W45888   1.728   0.459   1.025  0.0334 -0.1307  0.0066
29705W        W45889  10.410  17.679   0.832 -0.0966  0.1225  0.0189
29706W        W45890   3.955  15.932  14.888 -0.1611  0.1245 -0.3290
29707W        W45891   1.645  16.492   2.349 -0.1068 -0.2767  0.2605
29708W        W45892   7.284   7.873  12.294 -0.0067  0.1821  0.0291
29709W        W45893  14.586  12.010   3.867  0.1947 -0.3563  0.2285
29710W        W45894  10.556   9.735  12.499  0.0115 -0.1555  0.0279
29711W        W45895  10.264  15.428  16.124  0.0857  0.0909  0.1525
29712W        W45896   0.297   5.614   2.641  0.2007 -0.1710  0.0465
29713W        W45897   1.716   8.908   3.441  0.0166  0.1796  0.0400
29714W        W45898   4.368   4.252   5.363  0.1939  0.4587  0.0987
29715W        W45899  16.724  13.686  15.524 -0.1671 -0.4201  0.3585
29716W        W45900   8.355  17.308   1.103  0.0302 -0.2076  0.1507
29717W        W45901  17.390  10.844   5.337  0.1484  0.1524  0.0232
29718W        W45902   5.318   5.548  14.978  0.3767  0.0821 -0.1645
29719W        W45903   5.315   0.666   5.271 -0.0375  0.1768 -0.0607
29720W        W45904   1.877  14.937   4.281  0.1847  0.1169  0.2239
29721W        W45905   1.723  12.451   0.625 -0.1946 -0.0715 -0.1012
29722W        W45906   4.131   6.209   4.913  0.1228 -0.1083 -0.0503
29723W        W45907  16.877   3.710  13.714 -0.2013  0.5427  0.2693
29724W        W45908   8.071   7.208  16.790 -0.4686  0.4381  0.0048
29725W        W45909  11.682   9.223   0.226  0.0040  0.1758 -0.0110
29726W        W45910   9.941   6.344   3.990  0.2450 -0.2236  0.0518
29727W        W45911   2.660  14.525   4.713  0.4700 -0.0346  0.0851
29728W        W45912   7.830  10.302   1.384  0.0229  0.1204  0.0767
29729W        W45913   1.205   7.248   5.859 -0.0348  0.1464 -0.0823
29730W        W45914  14.795   9.830   0.007 -0.1307  0.2814  0.2721
29731W        W45915  11.300   5.643  12.526 -0.2368  0.0559 -0.0851
29732W        W45916   8.931   2.302  15.706  0.0749 -0.4196 -0.0426
29733W        W45917  14.674  17.468   0.487 -0.0788  0.1048  0.0571
29734W        W45918  16.282   6.282  16.683  0.2109 -0.2307  0.3948
29735W        W45919  10.702  13.763   0.242  0.0599 -0.0262  0.1153
29736W        W45920  14.044  17.808   1.433  0.0309  0.2772  0.0439
29737W        W45921  12.377  17.375  12.926 -0.0097  0.1221 -0.5505
29738W        W45922  17.096   9.564   1.637  0.3664  0.1152 -0.0246
29739W        W45923   2.315   1.062   1.257 -0.0640 -0.3275  0.0230
29740W        W45924   3.506   5.128  11.972 -0.0682 -0.3215 -0.1366
29741W        W45925  13.176   7.993   0.528  0.1739  0.2090 -0.1199
29742W        W45926   2.713  10.424  13.742 -0.0458  0.1608  0.1779
29743W        W45927   0.325  14.345   1.054 -0.2882 -0.0529 -0.0674
29744W        W45928  17.408   5.035   1.857  0.2569  0.0895 -0.0153
29745W        W45929  13.049   5.355   5.325 -0.0925 -0.2057 -0.2150
29746W        W45930  10.854  11.785   0.778  0.3689  0.1723  0.3129
29747W        W45931  16.124   0.506   4.637  0.2150 -0.0133 -0.3217
29748W        W45932   3.279   3.907   5.140 -0.0383 -0.0701 -0.3199
29749W        W45933  10.288  15.915  14.565  0.0453 -0.1659 -0.0007
29750W        W45934   0.519  12.123   4.235  0.0359 -0.1132  0.2436
29751W        W45935   1.877  11.486  11.954  0.0792  0.1805 -0.1598
29752W        W45936   4.864   0.978   5.243  0.1041  0.0542 -0.1342
29753W        W45937   6.176   1.556   4.628  0.2651 -0.5031 -0.0982
29754W        W45938  12.926   8.808   0.027  0.0281 -0.0495  0.0118
29755W        W45939   0.211  11.632  12.134 -0.0380  0.0644 -0.0354
29756W        W45940  11.002   9.748  13.390  0.0293  0.2332 -0.0512
29757W        W45941   4.845  17.175  13.229  0.2678  0.1926  0.0832
29758W        W45942   3.976   3.103  16.231  0.1206 -0.4164  0.2364
29759W        W45943  14.960   5.722  16.849  0.0616  0.2033 -0.2641
29760W        W45944   8.961   3.623  14.435 -0.1479  0.0524  0.1255
29761W        W45945  14.532   9.369   5.480 -0.1657  0.2005 -0.0716
29762W        W45946  11.947  14.929  13.279  0.0024  0.0172 -0.1310
29763W        W45947   8.861   2.360   0.179 -0.0179  0.1012  0.0457
29764W        W45948  15.992  16.507  12.030 -0.2456 -0.0441 -0.1913
29765W        W45949  17.194  10.354   3.014  0.2042 -0.0399  0.3126
29766W        W45950   4.626  10.270  12.782 -0.1899  0.2586 -0.2646
29767W        W45951   0.938  11.612   4.846  0.0717 -0.0607  0.0600
29768W        W45952   0.638   4.564   2.168 -0.0017 -0.1395  0.1759
29769W        W45953   8.394   3.136  14.569 -0.1677  0.0731 -0.2757
29770W        W45954   5.573  16.096  12.330 -0.1585 -0.1354 -0.2492
29771W        W45955  11.486   6.573  13.106  0.1565 -0.1522 -0.1290
29772W        W45956   1.784   0.593   0.567 -0.0725 -0.0955  0.1095
29773W        W45957   3.587  10.923   2.214 -0.0008  0.0286 -0.0945
29774W        W45958  16.231   2.968  16.621  0.1431  0.0373  0.0139
29775W        W45959   3.950  17.386  11.513  0.0248 -0.2042  0.0254
29776W        W45960   7.968  16.911  13.846 -0.1782 -0.3399  0.2275
29777W        W45961   1.427   6.829  12.018  0.2611  0.0982 -0.0224
29778W        W45962   3.132  16.353   1.244 -0.1247 -0.1499  0.0329
29779W        W45963   6.808   7.333  13.122  0.2780  0.1588 -0.1740
29780W        W45964   8.005   3.645   5.448  0.1247  0.3388 -0.1020
29781W        W45965  10.606  13.193  14.014  0.0006 -0.1380  0.1104
29782W        W45966  14.164   1.995  13.386  0.0287  0.0827 -0.0801
29783W        W45967  15.050  12.984  11.702 -0.4604 -0.1358  0.2057
29784W        W45968   7.141   3.540  14.657 -0.1074  0.2625  0.0164
29785W        W45969  10.347  10.617  16.425  0.0502  0.4667 -0.0770
29786W        W45970  12.468  13.737   2.024  0.3528 -0.0515  0.1104
29787W        W45971  12.914  15.907  11.470 -0.1366  0.3396 -0.0665
29788W        W45972  11.577  14.483  10.933 -0.0047 -0.0919  0.0859
29789W        W45973   0.348   0.646   3.015 -0.1192  0.0921  0.1787
29790W        W45974  17.054   2.586  15.417 -0.1268 -0.0103 -0.0769
29791W        W45975   1.468  14.655  15.506  0.2600 -0.0169  0.0477
29792W        W45976  13.684   7.289   5.214  0.2571  0.0081 -0.1487
29793W        W45977   3.791  15.647  11.382 -0.1257 -0.2082  0.0432
29794W        W45978  14.021   1.588   3.504 -0.2048  0.2940 -0.0986
29795W        W45979   3.031   7.450  16.003  0.0471 -0.1526 -0.0058
29796W        W45980  11.097  15.579  15.452 -0.1046 -0.3986  0.2252
29797W        W45981  11.166  16.136   5.032 -0.1249 -0.3545 -0.1082
29798W        W45982   4.119  10.885   1.461  0.1517 -0.0616  0.1216
29799W        W45983  13.440   1.223   3.956 -0.0851 -0.0568 -0.1527
29800W        W45984  15.397  17.244  14.770 -0.2906 -0.0614 -0.1107
29801W        W45985  10.787  12.901   1.483  0.2023 -0.0628  0.1859
29802W        W45986   3.491  13.223   3.726  0.0071 -0.0264 -0.1633
29803W        W45987  15.186   6.635  15.301  0.0067 -0.0569  0.2173
29804W        W45988  11.787   2.072   3.544  0.0670 -0.1874 -0.2153
29805W        W45989  17.254   9.892   4.532 -0.1159  0.0199  0.0597
29806W        W45990  16.562   2.016   4.702  0.2593  0.1210 -0.2128
29807W        W45991   0.986  17.713  16.033 -0.3522  0.4002 -0.0130
29808W        W45992   5.959  10.178   1.240 -0.3097 -0.3144  0.1253
29809W        W45993   5.627  12.002   2.708 -0.2465 -0.0949  0.1894
29810W        W45994  10.224  14.875   6.072 -0.1925  0.2093 -0.0502
29811W        W45995   4.946   4.922  13.079 -0.0607 -0.3793  0.0274
29812W        W45996   5.152  10.070   1.525 -0.0116  0.2185  0.1418
29813W        W45997   9.702  13.125   5.978  0.2422  0.1494  0.0131
29814W        W45998   2.201   9.795   2.584  0.1512 -0.2075 -0.2859
29815W        W45999  15.761   2.099   5.300 -0.0174  0.3948 -0.2460
29816W        W46000   5.763  10.091  13.309  0.0526 -0.0700  0.1169
29817W        W46001  10.676   4.065   2.139  0.0702 -0.2271 -0.0932
29818W        W46002   8.427   7.719   3.350 -0.2961 -0.2990  0.1305
29819W        W46003  16.608  10.436  15.490 -0.0862  0.3051  0.0697
29820W        W46004  12.460   5.205  12.381 -0.2537  0.1537  0.1104
29821W        W46005   7.290  12.459  14.669  0.1633  0.2679 -0.0277
29822W        W46006   3.689   3.588  14.545 -0.3591 -0.1193  0.2978
29823W        W46007   4.645   5.952   4.155  0.2607  0.0169  0.3667
29824W        W46008   9.879  14.325   4.759 -0.0864 -0.0203  0.2052
29825W        W46009   3.042   9.307   2.384 -0.1915  0.2642  0.3763
29826W        W46010  13.734   6.740  12.082 -0.1181  0.0013 -0.1870
29827W        W46011   9.626  10.639   3.679 -0.1165  0.2059  0.2974
29828W        W46012   0.714  10.867   1.491  0.0139  0.0894  0.0775
29829W        W46013  15.679  13.532  15.312  0.0410 -0.0991  0.3060
29830W        W46014  17.636   2.002   0.284  0.1090 -0.3041  0.2611
29831W        W46015  10.821   6.350   2.718 -0.0733  0.2521  0.0352
29832W        W46016   4.834   4.803  12.142 -0.0619 -0.3570  0.1790
29833W        W46017   8.405   8.281   2.488 -0.2885  0.2368 -0.0091
29834W        W46018  12.578   5.507   1.046 -0.2154 -0.1391 -0.1874
29835W        W46019   8.587   9.185  14.570 -0.2645  0.1647 -0.0172
29836W        W46020   9.167  13.540  11.197 -0.0616 -0.1336  0.0926
29837W        W46021   3.979   5.165   3.839  0.2640  0.0387  0.3922
29838W        W46022  12.042  14.413  11.682  0.1415  0.1096  0.2312
29839W        W46023   2.049   5.602   0.858 -0.0314  0.0384 -0.1251
29840W        W46024   4.093  11.793   0.155  0.1644  0.1943  0.0102
29841W        W46025  14.496   5.258  15.605 -0.2860 -0.0972 -0.0168
29842W        W46026   1.460  11.626   2.458  0.0443  0.2080  0.3394
29843W        W46027   2.927  16.532   6.110  0.0906  0.0027 -0.0471
29844W        W46028  10.584   9.762  14.217  0.0931 -0.0197 -0.2074
29845W        W46029  15.824  16.810  16.313 -0.3323  0.0839 -0.1451
29846W        W46030   7.937   3.223   0.502  0.1203 -0.1902  0.1724
29847W        W46031  11.954  13.748  14.160  0.0869  0.0539  0.0471
29848W        W46032  15.179  14.711   3.406  0.2296 -0.1133  0.1036
29849W        W46033   1.205   8.053  14.178 -0.3485  0.0852  0.4127
29850W        W46034   0.690   9.344   3.515 -0.0941 -0.0754 -0.1820
29851W        W46035   4.457   3.501  12.277 -0.0764  0.1658  0.0459
29852W        W46036  13.260   0.592  12.461 -0.0273  0.1451  0.2056
29853W        W46037   7.815   9.737   0.682  0.1137 -0.0120 -0.0395
29854W        W46038   4.705  10.152  15.391  0.0097 -0.3218  0.3797
29855W        W46039   0.469   1.703   1.484  0.1401  0.1060  0.0671
29856W        W46040  13.241  11.299   2.266 -0.0160  0.4522  0.2437
29857W        W46041   8.067   6.568   1.963 -0.1600 -0.0203  0.0201
29858W        W46042   2.081  14.245  13.521 -0.1342 -0.1202 -0.1487
29859W        W46043  14.177   9.135  15.909 -0.1317 -0.0394 -0.1728
29860W        W46044   2.446   9.140  15.892  0.1970 -0.0370 -0.3440
29861W        W46045   8.685  17.043   3.402  0.1044  0.4073  0.0817
29862W        W46046  10.689   6.632  15.815 -0.1728  0.4005 -0.1558
29863W        W46047  13.441   9.074   1.385 -0.0686 -0.0871  0.0519
29864W        W46048   3.703   7.583   0.436  0.3535  0.0137 -0.1442
29865W        W46049  12.167  12.174   3.447  0.3776  0.1381 -0.1091
29866W        W46050  15.298   8.654   1.779 -0.1632  0.0389 -0.1082
29867W        W46051  15.935  15.019   5.643  0.1347 -0.3348  0.3368
29868W        W46052  13.327   6.371  13.202  0.1980 -0.1542 -0.0303
29869W        W46053  16.777  11.936   0.365  0.0635 -0.0682 -0.1475
29870W        W46054   0.875  13.339   4.222 -0.0360 -0.2091  0.1298
29871W        W46055   0.418  15.316   0.460 -0.2378  0.1954  0.1767
29872W        W46056   5.168   4.151   0.054 -0.2930  0.4093  0.2784
29873W        W46057   2.384   9.335   1.647  0.1190 -0.0361 -0.0518
29874W        W46058  14.296   4.548  16.755  0.0523 -0.0390 -0.0701
29875W        W46059   1.752   1.349   6.419  0.0039 -0.1614  0.0788
29876W        W46060   2.913  12.879  16.005 -0.0267 -0.0519  0.0131
29877W        W46061  11.077   6.979   1.827 -0.1791 -0.0694 -0.0396
29878W        W46062   3.660  11.187  14.696 -0.0084  0.1573 -0.0599
29879W        W46063   8.595  15.019  14.817  0.0185  0.0546 -0.0092
29880W        W46064   8.340  12.693   0.478 -0.1936  0.0407  0.1810
29881W        W46065  14.952  16.156  13.901 -0.0295  0.1227  0.1642
29882W        W46066  13.756   1.457  14.298  0.2718  0.1616  0.2851
29883W        W46067   2.752   0.790  13.312 -0.2194 -0.2304 -0.2969
29884W        W46068   1.313  11.450  13.449 -0.1544 -0.2889  0.0639
29885W        W46069   8.116  14.329   4.936  0.2656  0.1071 -0.1028
29886W        W46070   9.935   9.149  13.913  0.2795  0.2150 -0.1507
29887W        W46071   0.780   5.065   0.890  0.1602 -0.0372  0.1109
29888W        W46072  13.119   2.814  13.391  0.3361 -0.1903 -0.1744
29889W        W46073  16.866   9.745   1.188 -0.1630  0.0970 -0.2294
29890W        W46074   3.867  11.068  15.862 -0.1682 -0.1719  0.0657
29891W        W46075   9.315   3.880   5.470 -0.1063  0.1089 -0.2917
29892W        W46076   6.128  12.186   3.702 -0.4510 -0.0451  0.0571
29893W        W46077  11.675  11.069  14.439 -0.0117 -0.1343 -0.0308
29894W        W46078   8.007   8.063   1.610 -0.0295 -0.0181 -0.0211
29895W        W46079   3.963  17.214   3.133 -0.1678 -0.2352  0.0825
29896W        W46080   3.299  10.865  14.846  0.2693 -0.1613 -0.0627
29897W        W46081   5.936  11.140   5.054 -0.1562  0.1099  0.2952
29898W        W46082  17.379  15.457   3.847 -0.2780  0.1569 -0.1502
29899W        W46083   2.222  17.508  11.924 -0.2940  0.1376 -0.4185
29900W        W46084  15.755   5.251  12.735 -0.1746 -0.0765 -0.2084
29901W        W46085  14.337   1.603  13.110  0.1734 -0.0754  0.0863
29902W        W46086   9.493  16.809  13.398 -0.2826  0.3311  0.3029
29903W        W46087   1.413   7.487  14.147 -0.3703 -0.1597  0.1019
29904W        W46088   5.304   1.119  11.922  0.1080 -0.1232 -0.0446
29905W        W46089   1.190  11.491   4.169  0.1150 -0.0964  0.2511
29906W        W46090   8.700  10.522  15.110  0.2543 -0.0254  0.1054
29907W        W46091   7.317   0.872  12.480 -0.0555  0.1186 -0.0337
29908W        W46092   5.310   6.278  12.625 -0.1457  0.1174 -0.0483
29909W        W46093   4.581  12.093  13.171  0.1198 -0.0413 -0.2534
29910W        W46094  14.964   6.434   5.733 -0.2682 -0.1907  0.0608
29911W        W46095   4.501   6.635   1.866  0.1026  0.0251  0.0920
29912W        W46096  12.946  17.117   0.614  0.3225 -0.0912 -0.1741
29913W        W46097   0.622   6.757  14.015  0.4451  0.1478 -0.1435
29914W        W46098   1.225  17.877   4.009  0.1747 -0.0995 -0.3611
29915W        W46099   1.577   2.706   5.883 -0.0095  0.2577 -0.1801
29916W        W46100  14.410   1.132  13.176 -0.1497  0.1298  0.1352
29917W        W46101  12.444   7.288  12.234  0.1222 -0.1122  0.0934
29918W        W46102   0.993  17.492   4.291  0.0743  0.3714  0.1333
29919W        W46103   6.478  14.858   2.317  0.0490 -0.2838 -0.0748
29920W        W46104  17.550  15.497  15.912 -0.0437 -0.2070 -0.3779
29921W        W46105  15.476   1.931   2.982 -0.1540 -0.1737  0.1501
29922W        W46106  14.895   0.819   1.829 -0.1412 -0.0641  0.1021
29923W        W46107   8.904   2.629   2.070 -0.1107 -0.0422  0.0862
29924W        W46108   1.755  16.593  15.796 -0.3524 -0.4762 -0.0444
29925W        W46109  16.363   8.655   0.727 -0.2946 -0.1402  0.1900
29926W        W46110  12.022   9.982  12.819 -0.2214 -0.0369  0.0700
29927W        W46111  17.721  17.786  13.557 -0.2850  0.3247  0.0020
29928W        W46112  17.450   3.705   0.447 -0.0145  0.1174 -0.0951
29929W        W46113  17.678   3.881  12.831  0.1631 -0.0101 -0.0442
29930W        W46114   2.378   3.732  13.543 -0.3403  0.0715 -0.0103
29931W        W46115   7.009   2.473   0.557 -0.0188 -0.1096 -0.0201
29932W        W46116   2.215  13.892   2.589  0.1113  0.0585 -0.4428
29933W        W46117   6.902  10.975  11.269  0.1108 -0.0681  0.0569
29934W        W46118   0.442  11.078   4.826 -0.0262  0.0455 -0.2822
29935W        W46119   7.858   0.107   5.257  0.0560  0.3503  0.1614
29936W        W46120   7.467  16.242  16.689 -0.2928  0.0124  0.0219
29937W        W46121  13.686  12.760  13.702 -0.2737  0.1456 -0.0008
29938W        W46122   6.598   1.259  12.510  0.5652 -0.1011  0.0950
29939W        W46123  14.044   7.351  13.878  0.1311  0.0915  0.3808
29940W        W46124   5.773  15.917   0.663  0.0644  0.1524 -0.1960
29941W        W46125   5.803   4.304   0.505 -0.2406 -0.1848  0.0414
29942W        W46126   1.684  15.757  11.835 -0.2496  0.0615  0.0742
29943W        W46127   9.199  12.237   3.709  0.0969  0.2930 -0.0804
29944W        W46128   0.499  15.257   1.287  0.2381 -0.0297  0.0664
29945W        W46129  11.623   9.018  12.696 -0.0546 -0.1284 -0.1865
29946W        W46130  11.079   8.787  15.454 -0.2926  0.2371 -0.1368
29947W        W46131  12.819  14.017   2.876 -0.2785  0.2414  0.0676
29948W        W46132   1.194  15.976  12.020 -0.0132 -0.1334  0.0237
29949W        W46133  11.932   0.505  16.499  0.1704  0.3720  0.0604
29950W        W46134  15.501  11.912   4.896 -0.0436  0.2003 -0.2036
29951W        W46135   6.294  16.419   4.695  0.1273 -0.2800  0.2339
29952W        W46136  13.851  17.851  16.110 -0.2648  0.2188  0.0350
29953W        W46137  14.453   8.417  14.263 -0.0324  0.0783  0.2780
29954W        W46138  13.388   9.503   2.936  0.1124 -0.0885  0.2393
29955W        W46139   6.621  15.635   0.737 -0.2847  0.0346  0.3660
29956W        W46140  17.126   3.397  11.712 -0.3433  0.1231  0.3275
29957W        W46141   7.927   9.758  12.685 -0.0521 -0.0457 -0.1007
29958W        W46142  13.401   3.771   3.204  0.1170  0.0402 -0.1545
29959W        W46143  17.198   9.758  13.233 -0.0439  0.0271  0.0404
29960W        W46144   6.474   7.252   3.524  0.0299 -0.1285  0.2178
29961W        W46145  11.082  12.553   2.859 -0.1379 -0.0976 -0.0065
29962W        W46146  14.575   1.205  15.508 -0.0654  0.0448 -0.5018
29963W        W46147   8.910   2.928   2.921 -0.2801  0.0735 -0.0669
29964W        W46148  14.456  17.829  16.326 -0.2843 -0.1987 -0.0030
29965W        W46149  11.464   0.342   0.431  0.0890  0.0060 -0.0392
29966W        W46150  10.680   2.092   2.070 -0.0089 -0.0646  0.0593
29967W        W46151   9.742  11.964   2.184 -0.0401 -0.0898 -0.0391
29968W        W46152   3.035   9.949   2.509 -0.0607 -0.0939  0.2638
29969W        W46153   6.852   1.121   2.615 -0.0537  0.0946 -0.0308
29970W        W46154  15.222   1.548   2.883  0.2016  0.1246  0.2113
29971W        W46155  16.352   7.056   4.862  0.0621  0.2006 -0.2153
29972W        W46156   8.394   8.506  16.026  0.1527 -0.1934 -0.0356
29973W        W46157   5.329   2.252   2.724  0.0701  0.2477 -0.2733
29974W        W46158  15.914  10.269   5.090 -0.1129  0.0645  0.1916
29975W        W46159   4.295   8.268  12.744 -0.0989  0.0909 -0.4825
29976W        W46160  12.331  11.635  14.466  0.1327  0.0137 -0.0579
29977W        W46161  14.156   7.403   5.412  0.2001  0.0098 -0.1544
29978W        W46162  11.009  16.325   0.221  0.0162 -0.0976  0.0105
29979W        W46163   0.308   8.129  14.417 -0.0915 -0.1450 -0.0663
29980W        W46164   3.975  13.148   4.964  0.0342 -0.1636  0.1391
29981W        W46165   6.844  13.068   5.493 -0.3249 -0.1301  0.1197
29982W        W46166   4.785  14.604   0.444 -0.2725  0.1160  0.2491
29983W        W46167   5.031   4.250  10.869  0.0157  0.0948 -0.0514
29984W        W46168   7.219   7.283   0.250  0.1791 -0.0216 -0.3652
29985W        W46169   7.174   7.838   0.332 -0.0629 -0.0262 -0.1777
29986W        W46170   4.006   7.860   3.962 -0.0326 -0.2735 -0.0777
29987W        W46171  13.599   7.854  13.514 -0.1749 -0.3033 -0.1098
29988W        W46172   4.200   9.885   2.572  0.1074 -0.1693  0.1883
29989W        W46173  13.232   4.909   3.993 -0.1313  0.2122  0.2771
29990W        W46174  11.455   5.348  15.731  0.0884  0.1631  0.0141
29991W        W46175   8.573  10.881  14.790 -0.0443 -0.1205 -0.3033
29992W        W46176   1.785   0.373   5.195 -0.2026 -0.0654  0.1790
29993W        W46177   0.785  14.042  15.817  0.0620  0.3016 -0.0414
29994W        W46178  11.475   9.135  16.306 -0.1166 -0.0791 -0.0434
29995W        W46179   6.638  12.663  12.180  0.1091 -0.0855 -0.0508
29996W        W46180   4.821   8.946   4.020 -0.0637 -0.1053  0.3587
29997W        W46181  15.340  13.670   0.152 -0.0041  0.0422  0.0448
29998W        W46182   0.829  16.208  13.088  0.1387 -0.0352 -0.0628
29999W        W46183   4.701   3.749   1.728  0.0898  0.1683 -0.0768
30000W        W46184  17.745   3.076   0.886 -0.1941 -0.1332  0.0532
30001W        W46185   7.724  12.854   2.627 -0.0854  0.0745  0.1615
30002W        W46186   4.266  14.257  16.320 -0.1873 -0.0882  0.1008
30003W        W46187   3.643   5.200   5.762  0.1091 -0.0918 -0.0563
30004W        W46188  13.628   2.665   1.960  0.1165  0.4194 -0.0294
30005W        W46189   9.057   1.218  14.597  0.0139  0.1303 -0.0815
30006W        W46190  16.362   1.595   5.605 -0.1820 -0.2709 -0.1676
30007W        W46191  11.236  17.759   0.256 -0.0696 -0.3495  0.1222
30008W        W46192  17.622   6.318  12.642 -0.3235 -0.2460  0.2947
30009W        W46193  15.393  13.606  12.019 -0.2165  0.3825  0.0729
30010W        W46194   9.939  17.045   2.994 -0.2165 -0.1758  0.0270
30011W        W46195   7.666   5.866   4.797  0.3283  0.0769  0.1126
30012W        W46196  16.468   9.660  12.185  0.1636  0.0531 -0.1462
30013W        W46197  10.940   4.468   5.311 -0.1496  0.1294  0.1491
30014W        W46198   6.738   0.065   1.851 -0.0636  0.0759  0.1178
30015W        W46199   4.138  15.210   1.460 -0.3412 -0.0364 -0.0801
30016W        W46200  16.829  10.896  15.499 -0.0458  0.0523 -0.2076
30017W        W46201   5.829  15.532   1.840  0.3047  0.1789  0.0214
30018W        W46202   5.213  11.797  13.585  0.1111 -0.2397  0.0467
30019W        W46203  16.436   7.750   3.154  0.0640 -0.0594 -0.3022
30020W        W46204   6.379   2.218  16.603 -0.0829  0.2499  0.1340
30021W        W46205   3.534   1.140   1.777  0.3228 -0.5206  0.1061
30022W        W46206  10.309   2.733  13.582  0.0109 -0.1255 -0.1095
30023W        W46207   6.711   1.777   3.332  0.0087  0.0990 -0.0274
30024W        W46208   1.674  10.308   2.147  0.1045 -0.0527  0.2029
30025W        W46209   2.701   7.634   3.368 -0.0776  0.0493 -0.0300
30026W        W46210  16.104  10.211   3.514  0.0726  0.0393 -0.3785
30027W        W46211   3.077   4.891   0.086 -0.0102  0.0916  0.2407
30028W        W46212  11.186  12.071   4.420 -0.2200  0.3073  0.0376
30029W        W46213   4.224  15.230  12.328  0.0197 -0.0286  0.0376
30030W        W46214   1.891   1.329  14.873  0.0750 -0.2231 -0.1613
30031W        W46215   3.738   7.095   0.461  0.1665  0.0039  0.0208
30032W        W46216  10.958   0.786   2.467  0.2257  0.1259  0.2026
30033W        W46217  17.206   7.972   1.736 -0.3371  0.3207  0.1484
30034W        W46218  13.108  10.486   2.465  0.2857  0.1022  0.0383
30035W        W46219  11.153  17.793  12.039 -0.0713 -0.1335 -0.1240
30036W        W46220   7.018   1.939  16.094 -0.1093 -0.0265  0.0175
30037W        W46221   8.681   3.756   4.127 -0.1155  0.2010  0.2210
30038W        W46222   7.231  17.630   0.096 -0.2267 -0.0387 -0.1793
30039W        W46223   2.455  12.302  11.791  0.1059  0.1172  0.0053
30040W        W46224  10.436  10.076  14.883  0.0806 -0.0050 -0.0005
30041W        W46225  13.930   1.790   1.560 -0.1788  0.1840 -0.2924
30042W        W46226   8.446  11.467  14.537 -0.3196  0.0195  0.0950
30043W        W46227   1.854   6.949   1.192  0.4293  0.2172 -0.0063
30044W        W46228   1.084  12.091   1.057  0.0072 -0.1448 -0.0076
30045W        W46229  13.324   3.095   1.799  0.1726  0.2235  0.2850
30046W        W46230  14.950  10.885   4.556  0.2369  0.0183 -0.1776
30047W        W46231   5.606   9.898   2.312  0.1850 -0.0424  0.0312
30048W        W46232   5.835  13.267  14.008  0.0050  0.1944 -0.1526
30049W        W46233   6.913   9.457  14.063  0.0496 -0.2315  0.2399
30050W        W46234  13.812  13.124   0.449  0.2440  0.1837  0.0558
30051W        W46235  11.878   8.653   1.488  0.0581 -0.1224 -0.0675
30052W        W46236  16.035   5.429  16.392 -0.2909 -0.1484 -0.4177
30053W        W46237  11.614  10.276  15.251 -0.1068 -0.3352 -0.0076
30054W        W46238   9.516  14.012  12.554 -0.0168  0.0588 -0.2928
30055W        W46239  17.857   6.767  13.417 -0.1050  0.6112  0.0629
30056W        W46240   6.231   2.379  16.149 -0.0619 -0.0726 -0.3633
30057W        W46241  10.888  15.209  10.830 -0.1301  0.1683  0.0866
30058W        W46242   2.094  16.736   0.932 -0.0248 -0.3495  0.4665
30059W        W46243   7.132  17.771   2.183  0.1163  0.2804  0.1664
30060W        W46244   2.842   0.850   1.660  0.1189  0.0007 -0.0468
30061W        W46245   6.668   7.966  14.787  0.3039  0.0665  0.3768
30062W        W46246   0.020   5.032   0.525 -0.3251 -0.0982 -0.1459
30063W        W46247  14.594  16.681  15.582  0.0389 -0.3958  0.0770
30064W        W46248  12.398   3.293   1.820  0.1254  0.0642 -0.1849
30065W        W46249   5.002  16.947  15.908 -0.2936  0.1576 -0.1389
30066W        W46250  17.050  17.337   4.442  0.2212 -0.1066 -0.2192
30067W        W46251   5.164  14.270   3.148  0.1660 -0.0396  0.2827
30068W        W46252  11.928  12.494   4.678 -0.2318  0.1297  0.4950
30069W        W46253   9.149   1.521  12.111  0.1473 -0.0827 -0.1149
30070W        W46254   0.916   5.161  14.862 -0.1032  0.0722  0.1343
30071W        W46255  10.663   7.833  16.085 -0.0798 -0.2027 -0.0687
30072W        W46256   7.013  12.896  14.508  0.1377 -0.0534  0.0074
30073W        W46257  11.850   4.203  16.576  0.0372 -0.1939 -0.1373
30074W        W46258   7.053   8.564  13.667 -0.0113  0.2603  0.1949
30075W        W46259   5.392   5.906  14.622 -0.0203 -0.3910  0.2825
30076W        W46260   7.975   3.315  14.421 -0.0516  0.0991  0.0785
30077W        W46261   3.575  16.586   5.306 -0.3629  0.1655 -0.0743
30078W        W46262  17.645  15.793  12.159  0.2694 -0.1736  0.4693
30079W        W46263  14.974   3.601  13.560  0.0548 -0.3858 -0.0484
30080W        W46264  17.552  10.119   0.607  0.0415  0.0124  0.0062
30081W        W46265  12.688   5.806   3.998 -0.1382  0.0231  0.1232
30082W        W46266   5.801   3.185   3.607  0.2845 -0.6070 -0.2352
30083W        W46267   1.145  16.847  12.106 -0.2013  0.2187 -0.2606
30084W        W46268  16.701  12.617  16.176 -0.1065  0.1644  0.0284
30085W        W46269   0.605  14.251   3.912 -0.4203  0.0430  0.2464
30086W        W46270  17.623  11.662  11.918  0.0410 -0.1953 -0.3074
30087W        W46271   1.797   5.876   3.909 -0.1028  0.0063  0.0207
30088W        W46272  10.377   2.194   1.160  0.2717  0.1942  0.2513
30089W        W46273  17.702   7.627  12.966  0.0775  0.3086 -0.1992
30090W        W46274   5.591  10.887   1.126  0.0849 -0.0887  0.0549
30091W        W46275  14.826   4.025  14.938 -0.2983  0.1815 -0.0538
30092W        W46276   3.890   9.711   5.447 -0.2448  0.1518  0.0382
30093W        W46277  10.710   2.141   4.429 -0.1831 -0.3675 -0.0566
30094W        W46278   7.610  17.666  16.166  0.1622  0.2906 -0.2491
30095W        W46279   6.643  10.589   4.159  0.0413 -0.3937 -0.1165
30096W        W46280   2.423  11.811  15.895  0.0500 -0.1290 -0.4887
30097W        W46281   8.183  13.974  12.348 -0.2974 -0.3821  0.2759
30098W        W46282  14.892   6.031   3.370  0.1017  0.1127  0.1698
30099W        W46283   7.525   8.532   5.378  0.1359 -0.1481  0.1395
30100W        W46284   3.751   8.394   2.093  0.0577  0.1078  0.1601
30101W        W46285  14.927  12.149   3.516  0.2854 -0.1279  0.1016
30102W        W46286   5.259  15.357   4.143 -0.1213 -0.3738  0.0451
30103W        W46287   6.922  10.974  13.187 -0.1495  0.1665 -0.0612
30104W        W46288  12.760   4.728  15.780 -0.0821  0.0568 -0.0880
30105W        W46289   1.618   2.327   2.939 -0.0013 -0.1948  0.0135
30106W        W46290  17.016   8.552  14.528 -0.3515 -0.0036 -0.3350
30107W        W46291   0.496   4.788   2.961 -0.2703 -0.0588 -0.1318
30108W        W46292   7.814   5.960   0.411  0.0776 -0.2076 -0.3555
30109W        W46293  14.386   5.987  15.489 -0.3750 -0.2688  0.2809
30110W        W46294   5.513  17.111  13.367  0.0423 -0.1954 -0.0044
30111W        W46295  15.115  15.727   3.758 -0.0786  0.0778  0.0529
30112W        W46296   9.205   6.488   5.401  0.0669  0.3122  0.2147
30113W        W46297   3.591   6.877   4.109  0.0154 -0.0081  0.2062
30114W        W46298  14.751   5.085  13.867 -0.0923 -0.0933 -0.0666
30115W        W46299  14.060  15.832  12.936  0.1352 -0.2670  0.1893
30116W        W46300   3.169   2.855   1.107 -0.0837  0.1316  0.2240
30117W        W46301   5.726   9.513   4.497  0.0080 -0.2258 -0.1191
30118W        W46302   6.597  16.264  13.307 -0.1441  0.0629 -0.0656
30119W        W46303   0.174  13.882   1.740 -0.1667  0.0790 -0.4589
30120W        W46304   0.831   1.387   1.736 -0.1552 -0.0892 -0.1580
30121W        W46305  15.814   2.718   3.197 -0.0880  0.0157 -0.2118
30122W        W46306  10.448  12.415   3.454 -0.1118 -0.0448  0.0287
30123W        W46307  16.752   1.482  11.851 -0.2351  0.1800  0.0047
30124W        W46308  11.903  17.864  14.593  0.4215 -0.0411 -0.1641
30125W        W46309   1.296  11.503   1.952 -0.1471  0.1083  0.0996
30126W        W46310   0.877  12.915  11.995 -0.0283  0.1624 -0.0419
30127W        W46311  16.065   2.509  14.542 -0.2545  0.1324  0.2921
30128W        W46312   7.377   1.052   5.104  0.0562 -0.0550 -0.1260
30129W        W46313  12.551  17.557  14.705  0.3669  0.0008  0.2224
30130W        W46314   0.925   5.543  12.780  0.1129  0.0384 -0.0458
30131W        W46315  13.315  16.773  13.784  0.2942  0.0004  0.0983
30132W        W46316  11.707   9.383   4.861  0.0854  0.0654  0.0022
30133W        W46317  13.665  17.731   0.625 -0.0260  0.1561  0.0605
30134W        W46318   8.190   3.139  12.108  0.1627 -0.1033  0.1764
30135W        W46319  12.668  10.146  14.620  0.1592  0.2602  0.1715
30136W        W46320   9.311  12.855   5.067  0.0127 -0.1904 -0.0270
30137W        W46321   1.456   3.569  13.978  0.2185  0.1715 -0.3035
30138W        W46322  11.570  11.009  12.721 -0.0691 -0.0522 -0.0577
30139W        W46323  13.488  12.712  16.221 -0.0059 -0.0397 -0.0321
30140W        W46324  11.640   2.849   0.672  0.0719  0.0551  0.0430
30141W        W46325   3.293   4.515  11.732 -0.3343 -0.1391 -0.3206
30142W        W46326  16.725  15.999   3.979 -0.2930 -0.1902  0.1179
30143W        W46327   9.286   7.157  15.636 -0.1499 -0.2479  0.0443
30144W        W46328   1.924  15.885  16.411 -0.1427 -0.1096 -0.0292
30145W        W46329  15.497  15.692   4.991  0.1850 -0.4228  0.1454
30146W        W46330  16.948   9.199   5.889  0.2298  0.1239 -0.1536
30147W        W46331   8.012  15.637   1.114  0.3671 -0.0983 -0.0876
30148W        W46332   1.014   1.510  15.104  0.1751 -0.0362 -0.1039
30149W        W46333   8.692   2.447   0.641 -0.0381  0.1694  0.1706
30150W        W46334   4.298   7.440   1.506 -0.0289 -0.2395  0.0246
30151W        W46335   9.898   4.944  15.781 -0.1312  0.0076  0.1698
30152W        W46336  10.995   2.978  16.110  0.0741 -0.3617  0.2186
30153W        W46337  16.758  13.733   1.814  0.1183  0.2009  0.4789
30154W        W46338  16.209   4.817   1.107  0.1124  0.1177 -0.1478
30155W        W46339   8.766   9.774  12.875 -0.1185  0.2056  0.1394
30156W        W46340  11.109  14.687  14.184  0.2624 -0.1434  0.1496
30157W        W46341   5.775  13.942  16.753 -0.1318  0.0348 -0.0455
30158W        W46342  11.660  14.881   3.961 -0.3818  0.1176  0.1142
30159W        W46343  16.624   4.974  13.538  0.1317 -0.2511 -0.2276
30160W        W46344  10.015   0.529  13.198 -0.2056  0.2141  0.0111
30161W        W46345   1.115   0.307  15.757  0.2068 -0.1937  0.2632
30162W        W46346   6.705   3.220  15.740  0.1099 -0.1151 -0.2390
30163W        W46347   6.377  10.019  16.294  0.2629 -0.0596  0.4240
30164W        W46348  13.402  16.062   1.450  0.0615 -0.3539  0.0918
30165W        W46349  14.698  10.152   3.620  0.0239  0.0582  0.0876
30166W        W46350   1.631  12.395   5.011 -0.2095 -0.3298  0.1318
30167W        W46351   7.232  12.514   2.375 -0.1917  0.1639 -0.0434
30168W        W46352   7.110  13.617   0.555 -0.1864 -0.0287  0.0286
30169W        W46353   7.389  17.323  14.734  0.0672  0.0083 -0.2772
30170W        W46354   4.716  14.531  13.337  0.1317 -0.0161  0.3482
30171W        W46355   3.218   4.936  13.506  0.0044  0.0437  0.0320
30172W        W46356  14.557   7.622  12.777 -0.0739  0.1812 -0.0689
30173W        W46357  14.033   9.240   5.312 -0.1187 -0.1568  0.2096
30174W        W46358   1.556  16.285   4.633 -0.0577  0.2159  0.1335
30175W        W46359   3.102  13.174  15.597  0.2028  0.1162 -0.0366
30176W        W46360   3.159   8.799  14.343  0.0790 -0.3443 -0.0567
30177W        W46361  10.587  12.810  15.228 -0.2137  0.0471 -0.2307
30178W        W46362  13.697   2.470  14.766  0.0649 -0.2445  0.1803
30179W        W46363   4.097   2.892   6.093  0.2046  0.1096  0.0810
30180W        W46364   6.410   5.786   4.616  0.4175 -0.1518  0.1942
30181W        W46365  14.515  16.963   1.498 -0.1996  0.1848 -0.1160
30182W        W46366   6.464   9.087  15.557 -0.3540 -0.1917  0.1913
30183W        W46367  12.048  13.366   3.572  0.1499 -0.2850 -0.0689
30184W        W46368   1.752   5.916   2.906 -0.1098  0.1400  0.0650
30185W        W46369   5.445   4.515   3.812  0.1565  0.0856  0.2964
30186W        W46370   1.121  17.176  14.145  0.0378 -0.1376  0.0803
30187W        W46371   8.945  14.854  13.315  0.2507  0.3864  0.0740
30188W        W46372   7.919  12.259  16.218 -0.0683 -0.1045  0.0004
30189W        W46373   8.328   7.488  12.920  0.0200 -0.2524 -0.3750
30190W        W46374   0.337  15.565  12.046  0.0833 -0.1031  0.2948
30191W        W46375  14.861  17.119  14.688  0.1806  0.1573  0.0091
30192W        W46376   6.483  17.738   3.614 -0.1447 -0.3933  0.2185
30193W        W46377   8.247  11.979   5.589 -0.2642  0.2314 -0.2825
30194W        W46378   8.104   3.903   0.590 -0.1566  0.0292  0.0792
30195W        W46379  10.502   9.412   5.316 -0.0841 -0.5416 -0.0582
30196W        W46380  12.658   4.660  13.070 -0.1537  0.2594  0.0897
30197W        W46381   9.916   4.088  15.094 -0.0029  0.0252 -0.0669
30198W        W46382  11.357   5.679   1.713  0.2461  0.0791  0.0820
30199W        W46383   7.113  17.248  14.283  0.0771 -0.2868 -0.2454
30200W        W46384  16.731   7.523  14.323 -0.2006 -0.2643  0.0137
30201W        W46385   5.589  12.137  14.770 -0.0821 -0.3101  0.2325
30202W        W46386   9.583   5.556  16.922  0.2600  0.1000 -0.1095
30203W        W46387  16.575  10.290   5.248 -0.0228  0.0532  0.1168
30204W        W46388  10.154  12.423  12.703  0.0798  0.2735  0.0323
30205W        W46389  12.289  10.302   5.057  0.3147  0.0632 -0.0503
30206W        W46390   0.827   2.074   2.208  0.1276 -0.1040 -0.0192
30207W        W46391  14.505  16.415   4.919 -0.2231 -0.1821 -0.0147
30208W        W46392  10.007   9.452  11.792 -0.1147  0.0305  0.1551
30209W        W46393   1.341   1.740  11.983  0.0451 -0.1801 -0.1871
30210W        W46394   5.141   2.320  13.359  0.1976  0.0595 -0.0125
30211W        W46395   7.610   5.306  13.959 -0.2710 -0.0555 -0.0242
30212W        W46396  10.613  12.299   5.541  0.2992  0.0107 -0.1752
30213W        W46397   8.502  17.247  12.291 -0.0028  0.0584  0.3231
30214W        W46398  14.378   4.098  13.297  0.2239  0.0380  0.0352
30215W        W46399  16.728   6.834  12.548  0.1049 -0.1269  0.4640
30216W        W46400   7.809   4.298  14.064 -0.1210  0.3504 -0.1178
30217W        W46401   3.934   4.783  12.302  0.1046 -0.0351 -0.1120
30218W        W46402  14.192   4.101   2.900  0.0972  0.0839 -0.0302
30219W        W46403   5.828  10.460   5.136  0.1137 -0.4622 -0.0287
30220W        W46404   9.132   8.443   5.182  0.3593 -0.2966 -0.0300
30221W        W46405  10.417  15.961   3.329  0.0968 -0.2234  0.0285
30222W        W46406  13.023   4.230   2.336  0.3243  0.1952  0.2629
30223W        W46407  13.287   4.716   2.495 -0.2591  0.1108  0.0563
30224W        W46408  12.224  13.160  16.366 -0.0754  0.0890 -0.1143
30225W        W46409   7.725   5.121   2.417 -0.0801 -0.0664  0.2235
30226W        W46410   4.721   6.015   2.718 -0.0195  0.0526  0.1074
30227W        W46411  15.940   7.332   0.384  0.0434 -0.1412 -0.2117
30228W        W46412   4.060   5.632  16.841  0.1773  0.0627  0.1370
30229W        W46413  12.456   0.892  13.076 -0.1717 -0.1318 -0.1839
30230W        W46414   2.552   4.789   5.734 -0.3170 -0.1709 -0.1014
30231W        W46415  11.759   4.688   1.804 -0.2404  0.0659 -0.0964
30232W        W46416   2.500  10.522  14.226  0.0596  0.0432  0.0976
30233W        W46417  10.541  12.838  14.416  0.0282 -0.1170 -0.0970
30234W        W46418   9.395   5.955   5.712  0.1241  0.0019  0.0630
30235W        W46419  13.932   9.589  14.418 -0.0575 -0.3594 -0.0805
30236W        W46420   8.896  17.436  13.888 -0.0400  0.0679 -0.0582
30237W        W46421  11.339   2.360  12.223 -0.1886 -0.2423 -0.0898
30238W        W46422   6.124   3.348  15.955  0.2171 -0.1567  0.1936
30239W        W46423   2.120   9.101  13.066 -0.1710  0.1453  0.0901
30240W        W46424   8.254   6.929  12.647  0.0015  0.1639  0.2671
30241W        W46425   3.469  15.735  13.658  0.0943  0.1244 -0.2035
30242W        W46426   2.105   1.502   0.343  0.3833  0.2707 -0.2401
30243W        W46427  16.135   0.928  12.955 -0.0458 -0.0621 -0.2119
30244W        W46428  11.514   4.347   4.085  0.0471 -0.0904  0.0232
30245W        W46429   8.657  10.310   0.754  0.1159 -0.0251  0.2887
30246W        W46430   1.896  14.533   2.018 -0.2666  0.0370 -0.1722
30247W        W46431   9.460   9.542  11.536  0.0544  0.2499 -0.1912
30248W        W46432   8.865   6.858   1.217 -0.0877 -0.3489 -0.0333
30249W        W46433   9.536  16.720  14.434 -0.1655  0.1799  0.1608
30250W        W46434  10.698   4.409   5.985  0.2580 -0.0251 -0.1511
30251W        W46435   3.778  17.520   0.851 -0.2583  0.0851 -0.3021
30252W        W46436   7.210   4.980   4.752 -0.0605  0.0285  0.0604
30253W        W46437  15.967   6.498   0.154  0.0084 -0.0985 -0.0657
30254W        W46438   1.259  14.469  16.877  0.0787 -0.2002 -0.0388
30255W        W46439   6.487  13.496   3.479  0.2150 -0.0061 -0.1918
30256W        W46440  11.884  11.357  12.802  0.1656 -0.1067 -0.0349
30257W        W46441   7.240   5.469   3.362  0.1356  0.1772 -0.2010
30258W        W46442   8.573   9.278   4.238  0.0380 -0.2751 -0.1033
30259W        W46443  13.121   4.557  12.316  0.1433  0.0373 -0.1776
30260W        W46444   6.872   7.303   5.413 -0.1111 -0.0937 -0.0486
30261W        W46445  15.902  17.124   3.887 -0.0337  0.2332  0.1886
30262W        W46446   3.426  16.550  13.077  0.3291 -0.0035  0.1136
30263W        W46447  15.037  14.315   5.380  0.0443 -0.1755 -0.1964
30264W        W46448   2.092   7.102   3.651 -0.4025 -0.0199  0.0661
30265W        W46449   6.160   7.226   4.423 -0.4072 -0.1706  0.0745
30266W        W46450  15.027  11.032  14.265 -0.2618 -0.0131  0.0993
30267W        W46451   1.911  16.434  12.580  0.1056  0.2191  0.2374
30268W        W46452  11.732   9.930  16.295 -0.2406 -0.0125  0.2706
30269W        W46453  17.571   8.287   3.470 -0.0392  0.4468  0.0184
30270W        W46454  14.620  16.612  14.664  0.0055 -0.1076 -0.1794
30271W        W46455  12.127   4.935   0.487 -0.0347  0.0272 -0.1756
30272W        W46456   1.087   6.616   3.973  0.0817  0.0159  0.0206
30273W        W46457  15.037  12.384  14.859  0.0471  0.2183  0.4045
30274W        W46458   4.658  12.642   0.384 -0.0394 -0.0169  0.0660
30275W        W46459   4.688  15.069   0.323 -0.1344 -0.1733  0.3916
30276W        W46460   3.209   0.812   5.162 -0.0281 -0.0189 -0.1045
30277W        W46461  13.956   1.146   2.669  0.2334  0.1604  0.1097
30278W        W46462  15.563   6.078   6.207  0.1871  0.1218  0.0460
30279W        W46463  12.239  11.921   1.009 -0.3281  0.0201  0.2989
30280W        W46464  11.716  17.678   1.810  0.1768  0.0188 -0.2710
30281W        W46465   5.833  14.974   5.897  0.1780 -0.3265  0.1328
30282W        W46466   4.285  13.423  13.090  0.2604  0.2550  0.0319
30283W        W46467  11.846  10.915  16.242  0.1519  0.0204 -0.0844
30284W        W46468   2.655  16.871   0.080 -0.0342 -0.1943 -0.2542
30285W        W46469  16.934  13.727  15.076  0.0985  0.1745  0.0851
30286W        W46470  15.082   0.435   0.160  0.2347 -0.1195 -0.0531
30287W        W46471   5.073   4.348   1.217 -0.0586  0.0444 -0.0180
30288W        W46472   0.254   6.028   2.988 -0.1179  0.2229 -0.1983
30289W        W46473   8.624  13.283   2.443 -0.2739  0.3740  0.1664
30290W        W46474  12.679   0.965  15.424  0.0919 -0.1360  0.1584
30291W        W46475  15.070   7.852   2.688  0.3520 -0.0483  0.0585
30292W        W46476  12.164   2.954   6.040 -0.1139 -0.1121 -0.1958
30293W        W46477  10.304   5.434   2.974  0.0172  0.2431 -0.2215
30294W        W46478   6.151  11.442   1.884  0.1250  0.0349  0.1546
30295W        W46479   9.879  17.841  15.088 -0.0006 -0.0790  0.3396
30296W        W46480   8.773  11.031  15.322  0.3049  0.0787  0.1726
30297W        W46481  13.444   1.113   0.741  0.1407 -0.3850  0.0187
30298W        W46482  16.483  13.676   0.934 -0.0094 -0.2014  0.2299
30299W        W46483   2.515   8.573  12.728 -0.0786 -0.0494  0.0504
30300W        W46484  12.704   2.048  14.054  0.1973 -0.2830  0.2107
30301W        W46485   1.019   0.036   4.508 -0.1016  0.4722 -0.3368
30302W        W46486   0.434   4.934  14.914  0.0821  0.0854  0.0284
30303W        W46487  12.024  17.190  15.147 -0.2467  0.0656 -0.2200
30304W        W46488   0.330  13.282  15.897 -0.2912  0.0726  0.0825
30305W        W46489  15.669   4.955   2.941  0.3974 -0.1395  0.2205
30306W        W46490  12.590  13.629  16.463  0.0178  0.0373  0.0400
30307W        W46491  12.524  14.544   1.127  0.2135 -0.3222  0.1538
30308W        W46492  16.893  12.252   0.828 -0.0135 -0.2488 -0.2062
30309W        W46493   7.674   9.249   2.671 -0.2279 -0.0508  0.0340
30310W        W46494   6.234  11.499  12.738  0.0054  0.1693  0.0683
30311W        W46495   1.386   5.440   4.707  0.1439  0.2389  0.0735
30312W        W46496   0.877   7.016  16.558 -0.0687  0.0454 -0.2709
30313W        W46497   9.410  14.455   5.066 -0.0232 -0.0784 -0.0511
30314W        W46498   8.620   5.235   3.315  0.0427  0.2327 -0.0107
30315W        W46499   6.010  17.300   0.625  0.1837 -0.1692 -0.2608
30316W        W46500  15.064   1.652   0.371  0.0498  0.1879 -0.0484
30317W        W46501  10.387   1.947   5.997 -0.3574  0.0032  0.1954
30318W        W46502  10.198   7.034  13.657  0.1765  0.0424 -0.0550
30319W        W46503   5.308   2.753  13.828 -0.0625  0.0555 -0.3128
30320W        W46504  14.893   0.260   2.573 -0.0140 -0.1864 -0.0611
30321W        W46505  17.015   8.030  14.998 -0.1112 -0.1196  0.1800
30322W        W46506  13.513  10.407   3.191  0.1409  0.2779 -0.0353
30323W        W46507   5.859  16.175  15.737 -0.1267 -0.0798  0.0812
30324W        W46508   7.366  10.956  15.560 -0.1013  0.1999 -0.0309
30325W        W46509  13.145  15.361  15.972  0.0316 -0.1462  0.1800
30326W        W46510  13.004   2.871  12.777 -0.2533  0.0986 -0.0039
30327W        W46511  15.910  11.310  15.222  0.1105 -0.2138  0.5669
30328W        W46512  10.884   2.116  12.075 -0.1821 -0.1411 -0.1419
30329W        W46513  15.177  14.256   1.008  0.1839 -0.1756 -0.1531
30330W        W46514  13.485   8.898   3.301  0.1201  0.1730  0.3083
30331W        W46515  17.372   0.282  16.733  0.0212 -0.1814  0.0391
30332W        W46516   4.020  11.951   2.306  0.0011  0.3858 -0.0538
30333W        W46517   2.147   9.216   0.774 -0.3302 -0.0138  0.3717
30334W        W46518   7.706   6.375   0.177  0.1205 -0.0503  0.1512
30335W        W46519   5.459   9.058  12.101 -0.1559 -0.1702  0.0886
30336W        W46520   7.402   6.795   4.905 -0.1918 -0.0525  0.2219
30337W        W46521  13.457   8.963  12.279 -0.1421  0.1974 -0.0527
30338W        W46522   8.904   9.968   1.506 -0.1322 -0.1691 -0.2663
30339W        W46523  11.092  16.292  12.387  0.1202  0.2447  0.1724
30340W        W46524   2.015  13.459  13.868 -0.2876  0.4480  0.2147
30341W        W46525  17.350  14.333   0.399  0.0126  0.1106  0.0809
30342W        W46526  12.961  14.803   1.026  0.3214  0.1933 -0.1423
30343W        W46527   0.405  10.929   1.962 -0.0328  0.0819  0.3104
30344W        W46528   3.201  10.679   0.775  0.0198  0.0402  0.2609
30345W        W46529  17.378  15.140  13.638 -0.2690  0.1794  0.1500
30346W        W46530   6.188   3.873   1.523 -0.0408  0.0030 -0.0279
30347W        W46531   0.978   8.560   2.621  0.3668  0.3958  0.1562
30348W        W46532  16.636  13.176   4.118 -0.1558 -0.2484 -0.0883
30349W        W46533   1.681  13.099   5.396 -0.0135  0.0677  0.0229
30350W        W46534   2.879   7.219   2.567  0.0361  0.0204  0.1384
30351W        W46535   4.752  14.922  15.149 -0.4642 -0.0489  0.2588
30352W        W46536   6.692  17.783  16.934  0.0761 -0.0480 -0.3764
30353W        W46537  10.068  11.046  16.004  0.0605  0.2195 -0.0686
30354W        W46538  17.058   8.217   4.077  0.0200 -0.4547 -0.4031
30355W        W46539   0.338   8.956  12.558 -0.0039  0.3498 -0.0891
30356W        W46540  14.823   8.797  15.411  0.2294  0.4914 -0.0858
30357W        W46541  11.122   1.334  15.799 -0.1259 -0.1476  0.0607
30358W        W46542  10.307   5.056   1.148 -0.0526 -0.1523 -0.0528
30359W        W46543   9.120  16.970   1.603 -0.0218  0.3177  0.1812
30360W        W46544   9.965  15.798  12.233  0.1975 -0.0391  0.2802
30361W        W46545   4.767  10.392   2.807  0.2080 -0.0076  0.1369
30362W        W46546   6.730   1.763   4.170 -0.1292  0.1163 -0.0470
30363W        W46547   1.657   9.808  15.677 -0.2056  0.0621 -0.1964
30364W        W46548  10.437   3.471   2.189 -0.1531  0.1244 -0.1173
30365W        W46549   2.524   3.466   5.265 -0.0139  0.1491  0.0842
30366W        W46550  14.905  17.521  15.523 -0.3008  0.0148  0.2722
30367W        W46551   3.725   8.047   6.272  0.1028 -0.0987 -0.0482
30368W        W46552   6.111   4.884   2.366  0.0552  0.2274  0.1290
30369W        W46553   7.190  14.339   1.311  0.0058 -0.1322 -0.0424
30370W        W46554   9.649  15.220  16.715  0.0550 -0.0618 -0.0153
30371W        W46555  16.431  10.399   1.266  0.2688 -0.1332  0.1286
30372W        W46556  11.785   8.442   2.825  0.3310  0.0146  0.0568
30373W        W46557  17.154   4.400   3.091 -0.3265  0.4228 -0.3317
30374W        W46558   9.610   3.649  15.810 -0.1973 -0.1509 -0.0269
30375W        W46559   3.770   4.648   3.819 -0.1183 -0.0261 -0.2605
30376W        W46560   5.531   3.556   5.117 -0.1933 -0.1562  0.0249
30377W        W46561   6.156   7.220   2.596 -0.0279 -0.2350 -0.3190
30378W        W46562  16.567   0.079  12.383 -0.0065 -0.0360 -0.0000
30379W        W46563   6.591  12.143  15.143  0.0769 -0.1896 -0.2313
30380W        W46564  14.935  11.324   0.311  0.2975 -0.0523 -0.0031
30381W        W46565   5.170  16.943   2.148 -0.2130  0.1707 -0.0308
30382W        W46566   2.019   2.159  14.424  0.0746 -0.0827 -0.3511
30383W        W46567  13.518  11.069   0.693  0.1312 -0.0050  0.0483
30384W        W46568   2.819  11.881  14.534  0.2979 -0.2744 -0.2413
30385W        W46569   2.165   7.360  12.744 -0.2751 -0.5134 -0.0032
30386W        W46570   2.143  12.886   5.263  0.1257 -0.1046  0.0328
30387W        W46571   0.897   8.942   2.925  0.0017  0.0608  0.0286
30388W        W46572  11.951   5.852   4.140 -0.2715 -0.2579 -0.1087
30389W        W46573  17.022  17.124   2.078  0.3771  0.0381  0.1070
30390W        W46574  16.540   5.993  15.750 -0.2204 -0.2264 -0.1284
30391W        W46575   2.599   0.094  14.735 -0.0193 -0.0529 -0.1418
30392W        W46576  12.945   0.237   0.012 -0.0773  0.0645 -0.1093
30393W        W46577  15.381   5.558  12.542  0.1798  0.0590  0.3674
30394W        W46578   3.644  13.520   2.545  0.0120  0.1568 -0.1387
30395W        W46579  12.074   2.980   1.572  0.0517  0.0204  0.1932
30396W        W46580   3.051   2.153   5.703  0.0382  0.1668 -0.3494
30397W        W46581   2.850  16.087  12.282 -0.2531  0.3023 -0.0924
30398W        W46582   2.014   8.690  16.545  0.0921 -0.2189  0.1241
30399W        W46583   4.601   4.329  11.943 -0.1217 -0.0982  0.1421
30400W        W46584  15.335   3.114   0.443  0.2404 -0.0569  0.2596
30401W        W46585   6.831  15.051   3.925  0.1345  0.0007  0.0213
30402W        W46586  15.290   7.598  14.038  0.3979  0.0138 -0.1840
30403W        W46587  16.405  15.970  12.890  0.1447 -0.0100 -0.1273
30404W        W46588   8.175  12.296  14.553 -0.4333  0.0969  0.0762
30405W        W46589  14.339   4.266   0.331 -0.0582  0.1745 -0.2605
30406W        W46590  12.633   2.822   4.577 -0.1580  0.2212  0.1129
30407W        W46591   7.177   9.114   2.890  0.0089  0.1267  0.3877
30408W        W46592  12.315   5.105  14.367 -0.0616 -0.0900  0.1970
30409W        W46593  11.138   8.278  11.019  0.1902  0.0311  0.0208
30410W        W46594  15.703  14.993   4.231  0.3919  0.3234  0.0159
30411W        W46595   8.388   4.587  14.654 -0.1700 -0.3001 -0.1038
30412W        W46596   6.987  16.552  16.612 -0.3161 -0.0833 -0.0423
30413W        W46597   8.060  11.809  14.653  0.0956  0.0332  0.0617
30414W        W46598  15.476   5.143   5.823 -0.0325  0.0760 -0.0795
30415W        W46599   8.003   8.474   2.782 -0.0019  0.0225  0.1682
30416W        W46600  10.577  17.477   1.273 -0.4854  0.1509 -0.3011
30417W        W46601  15.918  13.384   5.962 -0.1269 -0.1652  0.1425
30418W        W46602  10.182   4.607  16.876  0.0717  0.0094  0.1807
30419W        W46603  14.736   2.820   3.874  0.0040 -0.0370 -0.0151
30420W        W46604   4.884   8.928  12.808  0.0284 -0.1253 -0.2842
30421W        W46605  12.849  16.258  13.128  0.2188 -0.0596  0.1918
30422W        W46606   2.047  14.174   0.151  0.2786  0.2045  0.0408
30423W        W46607   7.247   2.563   3.241 -0.2726  0.0820 -0.2208
30424W        W46608   8.489  14.169  16.242  0.1713  0.0940 -0.1467
30425W        W46609   2.817  11.836  13.757 -0.0883 -0.3244 -0.1973
30426W        W46610   1.907  17.611   2.605 -0.0244  0.0785  0.2777
30427W        W46611   5.318  10.983   2.379 -0.3491 -0.0211  0.2719
30428W        W46612   8.343  12.434  11.461  0.3534 -0.1129 -0.0554
30429W        W46613   3.817   5.700   2.272 -0.1389 -0.0614 -0.2620
30430W        W46614   0.370  13.326  16.872  0.0175 -0.1390 -0.0908
30431W        W46615   5.650   4.242  15.517  0.2155  0.1312 -0.1934
30432W        W46616   3.432   1.996   2.340 -0.2734 -0.0116  0.2609
30433W        W46617   4.123  12.780   3.353  0.2932  0.1613 -0.1403
30434W        W46618   8.053   5.084   6.285  0.0583 -0.0028  0.0108
30435W        W46619   0.539   9.795   3.684  0.1108 -0.3902 -0.0120
30436W        W46620   1.950   7.736  12.509 -0.0495 -0.1984  0.0118
30437W        W46621   9.688   2.540  15.320  0.2752  0.0118  0.0774
30438W        W46622  15.168  11.730   0.524  0.1100  0.0147 -0.1876
30439W        W46623  16.304   0.176   4.254 -0.0566 -0.2878 -0.1013
30440W        W46624   3.446   9.392  15.841 -0.0427 -0.2148  0.0687
30441W        W46625   2.603   6.547   0.511  0.0269  0.0794 -0.0562
30442W        W46626  14.975   4.333  15.430  0.0238  0.0120  0.0099
30443W        W46627  11.111   7.805  12.971  0.1071  0.0948  0.0021
30444W        W46628   7.008  10.979   4.061  0.0553 -0.1699 -0.1614
30445W        W46629  13.704   4.323   2.847 -0.2603  0.1156  0.2782
30446W        W46630   6.643   4.546  15.675  0.1638  0.4791  0.4607
30447W        W46631   1.114   6.566  12.623 -0.0891 -0.3036  0.3410
30448W        W46632   8.582   9.116   1.453 -0.0751  0.2731 -0.1980
30449W        W46633   3.434  10.822   5.464 -0.2078 -0.1478 -0.3597
30450W        W46634   4.212  13.621   5.210  0.0578  0.0165 -0.0002
30451W        W46635   7.351  15.892  13.887 -0.0041  0.0439  0.4029
30452W        W46636   9.930  10.416   1.668 -0.0070 -0.1804 -0.2716
30453W        W46637   4.172   7.466   3.690 -0.0572 -0.1758  0.1970
30454W        W46638  15.640   0.506  16.127 -0.1002  0.1312  0.0001
30455W        W46639   3.339   0.415   2.404 -0.0853  0.0264  0.3474
30456W        W46640  10.891   2.487  15.322 -0.4555  0.0234 -0.1534
30457W        W46641   6.428  12.058  14.448 -0.1277  0.2197  0.1041
30458W        W46642   9.409  10.834  16.035  0.4201  0.0923  0.0756
30459W        W46643  15.170  12.825   1.004  0.0990 -0.1781 -0.1430
30460W        W46644  13.531   9.967   2.344  0.2150  0.1049  0.0687
30461W        W46645  12.579  12.781  11.962 -0.0359  0.4677  0.3302
30462W        W46646   5.553   9.406  15.507  0.0957  0.1186 -0.1761
30463W        W46647   4.839  14.917   3.642  0.2670  0.2550 -0.2298
30464W        W46648   0.218   7.876  13.478  0.0077  0.1417 -0.0664
30465W        W46649   9.699   2.716  15.953 -0.2765 -0.0302  0.0103
30466W        W46650   9.991  13.493  13.390  0.2562  0.1669 -0.1693
30467W        W46651   1.924   3.490  14.192  0.0602  0.0639  0.0687
30468W        W46652   3.832   6.158  13.146 -0.1917 -0.1554  0.0487
30469W        W46653  14.066  16.501  14.366 -0.2635  0.1777 -0.0661
30470W        W46654  14.228   7.612  12.399  0.0485  0.2256  0.1562
30471W        W46655  13.910   9.621  16.066  0.0669  0.0333 -0.0952
30472W        W46656   3.757  13.981  12.194  0.0347 -0.4214  0.3211
30473W        W46657  17.263   3.011  12.454  0.4140  0.0862 -0.1183
30474W        W46658  13.572  16.449  12.555 -0.2319 -0.0464  0.0032
30475W        W46659   0.298   0.784  16.723  0.1548  0.1705  0.0710
30476W        W46660  10.089   1.506  11.846  0.1492  0.0199 -0.2870
30477W        W46661   1.092   4.912   3.795 -0.2149  0.1013  0.0511
30478W        W46662  14.038   8.848  11.794 -0.1607 -0.1244 -0.1191
30479W        W46663  16.630  12.386   2.544 -0.2548 -0.0575  0.1070
30480W        W46664  14.221  12.045   5.080 -0.0749 -0.2597 -0.0088
30481W        W46665   5.306   7.355  12.242 -0.0433 -0.3010 -0.0831
30482W        W46666   7.305  12.390  12.967 -0.4509 -0.1730  0.2635
30483W        W46667  17.844   2.204  13.354 -0.1263 -0.0872  0.0951
30484W        W46668  14.597  10.352  11.707  0.3602 -0.0957  0.0747
30485W        W46669  10.075   2.529   1.434  0.1901  0.1623 -0.2763
30486W        W46670   8.090  11.691   1.941  0.4044  0.0659 -0.0208
30487W        W46671  12.556   7.261  14.752  0.0016 -0.0559  0.0435
30488W        W46672   5.768  13.189   0.823 -0.1133  0.0467  0.1238
30489W        W46673   5.584  15.358  11.592 -0.1861  0.1193  0.1571
30490W        W46674   3.995  15.207  11.387  0.0114  0.0634 -0.2732
30491W        W46675  13.609  14.677  13.857 -0.1781 -0.0784  0.0092
30492W        W46676  11.479   4.582  14.830  0.2189 -0.0827 -0.1496
30493W        W46677   0.449  15.566   4.667 -0.3631 -0.0077 -0.0531
30494W        W46678  16.487  16.894   3.253 -0.1183  0.0737  0.4306
30495W        W46679   0.484   1.851  16.665  0.0163  0.1638 -0.2034
30496W        W46680   1.064  11.533   5.347  0.3028  0.2679  0.0661
30497W        W46681   0.084   0.001  14.947  0.2055 -0.2163  0.2336
30498W        W46682  14.461  10.456  13.631 -0.5662 -0.0719  0.0452
30499W        W46683   2.620  13.828   2.846 -0.1682  0.0526  0.0112
30500W        W46684  11.019  17.160  16.143  0.2540 -0.2551  0.0010
30501W        W46685  12.710   5.060   2.776 -0.2291 -0.0780  0.0149
30502W        W46686   4.439  17.600   1.319  0.1141 -0.0215  0.0652
30503W        W46687  17.252  16.156   5.017  0.1947  0.0777 -0.0500
30504W        W46688   4.912  15.908   2.125 -0.3007 -0.1167 -0.0286
30505W        W46689   7.273  16.234   1.388  0.0484  0.0564 -0.2887
30506W        W46690  16.633   1.452  15.653 -0.1438 -0.1040  0.1109
30507W        W46691   8.539   8.546   2.048 -0.0393 -0.1823  0.2364
30508W        W46692   6.168   3.095   0.299  0.1764 -0.0470 -0.0823
30509W        W46693  11.846   3.284  14.287  0.0508  0.1190 -0.0201
30510W        W46694  13.154  16.365   2.049 -0.0550  0.0217  0.0845
30511W        W46695  12.398   9.409   1.420 -0.3052  0.4265 -0.1919
30512W        W46696   7.679  14.072   1.259  0.0501  0.0710 -0.1764
30513W        W46697  12.684  17.825   4.379  0.2585 -0.0258 -0.1260
30514W        W46698   1.736   2.187  16.038 -0.0227  0.1975 -0.0006
30515W        W46699   4.781   9.897  13.038 -0.0738  0.0400 -0.4923
30516W        W46700   9.391   8.800   5.384 -0.0482  0.1041  0.0356
30517W        W46701  10.425  11.159   2.956  0.2923  0.1215  0.0614
30518W        W46702   6.211  11.266   0.476  0.1323 -0.1918  0.2222
30519W        W46703   3.568  16.811   0.428 -0.1389 -0.0349 -0.1120
30520W        W46704   2.875   9.401   1.500  0.1812  0.2575 -0.1901
30521W        W46705  12.151   9.326  16.440 -0.3220  0.1149 -0.0836
30522W        W46706   9.185  10.470  11.876 -0.0514  0.2489 -0.1973
30523W        W46707   7.608  13.894  12.577 -0.1526  0.1407  0.2472
30524W        W46708  17.019  17.492  13.443 -0.1850  0.4129 -0.1549
30525W        W46709   6.582   7.528   2.706  0.3281  0.1034 -0.0180
30526W        W46710  15.485  15.251   1.278 -0.0839  0.0538 -0.0825
30527W        W46711   5.896   8.842   0.538  0.0654 -0.3509 -0.1100
30528W        W46712  13.603  12.568   3.644  0.0658  0.1700 -0.3049
30529W        W46713   6.725   4.943  16.179 -0.0767 -0.0150 -0.1013
30530W        W46714  10.203   8.449   3.359 -0.0652 -0.1838 -0.0870
30531W        W46715   3.956   7.414  12.085  0.1411 -0.0232  0.0642
30532W        W46716  17.578   4.338   2.834  0.0675  0.0259  0.1289
30533W        W46717   5.033   6.567   5.279 -0.5109  0.0419  0.0334
30534W        W46718   3.800   1.403  12.803  0.0453  0.1238  0.4149
30535W        W46719  13.889   0.505  15.265  0.0919  0.0689 -0.1689
30536W        W46720   2.141   3.427   0.286  0.0731 -0.0360  0.0916
30537W        W46721  15.297   2.139  13.070  0.2761 -0.1290  0.1404
30538W        W46722  14.769   5.880   2.020 -0.2100 -0.0489  0.0119
30539W        W46723   2.536   9.846   1.674  0.2184  0.0638  0.1806
30540W        W46724   1.564  14.892   1.815  0.1763 -0.0353  0.3701
30541W        W46725  10.797   2.099  14.624 -0.0597 -0.2853  0.0496
30542W        W46726   9.056  11.757  11.864  0.0590 -0.0492 -0.0130
30543W        W46727   5.050  16.316  14.195 -0.1214 -0.1768 -0.1756
30544W        W46728   7.496   3.862  12.886  0.2628  0.0336  0.1654
30545W        W46729   8.399   5.045   5.048  0.3007 -0.1725 -0.2896
30546W        W46730   8.300   4.155  14.232  0.2994 -0.0355  0.4405
30547W        W46731   8.995   8.449   3.084 -0.3136 -0.0130 -0.0430
30548W        W46732  12.922   2.131   3.908 -0.1299 -0.0629 -0.1475
30549W        W46733  13.895   6.498   0.248  0.0072  0.0982 -0.1422
30550W        W46734   1.625  15.450  12.820  0.0679  0.1748 -0.1695
30551W        W46735   1.427   4.748  14.367  0.3136 -0.0085 -0.1943
30552W        W46736   8.235   7.333   0.824  0.2002 -0.0650 -0.2634
30553W        W46737   8.918  12.085   1.646  0.2002 -0.4487 -0.2260
30554W        W46738  13.960  14.855  13.516  0.4811 -0.1902 -0.1084
30555W        W46739   9.139   9.732   3.009  0.0167  0.2369  0.1115
30556W        W46740  16.957   9.149   1.429  0.0494  0.3242 -0.2374
30557W        W46741  11.089  15.393  13.517 -0.2819  0.1579  0.0758
30558W        W46742  17.859  14.087  16.116  0.1936 -0.1465 -0.0003
30559W        W46743   6.062   9.333   6.333 -0.0698 -0.0339  0.3011
30560W        W46744  10.050   5.564  15.783 -0.0426 -0.2802  0.2429
30561W        W46745   3.336   2.294  14.622  0.1521  0.1323 -0.1062
30562W        W46746  14.815   9.542  15.260  0.0766  0.1697 -0.1554
30563W        W46747  14.303  15.256   2.524  0.1312 -0.1592  0.0513
30564W        W46748  14.975   4.360   0.174 -0.1340 -0.2709 -0.1178
30565W        W46749  16.738  10.720   5.600 -0.1159  0.2108  0.2746
30566W        W46750   0.095  15.711  15.753 -0.0518  0.0421  0.2906
30567W        W46751   7.438   9.290  14.235  0.1554  0.2670 -0.0015
30568W        W46752  15.255   2.880   3.914  0.2372 -0.1281 -0.1464
30569W        W46753  14.208  15.984  16.336  0.2537  0.2267 -0.3869
30570W        W46754   0.619  14.538   1.887 -0.2796 -0.2193  0.0977
30571W        W46755   9.381   6.077   3.449  0.0632  0.0249 -0.1956
30572W        W46756  10.348  13.145   4.150  0.1404 -0.4008  0.2587
30573W        W46757   7.519   9.960  10.995  0.0211  0.0010  0.1037
30574W        W46758   4.832  16.489  12.632 -0.1261  0.3292  0.3254
30575W        W46759   5.259   5.601  13.791  0.0886  0.0357 -0.1022
30576W        W46760  10.506  16.282  16.462  0.1195  0.1288 -0.1437
30577W        W46761  15.227   0.238   5.223  0.1635  0.0606  0.0747
30578W        W46762   4.544   1.408  11.377  0.1086 -0.0390  0.1153
30579W        W46763  12.529  16.023  16.499 -0.2100  0.2624 -0.1842
30580W        W46764  11.273   3.095  16.532 -0.1590  0.1700 -0.0351
30581W        W46765   8.978  16.449  11.427  0.1174  0.0499  0.0775
30582W        W46766   8.611   4.872  12.486 -0.1011 -0.0957  0.0051
30583W        W46767   0.973   9.174   0.955  0.0790 -0.0422 -0.2044
30584W        W46768   8.632  16.088  11.807  0.1573  0.0702 -0.2715
30585W        W46769   2.742   8.472  13.664 -0.0250 -0.2154  0.1225
30586W        W46770   7.864  10.222  12.836  0.0199 -0.1088 -0.3500
30587W        W46771   6.718  13.095   1.673  0.0090 -0.5183 -0.0025
30588W        W46772   8.603  12.495  14.966 -0.0005  0.0884 -0.4446
30589W        W46773   2.509  11.910  14.170  0.1278 -0.2487 -0.1677
30590W        W46774  17.478  16.644   4.731 -0.2472 -0.2720 -0.0704
30591W        W46775   2.032  15.686   0.997 -0.1087 -0.0752  0.0488
30592W        W46776  15.388   2.733   1.730  0.1736 -0.1655 -0.1673
30593W        W46777   3.848  13.636   5.543 -0.0214 -0.3142 -0.0288
30594W        W46778   7.088  10.338  12.292  0.0480  0.1548  0.0431
30595W        W46779   6.142   2.380   0.592  0.2358  0.2182 -0.1001
30596W        W46780  13.717  16.697  14.046  0.3996  0.3949 -0.2382
30597W        W46781  17.625  15.145   0.127 -0.0487  0.3660 -0.0372
30598W        W46782   1.771   0.444  12.535 -0.0316 -0.1789 -0.4317
30599W        W46783   9.535  16.514   0.484 -0.0641  0.4509  0.2050
30600W        W46784   0.705  17.698  15.045 -0.3058  0.1879  0.0302
30601W        W46785   0.812   6.223   4.212  0.0251 -0.3601  0.2611
30602W        W46786  15.550   2.180  16.727  0.0500 -0.0365  0.1250
30603W        W46787   3.376  14.250  15.988  0.1714  0.0195  0.0659
30604W        W46788  11.397   0.145   0.923 -0.1857  0.0955 -0.0196
30605W        W46789  15.582  13.737  15.887 -0.2578  0.0371  0.2677
30606W        W46790  15.713  17.776   5.290  0.2718 -0.0560  0.0855
30607W        W46791   2.843   4.064   4.318  0.0885  0.2344  0.1766
30608W        W46792  12.112  12.305  14.089  0.0993  0.2265  0.1319
30609W        W46793  12.424  12.244   5.672  0.0159 -0.2282 -0.0135
30610W        W46794   1.469  10.452  16.413  0.2067 -0.3144  0.1699
30611W        W46795  11.902   9.568  11.914  0.0005  0.0329 -0.3836
30612W        W46796   4.611   7.615  14.882  0.0735  0.0608 -0.0094
30613W        W46797   0.215  11.091   2.411  0.0229  0.0473  0.0552
30614W        W46798   2.383  17.349  14.336  0.0826 -0.1295  0.1872
30615W        W46799  10.780  13.366  16.292 -0.2927 -0.1577 -0.1089
30616W        W46800   5.646   2.932   3.143 -0.2754  0.1803 -0.0793
30617W        W46801   5.435  15.237   5.999  0.1583 -0.2808  0.1366
30618W        W46802   0.161  16.220   2.094  0.0548  0.2069 -0.0966
30619W        W46803   0.540   7.050   1.601 -0.0632  0.1555  0.6098
30620W        W46804  11.529   1.797   1.993  0.2206  0.1837 -0.3731
30621W        W46805  10.626   2.921   0.425  0.0412  0.2027  0.1660
30622W        W46806  11.141  15.082   4.019  0.0788  0.6778 -0.1229
30623W        W46807   8.434   7.714   4.944  0.3554  0.1587 -0.2153
30624W        W46808  17.360   9.286  16.585  0.1880  0.1772 -0.0388
30625W        W46809   8.567   6.392   2.372 -0.2793 -0.0507  0.2001
30626W        W46810  17.159   2.587   2.724  0.0600 -0.0110  0.1971
30627W        W46811  14.411   2.442  14.103 -0.0102 -0.2478 -0.2340
30628W        W46812   2.122  13.483  16.097  0.0228 -0.0741  0.0588
30629W        W46813   9.960   0.558   0.523 -0.2050 -0.0243  0.0404
30630W        W46814  16.709   9.305   5.436  0.2759  0.1078  0.0921
30631W        W46815  17.043  16.061  14.540  0.1596  0.1572 -0.3845
30632W        W46816   7.259   3.247   4.854  0.1855 -0.1411 -0.2894
30633W        W46817   5.556  13.869  13.874  0.2600  0.0015  0.0346
30634W        W46818   2.813   9.944  12.408 -0.0580 -0.0614  0.0538
30635W        W46819  16.231  11.959   5.543  0.0374 -0.2026 -0.0775
30636W        W46820  15.716  13.228   1.760 -0.3185  0.1841 -0.0518
30637W        W46821   4.461   0.874   2.025  0.0056 -0.2004  0.0112
30638W        W46822   8.638  13.493  11.180 -0.2248 -0.0020  0.1153
30639W        W46823   2.138   2.133   1.325  0.0615  0.1483 -0.1421
30640W        W46824  17.041   6.355   5.865 -0.2497 -0.0604  0.0460
30641W        W46825   0.880   9.968   6.442  0.0241  0.0368 -0.2482
30642W        W46826  14.081  10.080  11.347  0.0466  0.1769  0.3180
30643W        W46827  15.561  16.050  13.405  0.1065  0.2667  0.1416
30644W        W46828   7.753   4.806  13.897  0.1031 -0.3101  0.0015
30645W        W46829   9.916  15.131   5.821  0.0360 -0.2789  0.1601
30646W        W46830   5.171   0.380  12.288 -0.0488 -0.1982  0.2146
30647W        W46831   5.466   2.124   1.328 -0.0091  0.1984  0.0400
30648W        W46832  12.837  11.768  14.335  0.3756  0.1233 -0.0983
30649W        W46833   5.628  15.856  12.783 -0.0877 -0.1288  0.0372
30650W        W46834  10.202   9.627  15.018 -0.1723  0.1210  0.1256
30651W        W46835   4.333  11.316   5.422  0.0283 -0.1719  0.0605
30652W        W46836  16.135  14.124   0.169 -0.3074  0.1989 -0.2037
30653W        W46837  17.864  12.710   0.560 -0.0489  0.1275  0.1948
30654W        W46838   0.034  12.624  13.438 -0.3271  0.2432  0.0420
30655W        W46839  10.566  13.300   0.349  0.0312 -0.2009 -0.2781
30656W        W46840   9.721  11.822  15.670  0.2886  0.2149  0.0704
30657W        W46841  13.698   0.766   0.465  0.1800  0.0491 -0.2178
30658W        W46842  11.040  16.582   5.347  0.0293  0.1422 -0.0208
30659W        W46843   6.716  17.563  14.455  0.2139  0.0196  0.1355
30660W        W46844  16.605  16.724   1.941 -0.0180 -0.1059 -0.1699
30661W        W46845   0.535   8.339   1.807 -0.1166  0.0018 -0.0453
30662W        W46846   8.552   4.481  15.167  0.0610  0.3214  0.1700
30663W        W46847   9.366  17.734   2.209 -0.0138  0.0290 -0.0259
30664W        W46848   6.768   8.272   3.204  0.0978  0.0541 -0.2107
30665W        W46849   3.332  16.938  15.710 -0.2207  0.1381 -0.3964
30666W        W46850  13.216  10.557   5.004 -0.1607 -0.1833 -0.0104
30667W        W46851  15.246   9.086  13.408 -0.0870 -0.1659 -0.2303
30668W        W46852   9.313   9.724   4.394  0.0487 -0.0962 -0.1908
30669W        W46853   0.821   2.821  14.043 -0.3484  0.0052 -0.4214
30670W        W46854  10.027   5.493  13.058 -0.2512  0.2366  0.1175
30671W        W46855  12.095   8.911  12.657  0.2175 -0.1587 -0.1207
30672W        W46856  14.350   3.521  12.383  0.1390  0.1263 -0.0542
30673W        W46857  17.214  10.938   1.071 -0.0597  0.2148 -0.1141
30674W        W46858   0.418   0.624   2.032  0.2649  0.0126 -0.0351
30675W        W46859   3.604   5.035   1.151  0.2370 -0.3278  0.0253
30676W        W46860   9.548  13.017   1.318 -0.1805  0.0617 -0.1328
30677W        W46861  11.123   0.303   4.678 -0.0721  0.0081  0.1749
30678W        W46862   3.375  11.209   5.742 -0.2780  0.2346 -0.1631
30679W        W46863   9.657  17.600   4.123  0.0291 -0.1834 -0.1511
30680W        W46864   2.055   3.785   1.377  0.0416 -0.3017  0.2763
30681W        W46865  12.145  11.635   3.395 -0.2637  0.1341 -0.0077
30682W        W46866  16.515   2.413  12.341  0.0292  0.1187  0.3397
30683W        W46867   0.271   5.480   4.361 -0.2187 -0.2618 -0.0112
30684W        W46868  11.647   5.919   3.198 -0.1655 -0.0007 -0.0895
30685W        W46869   4.845   1.306  15.275 -0.0302  0.1757 -0.0147
30686W        W46870   1.955  14.264   1.020  0.0793  0.0487 -0.0471
30687W        W46871   7.727  14.282  16.646  0.1110 -0.2208 -0.1847
30688W        W46872  10.249  14.500  11.030 -0.3085  0.0283 -0.1968
30689W        W46873   0.969   7.087   0.673 -0.1952  0.0024  0.1063
30690W        W46874   9.012   5.929  15.991  0.1328  0.1975  0.0172
30691W        W46875  13.553  11.525   5.890 -0.1008  0.0173 -0.0177
30692W        W46876   5.650   4.312  14.486  0.1889  0.0448  0.2516
30693W        W46877  12.543   7.832   1.364 -0.1610 -0.1597 -0.1405
30694W        W46878  17.502   2.065  12.831  0.0945  0.1024 -0.3537
30695W        W46879   8.182   8.606   3.872 -0.2936 -0.1142 -0.3079
30696W        W46880  15.745  15.565  13.714  0.0098  0.0176 -0.1871
30697W        W46881  15.445   3.914   1.899  0.4225  0.0689 -0.2401
30698W        W46882  11.888  12.893  15.519  0.0836  0.0894 -0.0186
30699W        W46883  15.098  16.179   1.365  0.0333  0.1078  0.0807
30700W        W46884   1.042   1.010  16.386 -0.1368 -0.1923  0.3928
30701W        W46885  15.273  15.151  12.807 -0.0964  0.1305 -0.0718
30702W        W46886   6.721  17.296   0.060 -0.2274 -0.2374 -0.2193
30703W        W46887  10.689   9.551   4.532 -0.0112 -0.2153  0.1948
30704W        W46888   3.655   5.334  11.524  0.3125  0.3959 -0.0567
30705W        W46889  16.737   8.667  14.112  0.1428 -0.0099  0.1363
30706W        W46890   9.304   5.338  13.192 -0.2082  0.0537 -0.0393
30707W        W46891   0.770   1.461  14.584 -0.2563 -0.0766  0.1449
30708W        W46892  15.397  10.512  14.321 -0.2745 -0.0686  0.2524
30709W        W46893  14.469   9.328   6.190 -0.0646  0.2054  0.4011
30710W        W46894   9.661   4.739  14.280 -0.1551 -0.3131  0.2095
30711W        W46895  10.199   7.642   2.683  0.3855 -0.1104 -0.0139
30712W        W46896  13.412  14.589   4.727  0.0477  0.3264  0.0659
30713W        W46897  12.985   6.105  14.570  0.2263 -0.1168  0.1741
30714W        W46898   1.067   6.686   4.928 -0.0123 -0.3525 -0.2597
30715W        W46899   7.151   3.124   5.552 -0.1154  0.0891 -0.1872
30716W        W46900   4.789   5.451  12.520  0.0515 -0.5184  0.1748
30717W        W46901  14.177  14.079   0.478 -0.2159 -0.1901 -0.3206
30718W        W46902  11.217  10.449  14.763 -0.2173  0.0047 -0.0917
30719W        W46903  10.769   4.684   3.865 -0.4672  0.0672  0.1109
30720W        W46904   1.667  10.141   3.739  0.1474 -0.0767  0.3563
30721W        W46905   8.943   4.206   4.292  0.1224 -0.0940 -0.1309
30722W        W46906   1.919  15.980  15.024  0.1629  0.0229  0.2698
30723W        W46907  10.284   8.793   6.415  0.2163  0.0231  0.3317
30724W        W46908   7.434  10.818   3.734  0.0096  0.0657  0.0453
30725W        W46909  12.818   7.538  12.526  0.1877 -0.1641  0.1595
30726W        W46910   2.765   9.174  15.479 -0.3576  0.0547  0.2428
30727W        W46911  15.672   9.278  12.770  0.3071 -0.0912 -0.0386
30728W        W46912   7.835   8.704  14.762  0.1915  0.0983  0.1428
30729W        W46913   9.439  15.050  11.772  0.0728 -0.4622  0.1388
30730W        W46914  15.543   7.133  13.523  0.0199 -0.2154  0.0243
30731W        W46915  13.934  12.631  16.551 -0.0355 -0.0145  0.0523
30732W        W46916   0.458  13.570   0.421  0.0534 -0.2694  0.1577
30733W        W46917  17.698   3.429  15.144  0.0276  0.1902  0.0245
30734W        W46918  10.736  13.322  15.053 -0.0901  0.0196 -0.0839
30735W        W46919   8.276  10.891  13.516 -0.0546  0.1940  0.0559
30736W        W46920   8.476   7.605   6.425 -0.0181 -0.0143  0.0431
30737W        W46921  10.861   6.021  15.341 -0.1707 -0.2134 -0.0291
30738W        W46922   0.795  13.514  15.960 -0.0533  0.3198  0.1514
30739W        W46923   5.995  11.158  11.625 -0.0314  0.1949 -0.0421
30740W        W46924   5.448  10.059  14.976  0.0267 -0.1379  0.2807
30741W        W46925  11.395   1.305  14.930 -0.0455 -0.0646  0.1355
30742W        W46926  16.612  16.364  14.468  0.0869  0.0502  0.1983
30743W        W46927   5.840   4.732  12.592 -0.1804  0.1854  0.1581
30744W        W46928  13.867  12.716   0.121 -0.2578  0.1073  0.2178
30745W        W46929   5.905   2.815   1.309 -0.1154  0.2602  0.1722
30746W        W46930  14.845  16.944   0.629  0.1861 -0.0618 -0.1689
30747W        W46931   7.218   7.098   1.894 -0.0324  0.1183  0.1700
30748W        W46932   4.247   2.204  13.700  0.2046 -0.2045 -0.2727
30749W        W46933   7.961  15.008   2.515 -0.1851 -0.0040 -0.0953
30750W        W46934   3.439   0.338   0.177  0.3827 -0.2784  0.0483
30751W        W46935  12.070  12.929  16.825 -0.1556 -0.0303  0.0901
30752W        W46936   2.065   2.666   5.012  0.3230  0.0154 -0.0478
30753W        W46937  11.781  14.133  16.259  0.2388 -0.2204 -0.1823
30754W        W46938   3.462   4.085   3.727 -0.0369  0.0787 -0.0718
30755W        W46939   0.071  13.382   1.535 -0.0089 -0.0118  0.0414
30756W        W46940  11.761  11.766   0.940 -0.1907 -0.0241 -0.1270
30757W        W46941  11.674  17.083  16.099  0.1233  0.0724 -0.0135
30758W        W46942   8.635  14.896   4.387  0.0413  0.0322 -0.0598
30759W        W46943   3.225  17.828  14.089 -0.0368  0.1652 -0.0747
30760W        W46944   5.660   8.082   5.035  0.1580  0.0645 -0.1196
30761W        W46945   6.530  16.514   0.118 -0.1083  0.0036 -0.1907
30762W        W46946  16.261   6.913   0.381  0.1944  0.1602 -0.0441
30763W        W46947   2.472   4.808  11.828  0.0823 -0.2379 -0.2149
30764W        W46948   3.814   7.107  15.704 -0.1437 -0.1765 -0.0344
30765W        W46949  14.167   2.771  14.881  0.4996  0.0805 -0.0224
30766W        W46950   7.289   0.312   2.966 -0.0538  0.0519  0.2046
30767W        W46951   0.087  10.150   1.046 -0.0320 -0.1646 -0.0754
30768W        W46952   7.084   8.159  13.960 -0.1040  0.4722 -0.4724
30769W        W46953   4.602  10.890   5.434 -0.1081  0.0597  0.0898
30770W        W46954  10.302  11.916  15.487  0.1264  0.1653 -0.2095
30771W        W46955   1.678   1.352  12.311 -0.1314  0.3053 -0.2364
30772W        W46956   5.720  14.767  11.702 -0.2938  0.1733 -0.0268
30773W        W46957   9.275  11.090   2.229 -0.2055  0.2276 -0.0412
30774W        W46958   4.278   4.995  15.988  0.1444 -0.0522 -0.2492
30775W        W46959   0.600   8.072  12.013  0.3027 -0.3459  0.1599
30776W        W46960   0.633   8.380   4.045  0.0944  0.0225 -0.0896
30777W        W46961  10.820  14.224   1.020 -0.1130 -0.1745  0.2209
30778W        W46962  14.017  17.327  13.103 -0.0469 -0.1107  0.0842
30779W        W46963  17.324  12.722   5.042 -0.2480  0.0015 -0.3452
30780W        W46964   7.860   7.912  11.327 -0.1417  0.0169 -0.0912
30781W        W46965   7.109   7.752   4.699 -0.3122  0.2321 -0.0225
30782W        W46966   7.272   7.126   1.309 -0.0876  0.0140  0.1433
30783W        W46967   8.889   4.829   3.555 -0.0414 -0.1536 -0.4790
30784W        W46968   6.713   9.820  13.670  0.5175 -0.2015 -0.1208
30785W        W46969  15.005   8.387   5.325  0.1199  0.1367 -0.1535
30786W        W46970  16.592   3.224  13.667  0.1178 -0.1794  0.0524
30787W        W46971  15.587   7.730  14.774 -0.1766 -0.0514  0.3304
30788W        W46972   1.627   8.180   0.978  0.4555 -0.1038 -0.2462
30789W        W46973  14.965  16.802   2.087  0.1369 -0.0387  0.0533
30790W        W46974   2.387  12.289   0.117  0.2086  0.0199  0.0880
30791W        W46975  13.335   9.110  16.637 -0.1082 -0.0092 -0.1419
30792W        W46976   4.856  10.563   2.113  0.1906  0.0387  0.1447
30793W        W46977   3.176   0.815   3.417 -0.1891  0.2082 -0.1192
30794W        W46978   7.477  13.691   4.010 -0.1580  0.2246  0.3376
30795W        W46979   3.974   7.348  16.101  0.0110 -0.3299  0.0270
30796W        W46980  16.603  14.464  12.771  0.0032  0.1445  0.4030
30797W        W46981  16.491   3.643   0.069 -0.1344  0.1201  0.0058
30798W        W46982   8.763  14.807   1.897 -0.2696  0.1362 -0.1244
30799W        W46983  12.934  13.609  13.981  0.0740 -0.1290 -0.2440
30800W        W46984   7.200  10.561   4.360 -0.0800 -0.0713  0.1044
30801W        W46985  12.481   7.965   4.670  0.0102  0.3857  0.1068
30802W        W46986   9.916   4.609  15.415 -0.0060 -0.0644  0.1906
30803W        W46987   6.768  16.307  16.169 -0.1319  0.1459  0.0428
30804W        W46988  10.466  15.513   1.834  0.0364 -0.0682  0.2064
30805W        W46989  16.686  15.275  15.771  0.0882 -0.0265 -0.0689
30806W        W46990   2.300  12.476   3.871 -0.1676  0.4610 -0.0586
30807W        W46991   7.693   3.367   1.306  0.3833  0.0710  0.0605
30808W        W46992  17.626   0.796  15.522  0.0468 -0.4321  0.1842
30809W        W46993   8.150  15.536  13.578  0.1147 -0.0266  0.0264
30810W        W46994  10.242  10.886   4.435 -0.0561 -0.2822 -0.0104
30811W        W46995  12.276   7.389   4.407 -0.0667 -0.1576  0.1978
30812W        W46996   7.683   3.346   3.513 -0.0240 -0.0027  0.0251
30813W        W46997   4.607  14.148  15.422 -0.1218 -0.1387 -0.0355
30814W        W46998   8.018  11.194  16.294  0.0845  0.1007  0.1417
30815W        W46999   8.530   5.865  11.926  0.1382 -0.0979 -0.1898
30816W        W47000   9.898   1.955   5.330  0.0572  0.1472 -0.1100
30817W        W47001   5.509  10.079   4.961  0.0509 -0.2314 -0.1223
30818W        W47002   6.129   4.811   1.692  0.1124 -0.1530 -0.0200
30819W        W47003   0.529  16.348  11.895 -0.2048  0.2443 -0.1373
30820W        W47004   0.046  16.447  11.641  0.0436  0.1451 -0.1152
30821W        W47005  17.852   5.530  15.341 -0.0800  0.1784 -0.2266
30822W        W47006  16.955   0.265   2.329  0.0631 -0.3499 -0.0378
30823W        W47007   5.478   9.844   1.112  0.3661  0.3111  0.4649
30824W        W47008   1.964  17.096   3.437  0.2461 -0.0978  0.1659
30825W        W47009  16.041  10.504   1.549  0.0065 -0.2011  0.1282
30826W        W47010   6.923  12.725  14.964 -0.1142 -0.4031 -0.4457
30827W        W47011  10.421   9.759   4.123 -0.0915  0.0890  0.0972
30828W        W47012   5.209   6.746  15.951 -0.1427 -0.1477 -0.3926
30829W        W47013   1.572  15.411   0.228 -0.1966 -0.2296 -0.1624
30830W        W47014  13.789   0.146   4.544 -0.6033  0.2959 -0.2032
30831W        W47015   9.396   7.990   4.870  0.3073 -0.1735  0.0793
30832W        W47016   5.754  11.266   3.335  0.0755 -0.0630 -0.0288
30833W        W47017  13.847   9.250   0.484 -0.0790  0.2480  0.0021
30834W        W47018   6.967   2.057   3.810 -0.1933 -0.0671 -0.1250
30835W        W47019  13.495   8.240   3.342  0.0095  0.1464 -0.0499
30836W        W47020   6.493   0.559   1.290  0.0281 -0.1348  0.1539
30837W        W47021   5.890  16.757   1.376  0.0811  0.3566 -0.2137
30838W        W47022  10.985   9.631  13.952 -0.2715  0.0929 -0.1270
30839W        W47023   5.121  14.608  13.678  0.0917 -0.3961  0.0289
30840W        W47024  13.981  16.982   5.730  0.1051 -0.1595 -0.0193
30841W        W47025   8.618  15.789   4.959  0.2187 -0.0313  0.1633
30842W        W47026   7.489  11.764   5.055 -0.1529 -0.2650 -0.2886
30843W        W47027  14.922  16.165   6.027  0.2080 -0.1422 -0.1082
30844W        W47028  12.846   2.067   2.286  0.0856  0.1254 -0.1631
30845W        W47029   0.156   8.710   0.627 -0.0307 -0.1399  0.0655
30846W        W47030   0.705   7.848   1.265  0.0718  0.0990  0.2424
30847W        W47031  11.928   1.932   4.820 -0.0190 -0.1570 -0.2040
30848W        W47032  13.362   8.419  12.367  0.0599 -0.1269 -0.2751
30849W        W47033  15.007   7.440  16.757 -0.0784 -0.3355 -0.0602
30850W        W47034   6.355  13.210  13.853 -0.4787  0.1047  0.1624
30851W        W47035   3.504   1.402  14.903  0.3907 -0.1213 -0.2576
30852W        W47036   0.206  12.396   0.817 -0.2555  0.2998  0.2711
30853W        W47037  15.177   3.561  12.887 -0.1700 -0.1646  0.3227
30854W        W47038   0.610  13.170  14.050 -0.0309  0.2711 -0.0559
30855W        W47039  16.674   5.163   0.367 -0.1746 -0.0053  0.0450
30856W        W47040   6.480  14.315   2.226 -0.0632 -0.2265  0.0871
30857W        W47041  10.200  11.978  11.487 -0.0635 -0.3911  0.0602
30858W        W47042  12.701  12.426  14.874 -0.3798 -0.1501 -0.1902
30859W        W47043  16.012  13.226  15.143  0.1390  0.2360  0.3594
30860W        W47044   6.741  15.069  14.461  0.1539  0.2273  0.0149
30861W        W47045   8.564  13.793  11.618 -0.1007  0.2797 -0.1435
30862W        W47046   8.553   9.880   4.892  0.0098  0.1065 -0.1467
30863W        W47047   8.115   0.055   4.520 -0.1442 -0.2414  0.4754
30864W        W47048  16.725  16.193  14.018  0.0911 -0.3221  0.1540
30865W        W47049   1.424   4.126   4.804  0.0825  0.1124  0.0775
30866W        W47050   6.509  17.650   2.739 -0.0500  0.4213  0.1924
30867W        W47051   1.623  11.476   3.730  0.0933 -0.0995 -0.0507
30868W        W47052   3.725   0.962   5.224  0.1618  0.1578  0.2633
30869W        W47053   2.734   6.738  13.305 -0.3497  0.0263 -0.3452
30870W        W47054   3.863  17.236   0.438  0.1591 -0.2082  0.0670
30871W        W47055   0.801   9.466   5.107 -0.0120 -0.0822 -0.2341
30872W        W47056   5.327  11.312   5.701 -0.1412  0.0463 -0.0682
30873W        W47057   9.494   4.464  15.178 -0.0076 -0.0909  0.2249
30874W        W47058   3.866   0.028   5.148 -0.0729  0.0932 -0.2062
30875W        W47059  17.858   1.600   1.344  0.1552  0.2783 -0.0582
30876W        W47060   1.338  10.025  16.662 -0.0605  0.2328  0.0073
30877W        W47061   6.320   3.813  13.947  0.1438  0.1104 -0.1179
30878W        W47062  11.136  11.822  12.975 -0.0928 -0.3006  0.1340
30879W        W47063   8.142  16.250   4.307 -0.1850  0.1203 -0.2210
30880W        W47064   9.226   1.046  15.546 -0.4760 -0.1367 -0.0352
30881W        W47065  11.313   6.114   2.046 -0.0856  0.0376  0.1594
30882W        W47066  11.812  11.171   6.098  0.2750  0.3453  0.0455
30883W        W47067  12.525   2.868   3.306 -0.1234 -0.0270  0.2154
30884W        W47068  14.381  13.392   0.253  0.2223 -0.0028 -0.1416
30885W        W47069   0.302   9.730  13.140 -0.0248  0.2466 -0.0499
30886W        W47070   5.021   8.431   1.117  0.0001 -0.1860  0.0963
30887W        W47071   7.686  11.975  15.858 -0.1912  0.0321 -0.0680
30888W        W47072  10.736  14.971  16.017 -0.2532  0.2819  0.1052
30889W        W47073  16.529  12.414   0.405 -0.1293 -0.3724  0.2048
30890W        W47074  15.605   3.707  14.508  0.0407 -0.0521 -0.0201
30891W        W47075   0.097   1.790  11.731 -0.0806 -0.0439 -0.0065
30892W        W47076   7.025   5.947  16.359  0.0341 -0.0541  0.0825
30893W        W47077   3.104  13.584  12.725 -0.0846 -0.0981  0.1929
30894W        W47078  11.837  13.081  13.021 -0.0458 -0.1902  0.2055
30895W        W47079  15.558  14.060   1.880 -0.2592  0.2969  0.2803
30896W        W47080   8.308  17.516  12.711 -0.0503  0.2470 -0.3077
30897W        W47081  11.554  12.774   4.824  0.1258 -0.0093  0.0794
30898W        W47082  14.091   7.952  14.718 -0.1191 -0.6875 -0.2082
30899W        W47083   5.884   9.540  13.919  0.0403 -0.0679  0.3903
30900W        W47084   8.735   4.456  14.321 -0.4291  0.2812  0.1753
30901W        W47085   3.585   6.384   3.884  0.2103 -0.1249  0.2800
30902W        W47086  12.052   6.922   4.258  0.2868 -0.0035  0.1770
30903W        W47087   1.256  17.119   0.935  0.3063  0.1760 -0.1660
30904W        W47088   3.267  10.034  15.863 -0.0488 -0.0540  0.2185
30905W        W47089  12.995   1.720  16.835  0.1336  0.3266 -0.0075
30906W        W47090  14.228   5.902  12.018  0.2428 -0.0809  0.0146
30907W        W47091   7.736  11.643  15.012 -0.0599 -0.1459  0.1767
30908W        W47092  10.821  11.023  12.926 -0.0905  0.0754 -0.0694
30909W        W47093  13.044   0.243  13.323  0.2218  0.0791  0.0615
30910W        W47094   8.157   4.590  12.795 -0.0960  0.0937 -0.0258
30911W        W47095   6.052  14.597   0.416 -0.1632 -0.1687 -0.0485
30912W        W47096  13.736  12.629  14.858 -0.3145 -0.1197  0.0026
30913W        W47097   3.469  10.667   2.670 -0.1599  0.5065  0.1995
30914W        W47098   7.623  17.682  11.786  0.1670 -0.3421 -0.0344
30915W        W47099  15.808   3.111   4.478  0.0213  0.0565 -0.1126
30916W        W47100   0.791   0.428  13.668  0.3683  0.1667  0.1021
30917W        W47101  13.383  15.751   4.592  0.2012  0.1726  0.3409
30918W        W47102   1.165   5.689  16.727 -0.3157 -0.2616  0.0423
30919W        W47103   8.928  17.079  12.701  0.0292 -0.2629  0.4889
30920W        W47104  15.327   1.038   3.689  0.2283 -0.0748  0.1069
30921W        W47105   9.687   3.853  13.050 -0.3777  0.1465  0.3724
30922W        W47106   2.964   8.031  15.918 -0.0458  0.3359  0.1886
30923W        W47107  10.028  12.159  14.690  0.0341 -0.0880 -0.4246
30924W        W47108  13.332  11.115   5.649 -0.0700  0.1923 -0.1809
30925W        W47109  10.788   0.451  13.636 -0.1512  0.0347  0.4401
30926W        W47110   8.828  12.536   0.120  0.1137  0.0954  0.0656
30927W        W47111   2.685   5.659  16.673  0.2188  0.2435  0.2090
30928W        W47112   8.858  15.530   5.293 -0.0392  0.0277 -0.0522
30929W        W47113   8.116   1.435  15.937  0.3556  0.2559 -0.4957
30930W        W47114   9.441   2.189  12.563 -0.0889  0.3546 -0.4145
30931W        W47115  17.871   1.887  14.483  0.1633  0.0154  0.0827
30932W        W47116   7.930  10.185   0.837  0.0700 -0.0425 -0.1509
30933W        W47117   4.229   7.638   2.904 -0.2584 -0.1731  0.2716
30934W        W47118   5.649  12.669   1.843  0.1325  0.1157 -0.2209
30935W        W47119  15.880   8.080   5.830  0.0512  0.1250  0.0580
30936W        W47120   3.231   3.645   0.805  0.1049 -0.1221  0.1066
30937W        W47121   4.351  12.709   6.175 -0.0394 -0.0992 -0.2464
30938W        W47122   1.288   5.486  13.891 -0.0026  0.0588  0.2033
30939W        W47123   1.155  17.836  14.831  0.1715  0.3729  0.2311
30940W        W47124   0.825   6.977  12.767  0.2080  0.2872 -0.1623
30941W        W47125   3.375   8.889   5.128  0.3441 -0.0027 -0.1060
30942W        W47126   4.163   4.745   2.215  0.0305 -0.1264  0.0399
30943W        W47127  12.936  11.378  12.674 -0.5077  0.0887 -0.3137
30944W        W47128   0.642   0.384  15.673 -0.2008 -0.1788  0.2362
30945W        W47129   2.229  11.810  12.352 -0.2153  0.3471 -0.0896
30946W        W47130  14.730   6.023   5.798 -0.1981 -0.1174  0.3719
30947W        W47131   5.715  12.271  12.504  0.2698 -0.0453  0.1455
30948W        W47132   1.909   8.285  13.428 -0.1416  0.3165  0.3996
30949W        W47133   3.539   4.192   2.314 -0.2465 -0.1178 -0.1437
30950W        W47134   8.470   8.591  12.142 -0.0054  0.0915  0.2612
30951W        W47135  15.011  16.981  16.381  0.1889 -0.6126  0.1038
30952W        W47136   0.680  13.040   0.202  0.2326 -0.0854  0.0397
30953W        W47137   6.270  11.627  12.179  0.0783  0.0691 -0.0610
30954W        W47138  16.706   1.773   5.226  0.0003 -0.0586 -0.0054
30955W        W47139   6.577  16.626   0.682  0.1333 -0.0694  0.2016
30956W        W47140  11.920  13.977  15.337 -0.3006  0.1921  0.0121
30957W        W47141  11.187   2.733   0.459  0.0412 -0.4543 -0.0684
30958W        W47142  10.124   1.075  15.833 -0.0876  0.0026 -0.0342
30959W        W47143   6.083   8.385   3.849 -0.1446 -0.0965  0.2157
30960W        W47144   9.600   8.600   5.837 -0.3871 -0.2153 -0.1366
30961W        W47145   5.666  10.654   3.178  0.1060 -0.0585 -0.3835
30962W        W47146  13.826  13.690  13.481 -0.1037 -0.1186  0.1985
30963W        W47147   8.753   0.563   4.685 -0.3226 -0.2452 -0.3958
30964W        W47148   1.602  15.862   2.979  0.2227 -0.0527 -0.2154
30965W        W47149   4.586  10.891   1.878 -0.2818  0.0890 -0.2049
30966W        W47150   4.262  13.789   0.221 -0.4623  0.0419  0.0826
30967W        W47151  11.473  12.439   5.525  0.0133  0.0872 -0.0147
30968W        W47152   3.031  13.242  14.361 -0.1571 -0.3349  0.1139
30969W        W47153   0.939  12.553   0.030  0.0806 -0.3067 -0.2136
30970W        W47154  15.966  15.481   2.684  0.3209 -0.2802  0.2951
30971W        W47155  13.315  16.032  13.372  0.0914  0.0026  0.1198
30972W        W47156   9.343   8.217   5.551 -0.1918 -0.1099  0.1495
30973W        W47157   0.419   2.411   5.192  0.1538 -0.0257 -0.2069
30974W        W47158   1.942  11.516   1.422 -0.0721 -0.2536 -0.3469
30975W        W47159   0.752   9.769   4.130 -0.1065 -0.0291 -0.0452
30976W        W47160   7.833   8.334   3.690  0.3860 -0.2492 -0.0224
30977W        W47161   7.828  16.457   3.992  0.0346  0.0434  0.1866
30978W        W47162   7.571   9.891   3.872 -0.1423  0.2676 -0.0766
30979W        W47163   1.945  10.077  13.567 -0.2417 -0.0753 -0.0995
30980W        W47164  13.306  17.124  12.221 -0.2358  0.2769  0.0543
30981W        W47165   8.160   8.920   2.001 -0.0006  0.2165 -0.0612
30982W        W47166  16.099  15.016   3.299 -0.0360  0.4531  0.0226
30983W        W47167  17.885  10.132  16.437 -0.0186  0.0651  0.0113
30984W        W47168  14.470   7.590  13.982 -0.0743  0.0662 -0.0328
30985W        W47169  10.216   8.847  12.586  0.0656 -0.1903 -0.0239
30986W        W47170   8.159   2.742  12.377 -0.2204 -0.2278  0.2402
30987W        W47171  12.178  13.643  16.153  0.1347  0.1294 -0.0800
30988W        W47172   5.142  17.491   4.709 -0.0234  0.1192 -0.1470
30989W        W47173  12.383  10.076   1.561  0.2104 -0.2189  0.0383
30990W        W47174  12.555   7.801  14.024 -0.1176 -0.0475  0.2013
30991W        W47175  12.087   7.461  11.764 -0.0084 -0.0017 -0.0656
30992W        W47176  10.858   3.338   5.864 -0.1780  0.0144  0.1087
30993W        W47177   5.147   8.078  12.828  0.0527 -0.0183  0.0086
30994W        W47178   0.197  13.813   4.527  0.0679 -0.0490 -0.0210
30995W        W47179  16.057   4.014  16.895 -0.0168  0.1458  0.2033
30996W        W47180  16.322  10.675  15.057 -0.2850  0.3685 -0.1217
30997W        W47181   7.119  13.045  15.323 -0.2759 -0.0312  0.1335
30998W        W47182   0.735  16.860  14.276  0.0902  0.0788 -0.4055
30999W        W47183   0.863  12.269   3.882  0.0384  0.0904 -0.1360
31000W        W47184  15.805   2.234   3.217  0.2193 -0.2582 -0.0919
31001W        W47185  12.495  12.792   5.666  0.2191 -0.4740 -0.0866
31002W        W47186  16.336   0.231  14.151  0.1843  0.1821 -0.1417
31003W        W47187  10.161  10.441  12.935 -0.0663 -0.3134  0.2914
31004W        W47188   9.119  13.558  15.909 -0.1601  0.0217  0.0085
31005W        W47189  15.821  12.577  11.608 -0.4215 -0.1230 -0.1608
31006W        W47190   1.846  11.489   3.188 -0.0566  0.1265 -0.0509
31007W        W47191  17.180  15.584  12.349 -0.3870  0.2196  0.2596
31008W        W47192   6.276   3.255   2.846 -0.2124  0.2236  0.1450
31009W        W47193   5.825   3.498  12.354  0.2958  0.1347 -0.0467
31010W        W47194   5.235   7.566  15.846 -0.0661  0.0981  0.0597
31011W        W47195   5.022   2.915   4.932 -0.0645  0.0721 -0.2572
31012W        W47196  13.399  15.805   5.641  0.2661 -0.0607  0.1492
31013W        W47197   5.967   8.084  13.663 -0.0726  0.1456  0.1489
31014W        W47198   0.823  13.116  13.004  0.2359 -0.2946  0.0239
31015W        W47199  12.558   9.105  11.990 -0.1912  0.0350  0.0451
31016W        W47200  14.341   0.207  10.538  0.2993  0.1192  0.1183
31017W        W47201  14.234   8.714  16.227 -0.0188 -0.1707  0.1136
31018W        W47202   7.402   1.922   5.024 -0.2677  0.5037 -0.0851
31019W        W47203   9.670   1.793   2.198 -0.2651 -0.2377 -0.2291
31020W        W47204   5.470  12.477   1.384 -0.1444 -0.1616  0.1491
31021W        W47205   6.235   6.276  14.344  0.1031  0.0341  0.1018
31022W        W47206   7.134  10.497  15.445 -0.3431  0.2013  0.2853
31023W        W47207   2.662  10.522   5.992 -0.1647 -0.2263 -0.3132
31024W        W47208   5.455   4.349   2.390  0.2539 -0.1361 -0.0534
31025W        W47209  16.910  17.045  11.930  0.3248  0.0631 -0.2483
31026W        W47210   2.957  15.628  15.821 -0.1103 -0.0338 -0.1340
31027W        W47211  14.335   9.393   3.224 -0.0514  0.2940 -0.1024
31028W        W47212  15.741   3.527   1.658 -0.0543 -0.1460 -0.0745
31029W        W47213   0.105   7.447   3.074 -0.2801 -0.2106  0.1158
31030W        W47214   2.271  13.402   2.806  0.0931 -0.1781 -0.0886
31031W        W47215   0.236   5.124  16.280 -0.2091 -0.0286 -0.4253
31032W        W47216  12.918  13.623   0.792 -0.4208 -0.0235  0.1126
31033W        W47217   2.681   7.848   4.803  0.0008 -0.1299 -0.2665
31034W        W47218  14.659  13.706   5.675  0.1250  0.2594 -0.0191
31035W        W47219  11.735  11.459   5.514  0.2022 -0.1559 -0.0089
31036W        W47220  14.146   6.585  16.666 -0.2286 -0.1840 -0.0547
31037W        W47221   4.290  16.261   3.534  0.0171 -0.2322  0.2180
31038W        W47222   2.327  11.534   4.927  0.0473  0.0208  0.2854
31039W        W47223   9.017   7.461   4.182  0.1850 -0.1234  0.3506
31040W        W47224  11.515   9.900  15.650 -0.1124 -0.0356  0.1651
31041W        W47225   6.456   4.538  16.230  0.1071  0.4296 -0.1699
31042W        W47226  10.399  16.749   3.718  0.0966 -0.2129  0.1123
31043W        W47227   4.438   8.015   5.534 -0.2093 -0.1863  0.0325
31044W        W47228   6.692  11.300   4.803  0.1404  0.1687 -0.1388
31045W        W47229   1.472  16.041  11.437  0.0146  0.2319  0.0193
31046W        W47230   9.066  14.183  12.643  0.1868 -0.2544  0.1940
31047W        W47231   6.955   4.409  16.028  0.0464 -0.1400 -0.0463
31048W        W47232   7.715  16.009   4.121  0.0347  0.1217  0.0826
31049W        W47233   8.248   3.957   3.854  0.0707  0.2713 -0.2332
31050W        W47234   5.749  13.701  15.013  0.0337 -0.0195  0.4548
31051W        W47235   5.198   1.641  11.779  0.1342  0.1256 -0.0386
31052W        W47236   2.248  14.467   2.463 -0.2220  0.0833 -0.2827
31053W        W47237   5.346   2.128  15.036  0.0539 -0.2064 -0.1942
31054W        W47238   5.907   1.186   1.258  0.1086 -0.0329  0.0760
31055W        W47239   6.209  16.843   3.339  0.1972 -0.1044 -0.0531
31056W        W47240  17.313   9.262  13.289 -0.0134 -0.0942 -0.1895
31057W        W47241  13.213   4.078  12.108  0.0602  0.0711 -0.0105
31058W        W47242   0.345   5.584   3.194  0.3114  0.0916  0.1065
31059W        W47243   1.592   5.724  16.478  0.0825 -0.0125 -0.3303
31060W        W47244   9.945   3.678  16.917 -0.0312 -0.1492  0.4163
31061W        W47245  17.856  13.673  14.729 -0.0073 -0.0604  0.2248
31062W        W47246   4.111  10.081  16.878  0.1593 -0.0433 -0.0624
31063W        W47247  17.144  13.945  16.391  0.1390 -0.2173 -0.2133
31064W        W47248  11.527  12.836  12.733 -0.2794  0.3056  0.1140
31065W        W47249  10.874  15.196  11.347  0.1899  0.3817 -0.0760
31066W        W47250   9.368   8.985  16.443 -0.0468  0.1667 -0.3246
31067W        W47251  11.495   4.143   2.538 -0.0561 -0.1722  0.1964
31068W        W47252  15.248  12.098  16.236  0.1425 -0.0685 -0.2140
31069W        W47253   9.302   5.091  14.484  0.2471  0.5748 -0.2647
31070W        W47254  13.079  15.509   4.986  0.0688 -0.1434 -0.0864
31071W        W47255   3.765   2.350   3.807 -0.0653 -0.1358  0.1531
31072W        W47256   4.286  15.141   4.386  0.0171  0.2582 -0.1418
31073W        W47257   3.687  10.355   5.398  0.1555 -0.0229 -0.0007
31074W        W47258   6.005  14.251  15.035 -0.2383 -0.1004 -0.0758
31075W        W47259   2.227   4.654  14.654 -0.5088  0.1665  0.1600
31076W        W47260  17.096   8.224   4.604 -0.0137 -0.0700  0.0165
31077W        W47261   5.447   4.906   1.174  0.0583 -0.4569  0.0259
31078W        W47262   9.191  11.838   3.315 -0.3255  0.4782  0.0151
31079W        W47263  12.220  14.151  12.090 -0.0136  0.1931  0.0162
31080W        W47264  15.011   5.333   2.459  0.0672 -0.0926  0.0294
31081W        W47265   4.303  12.123  10.276 -0.2279 -0.2290 -0.0032
31082W        W47266   4.567  17.475  13.489 -0.2212 -0.0626  0.0851
31083W        W47267   3.277   6.432  15.938  0.0569  0.0470 -0.0128
31084W        W47268  10.356  13.026   4.893  0.0500 -0.0927 -0.0373
31085W        W47269  16.338   1.320  15.114  0.0178  0.1247 -0.0310
31086W        W47270   7.918   2.512   1.661  0.0357 -0.1079 -0.3718
31087W        W47271   1.478  15.819   3.459  0.0383 -0.1636  0.2081
31088W        W47272   4.530  13.639   0.609  0.2769 -0.0509 -0.3475
31089W        W47273  14.195  15.432  16.318  0.0816 -0.1875 -0.1951
31090W        W47274  11.114  10.897  12.510 -0.0362 -0.1104  0.4267
31091W        W47275   9.520   1.917  12.144 -0.0280  0.2881  0.0706
31092W        W47276  15.607   7.248  15.825  0.1737 -0.0384 -0.3496
31093W        W47277   9.924   1.108   2.545  0.3495 -0.1761  0.2581
31094W        W47278  11.337  17.458   0.744 -0.2814  0.0680 -0.2129
31095W        W47279   1.146   0.233   3.130  0.1869  0.1958  0.2343
31096W        W47280   5.474  14.247  11.797 -0.2645  0.1684  0.2739
31097W        W47281   2.490   9.361   1.180  0.4425  0.0306  0.1254
31098W        W47282   3.211  13.861  12.248  0.1554  0.1525 -0.1345
31099W        W47283   5.046  10.666  14.991  0.4410 -0.0070  0.0785
31100W        W47284   5.473  15.337   1.450  0.0958  0.2711  0.3429
31101W        W47285  16.909  14.986   1.479  0.1954  0.1509  0.1668
31102W        W47286   3.135  10.357   5.511 -0.0076  0.0157 -0.1218
31103W        W47287   8.037   4.961   3.030 -0.1355  0.3088  0.0198
31104W        W47288   9.971   2.620   1.954 -0.0308 -0.1340 -0.1208
31105W        W47289   8.705   3.088   5.939 -0.1842 -0.1375 -0.0758
31106W        W47290   5.246   7.902   1.751 -0.0014  0.0920 -0.2065
31107W        W47291  13.375   0.306   4.215 -0.0225  0.0473  0.0140
31108W        W47292   7.657   9.368   0.994 -0.1621 -0.4042  0.4121
31109W        W47293   5.735  15.823   5.362 -0.3472  0.1981  0.1413
31110W        W47294   1.595  14.068  16.883 -0.2577 -0.1462 -0.0108
31111W        W47295  11.939   9.718   4.121 -0.2670  0.1815 -0.1810
31112W        W47296  14.635   7.255   4.658 -0.1239  0.0763  0.2213
31113W        W47297   7.936  16.421  15.612  0.0528 -0.0345 -0.1192
31114W        W47298  16.399   3.221   1.276  0.1231 -0.3994 -0.1281
31115W        W47299  16.902  17.193  12.744 -0.0157 -0.1812  0.1594
31116W        W47300   5.599  12.997   2.802  0.2280  0.0570 -0.0876
31117W        W47301   9.942  17.510   1.921  0.2355  0.0003  0.2082
31118W        W47302  13.406   2.862   3.923 -0.0634  0.1371 -0.0920
31119W        W47303   9.456   7.645   4.057 -0.1646 -0.2756 -0.1805
31120W        W47304   6.340  17.385  16.192  0.1978 -0.1315 -0.2859
31121W        W47305  15.170   5.662   1.862 -0.1753  0.2605 -0.2045
31122W        W47306  16.280   3.731  15.892 -0.0110 -0.2992  0.1730
31123W        W47307   9.344   9.242  13.390  0.3204  0.0673 -0.3940
31124W        W47308  16.625  14.817  14.920 -0.2355 -0.0120  0.0736
31125W        W47309  13.485  10.964   5.187  0.2381 -0.0240  0.0934
31126W        W47310   1.714  17.096  15.805 -0.0446 -0.2866 -0.0170
31127W        W47311   0.184   1.431  14.350 -0.2618 -0.2379 -0.1247
31128W        W47312  14.105  15.744   2.895  0.0613  0.3397  0.0849
31129W        W47313   6.510  12.303   1.695 -0.1786  0.2899 -0.0243
31130W        W47314  11.068   0.048   3.789 -0.3338  0.1084 -0.0920
31131W        W47315   7.250   1.460   0.465  0.3519 -0.1105 -0.0045
31132W        W47316  12.632  14.034  12.671  0.2945  0.2502 -0.1734
31133W        W47317  16.482  10.910  12.671  0.0124 -0.0048  0.0292
31134W        W47318   1.595   1.142   1.716 -0.1344  0.1825 -0.3177
31135W        W47319  10.350   2.909   2.213 -0.2084 -0.0748 -0.0444
31136W        W47320   5.309  12.018   1.677 -0.4233 -0.1886  0.1640
31137W        W47321   6.342  13.965   2.547  0.0172 -0.1693  0.2318
31138W        W47322   8.190  14.037  11.341  0.0729 -0.3103  0.0644
31139W        W47323   3.990  15.465  16.935  0.1375 -0.0440  0.0123
31140W        W47324   7.301  10.121   5.244  0.3806  0.1459 -0.1636
31141W        W47325  13.771   6.449  13.601  0.1888  0.2284 -0.1693
31142W        W47326   3.133  13.612   4.899  0.0888 -0.1954 -0.0756
31143W        W47327  15.929  10.769   1.950 -0.3024  0.2588  0.0832
31144W        W47328  12.315  15.141  15.405  0.3124 -0.0400  0.0011
31145W        W47329   0.228   4.745  15.893 -0.1121  0.0706  0.0139
31146W        W47330   4.856  16.906  15.445 -0.2263 -0.0392  0.0102
31147W        W47331   1.818  17.561  13.086 -0.3557 -0.2274 -0.4975
31148W        W47332  11.312  14.059  12.335  0.2031  0.2389 -0.1304
31149W        W47333   3.118  14.569   1.668 -0.0918 -0.0518  0.0919
31150W        W47334   5.490  15.995  13.742  0.1237 -0.0923  0.2357
31151W        W47335   1.247   0.177   4.992  0.0782  0.0535 -0.1661
31152W        W47336   8.230  15.795  11.991 -0.0394  0.1958 -0.0149
31153W        W47337   1.714  14.506   2.781  0.0973  0.0010  0.1767
31154W        W47338   5.626   0.684   2.030 -0.2063 -0.1827  0.1566
31155W        W47339  12.607  14.126  16.561  0.0290  0.3806 -0.1714
31156W        W47340  14.533  14.905   5.971 -0.1179 -0.0882  0.0716
31157W        W47341  16.104  11.201  16.739 -0.1031  0.0539  0.0780
31158W        W47342  14.547  14.891   1.167  0.1472  0.1967  0.1272
31159W        W47343  10.452   3.654  16.772  0.0108 -0.0990 -0.2279
31160W        W47344   7.025   7.999  11.109  0.2085 -0.2541  0.2047
31161W        W47345   7.677   6.129   0.875 -0.0404  0.3937  0.0743
31162W        W47346   1.942  13.536  10.869  0.1624 -0.3683  0.2090
31163W        W47347   4.235  10.056   0.820  0.0293  0.0109  0.1427
31164W        W47348  11.220   5.527   2.931 -0.0709  0.0713 -0.2780
31165W        W47349   3.700  10.144  14.536 -0.2562  0.1008  0.1027
31166W        W47350   0.854   1.903  14.855 -0.2001 -0.1219  0.0530
31167W        W47351   8.756   1.220   3.413  0.0811  0.1893  0.1610
31168W        W47352   5.506  11.461  13.286 -0.1322  0.1612 -0.2547
31169W        W47353   4.028   5.692   1.484  0.0133 -0.0143  0.2528
31170W        W47354   1.437  13.586   1.238  0.1510 -0.0660  0.0416
31171W        W47355   3.596   2.822   5.005  0.0215 -0.1029 -0.2941
31172W        W47356  15.583   5.173   0.383  0.1853  0.1138  0.0023
31173W        W47357  11.132   4.423   0.035  0.4106 -0.1300  0.2915
31174W        W47358   1.932   6.598   3.460  0.2002 -0.0191  0.0595
31175W        W47359   8.700   5.972  13.856 -0.0441 -0.0194  0.1524
31176W        W47360   0.407   6.190  16.189  0.2238  0.1721 -0.1744
31177W        W47361   2.013  14.864   2.398  0.0952  0.1254 -0.1486
31178W        W47362   3.246   2.776   6.407 -0.0183 -0.5521 -0.2506
31179W        W47363  15.263   1.670  15.220 -0.1422  0.0255 -0.1458
31180W        W47364  11.041   8.110   5.128  0.2353 -0.0306 -0.2481
31181W        W47365  15.549   3.278   5.352 -0.1580  0.2445 -0.0232
31182W        W47366   9.894   9.717   1.457 -0.0771 -0.1309 -0.0824
31183W        W47367   4.727  12.392  15.471  0.2406 -0.2554  0.1759
31184W        W47368   9.965   5.884   2.824  0.1852  0.1980 -0.0075
31185W        W47369   8.366   1.744   1.856 -0.1862  0.0340  0.0964
31186W        W47370   5.380   5.549  14.296 -0.1364 -0.0495 -0.3491
31187W        W47371  12.662  10.293   2.457  0.5199 -0.0962  0.2127
31188W        W47372   2.349  11.322  16.241  0.2640  0.1571 -0.0321
31189W        W47373  12.494  16.454   3.615 -0.0195  0.4698  0.2686
31190W        W47374  16.797   7.965   1.370  0.0913  0.1481  0.0507
31191W        W47375   5.438   7.172   4.234  0.0362 -0.1608 -0.0958
31192W        W47376  15.037  14.721  14.739 -0.3382 -0.0609 -0.2025
31193W        W47377   3.775   1.001  15.052 -0.1189 -0.1513 -0.0682
31194W        W47378   6.431   6.734  11.311 -0.1450  0.4651  0.0020
31195W        W47379   6.569   6.128   2.910  0.1478 -0.2545  0.1159
31196W        W47380   6.693   6.186   4.944  0.1566 -0.0324 -0.0076
31197W        W47381   7.833  13.082   3.861  0.1551 -0.0314  0.2334
31198W        W47382  10.314   5.254   3.476 -0.1948 -0.0888 -0.1579
31199W        W47383  11.123  14.775  14.737 -0.1953  0.0495 -0.1364
31200W        W47384  14.849   7.949  14.252  0.1236  0.1081  0.0183
31201W        W47385   4.609   7.374  14.433 -0.1219  0.0533 -0.0595
31202W        W47386   9.280  13.465   1.996  0.0214 -0.3148 -0.0814
31203W        W47387  14.271   9.259  12.510  0.1137  0.1573  0.0376
31204W        W47388  14.721  13.865  13.926  0.0507 -0.1485  0.2461
31205W        W47389  12.013   3.749  13.978 -0.0703  0.4437 -0.0004
31206W        W47390   2.217   8.860   6.714  0.1038 -0.3256  0.1336
31207W        W47391  12.508   7.475  16.371 -0.2940 -0.2067 -0.1717
31208W        W47392  17.331   9.076  12.188  0.1208 -0.0680  0.1190
31209W        W47393   6.212  17.203  15.328  0.1247  0.1155  0.0590
31210W        W47394   5.510   2.537   2.130  0.0497  0.1472 -0.0705
31211W        W47395   9.291  12.284   0.252  0.0521 -0.1620 -0.2625
31212W        W47396   7.776  16.232  13.926  0.0019  0.0085  0.2277
31213W        W47397   1.834  14.160   2.445  0.1926 -0.0981  0.1265
31214W        W47398   2.875  13.774  11.789 -0.3930  0.0472 -0.3576
31215W        W47399  11.009  17.370   4.530 -0.1516  0.0322 -0.1875
31216W        W47400   6.111  13.449  15.353  0.2031 -0.1846 -0.2691
31217W        W47401   3.657  13.714  14.409 -0.0404  0.3535 -0.0877
31218W        W47402   6.933   1.931  11.575 -0.3803  0.0903  0.2336
31219W        W47403   6.947  11.460  11.452  0.2116 -0.0052  0.3351
31220W        W47404  12.499   8.444   4.933  0.0611  0.0891 -0.1558
31221W        W47405   8.032   2.487  16.798 -0.0027  0.2829  0.0188
31222W        W47406  13.550  16.239   2.344  0.2911 -0.2578 -0.0382
31223W        W47407   2.977   2.837  13.662 -0.0170 -0.1060 -0.2034
31224W        W47408  15.371   3.264  14.343  0.0365 -0.1037  0.0822
31225W        W47409  16.120  15.339   5.980  0.2783 -0.0966 -0.0534
31226W        W47410   1.535  13.407  13.881 -0.1783 -0.1384 -0.2428
31227W        W47411   7.566  14.815  13.894 -0.1643 -0.1919  0.4302
31228W        W47412  16.780   6.885   2.051  0.1274 -0.0788  0.2874
31229W        W47413  12.723   8.148   3.592  0.0545  0.1025  0.0964
31230W        W47414  15.562   8.049   3.099  0.0941 -0.0669  0.5662
31231W        W47415   9.473  12.394  13.818 -0.0845  0.0254  0.0402
31232W        W47416  17.380  17.837  11.638 -0.2163  0.1061 -0.1808
31233W        W47417   0.151  14.046   4.035  0.0405  0.0852 -0.0575
31234W        W47418   4.929   9.204   2.095 -0.3483 -0.0883  0.0663
31235W        W47419   6.179  13.736   6.343  0.1438  0.0915 -0.2591
31236W        W47420   3.498   1.660   4.503  0.1663 -0.2040  0.0144
31237W        W47421  10.767   9.245  14.215 -0.0954  0.2202 -0.1516
31238W        W47422  17.032   6.170  13.987 -0.2889 -0.3323 -0.0795
31239W        W47423   9.997   4.822   1.544  0.1114  0.1691  0.0760
31240W        W47424   1.145   7.766  16.427  0.2538  0.0173  0.4220
31241W        W47425  12.287  14.393   6.362  0.0545 -0.2508 -0.0757
31242W        W47426  10.543   1.062   5.444 -0.1446 -0.0295 -0.0740
31243W        W47427   3.139  16.678   0.696  0.0572 -0.0414  0.0486
31244W        W47428  10.050  12.545   4.845 -0.2131 -0.3715 -0.0017
31245W        W47429  15.142   4.895  13.392 -0.1673  0.1419 -0.0326
31246W        W47430  13.727   7.632   6.193 -0.1803 -0.1582 -0.0552
31247W        W47431   5.881  15.705  15.882 -0.1945  0.2107  0.0817
31248W        W47432   1.185  13.768   0.673  0.1798  0.2578  0.1713
31249W        W47433  12.999   1.948  16.347 -0.3428  0.3024 -0.0726
31250W        W47434   5.963   2.911   4.041 -0.0986 -0.0454  0.1386
31251W        W47435   5.311   0.991  12.541 -0.1649  0.1787  0.2549
31252W        W47436   9.804  13.784   1.047  0.0381  0.1324  0.0925
31253W        W47437   4.380   4.925  16.566 -0.2078  0.1155  0.1112
31254W        W47438   2.941   6.738  16.572 -0.3885 -0.0487 -0.1794
31255W        W47439  16.611   5.281  12.244  0.1389  0.0983 -0.0402
31256W        W47440  11.157  12.537  12.358  0.0933 -0.0461 -0.1179
31257W        W47441   3.665   5.045   3.519 -0.1444 -0.1396  0.2453
31258W        W47442  12.586  12.880  14.655  0.2591 -0.0514  0.1120
31259W        W47443  14.841   9.326   1.331  0.0691 -0.1247 -0.0161
31260W        W47444  12.112  14.097   4.221  0.0173  0.0455  0.2630
31261W        W47445   8.777  16.784   2.446 -0.1840  0.1175  0.0570
31262W        W47446   5.213   3.732  13.950 -0.1065 -0.1396 -0.0883
31263W        W47447   9.303   6.272  16.436  0.0486 -0.1384  0.1396
31264W        W47448  15.785   0.166   3.260  0.0475  0.0150  0.0818
31265W        W47449   1.265   6.442   5.677  0.1162 -0.4626  0.0985
31266W        W47450   7.014  13.474   3.699  0.0823  0.3522 -0.1050
31267W        W47451  14.178   9.920  14.731  0.1474 -0.2103  0.2968
31268W        W47452   7.360  11.431  15.249  0.1963  0.2932 -0.1725
31269W        W47453   7.812   8.844   0.251  0.1320  0.1089  0.0795
31270W        W47454   4.810   6.506  13.522  0.0173  0.1227  0.0078
31271W        W47455  10.451  14.045  14.587  0.0905  0.0284  0.0215
31272W        W47456  14.136  11.052   5.489  0.1815  0.2750 -0.2212
31273W        W47457   0.512   7.319   0.612 -0.0583 -0.2744 -0.2813
31274W        W47458  10.401   1.299  13.260  0.1461 -0.1220  0.2054
31275W        W47459   2.684   7.251   4.811 -0.0437 -0.0219  0.1232
31276W        W47460  15.668   6.715  13.926 -0.0608  0.2052  0.0031
31277W        W47461  13.951   9.783   0.532 -0.0608  0.1848 -0.1308
31278W        W47462   3.275  13.696   4.005 -0.0014 -0.4875  0.0448
31279W        W47463  11.661   5.193  12.636 -0.2109 -0.0358  0.2205
31280W        W47464  17.523   1.828   1.989  0.0508 -0.0017  0.1616
31281W        W47465   1.470   5.284  12.144 -0.1005  0.0832 -0.0323
31282W        W47466  12.240  17.220  13.873 -0.0537  0.0781  0.0495
31283W        W47467   1.965  15.272   3.925 -0.0685 -0.0051  0.1457
31284W        W47468   5.895  12.669   5.267  0.2139 -0.0601 -0.3045
31285W        W47469   9.294   9.634  14.138  0.1270 -0.1103  0.0537
31286W        W47470   7.600  10.602  15.307  0.1889  0.0365  0.0559
31287W        W47471   5.025  12.716  11.995  0.4567  0.1348 -0.1869
31288W        W47472   4.761  12.524  11.569 -0.0885 -0.0319 -0.0196
31289W        W47473  16.130   8.179  14.284 -0.1579 -0.0356  0.2780
31290W        W47474   8.977   3.457   3.858 -0.1789 -0.0334 -0.4052
31291W        W47475   3.189   3.660   3.990 -0.1842  0.2240 -0.0139
31292W        W47476   1.299  10.912  13.530 -0.0759 -0.0046  0.1263
31293W        W47477   6.164   3.331  13.065  0.1618  0.2293  0.1842
31294W        W47478   5.086   3.298   2.345 -0.0801 -0.0843  0.0848
31295W        W47479   0.762  15.684  13.313  0.0221 -0.2979 -0.0458
31296W        W47480   3.329   2.314   4.142 -0.1385 -0.0760  0.1074
31297W        W47481   9.096  15.879  12.052 -0.0125  0.0366 -0.2200
31298W        W47482  10.397   6.788   5.754 -0.3626 -0.1655 -0.0279
31299W        W47483  10.264   3.122  14.799 -0.3163 -0.0308  0.0029
31300W        W47484   7.809   0.145   1.335  0.2059  0.1062 -0.0740
31301W        W47485   2.606   8.146  15.522 -0.0188 -0.1094 -0.2273
31302W        W47486   4.273   3.560   1.680 -0.1110  0.1538  0.2045
31303W        W47487   9.327  14.826   1.852 -0.1416  0.5333 -0.3250
31304W        W47488  10.735   7.854  15.588  0.3531  0.2248 -0.1883
31305W        W47489   3.058   4.083   0.619  0.2585  0.3050 -0.0101
31306W        W47490   1.340   0.176  16.301 -0.4682 -0.1046  0.0350
31307W        W47491   0.783   2.146   1.295  0.2827 -0.0169 -0.5175
31308W        W47492   4.107  11.338  11.942  0.1760  0.1781  0.1560
31309W        W47493   2.521  17.132   5.692 -0.1708 -0.0557  0.3713
31310W        W47494   5.941  12.182  12.955  0.2126  0.3091  0.0821
31311W        W47495  17.607  15.080  16.335  0.1763 -0.1524  0.0703
31312W        W47496   0.054   0.414  14.148  0.0658  0.1486  0.0740
31313W        W47497  14.050   2.440  13.603 -0.0591 -0.1104  0.0094
31314W        W47498  17.414  14.954   0.572 -0.1144  0.0471 -0.0929
31315W        W47499  14.913   0.608   3.030 -0.2792  0.1257  0.2497
31316W        W47500   9.479  12.806  12.475 -0.1024  0.0357 -0.2342
31317W        W47501   1.140   3.148  12.663  0.0525  0.1576 -0.0093
31318W        W47502  10.356  13.659  14.203 -0.1787  0.1290 -0.2700
31319W        W47503   8.701  12.651  13.719 -0.0517 -0.0228  0.2988
31320W        W47504  15.531   4.065  12.412  0.0432  0.1819 -0.0400
31321W        W47505   3.629  16.210  13.495  0.3112  0.1732 -0.1701
31322W        W47506   5.670   5.870   2.724  0.0318 -0.3147  0.2576
31323W        W47507  17.013  17.724   3.132 -0.0139  0.3122  0.1173
31324W        W47508   1.605  12.145  14.222 -0.0455 -0.0673  0.2337
31325W        W47509  12.449  14.471  14.027  0.1112 -0.0669 -0.3052
31326W        W47510   1.334   1.116   5.136 -0.0057 -0.1020  0.1261
31327W        W47511  17.401  10.239  13.082  0.1866  0.0971 -0.1453
31328W        W47512   0.505   0.545  14.362  0.3445 -0.0937 -0.2788
31329W        W47513  13.702  11.169   4.425  0.2085  0.1548  0.1581
31330W        W47514   2.502   5.897  13.383  0.0747  0.3899  0.2986
31331W        W47515  11.969   2.031   1.784 -0.0604 -0.1395  0.0740
31332W        W47516   8.914   0.756  15.192 -0.2684 -0.0130  0.2068
31333W        W47517  15.756  13.654   2.160 -0.1364 -0.0024  0.2372
31334W        W47518   0.563   9.812   5.352  0.2027  0.0100  0.0617
31335W        W47519   6.242   7.858   1.640  0.0654 -0.3708 -0.0330
31336W        W47520   9.141   4.179  12.443 -0.0391 -0.0807  0.0146
31337W        W47521   9.682  12.364  12.458 -0.0393  0.3201 -0.3323
31338W        W47522   7.139  10.138   3.979  0.1146  0.2218 -0.0475
31339W        W47523   3.657  14.316   2.247 -0.2995 -0.1418  0.4640
31340W        W47524  10.858  12.396  14.517 -0.0308 -0.1544  0.2933
31341W        W47525   1.204   6.215  14.436  0.0781 -0.0740  0.0326
31342W        W47526  13.690  11.717  13.004 -0.2196  0.1832  0.3559
31343W        W47527   2.987  17.379   1.157  0.1525 -0.1314  0.2368
31344W        W47528   7.415   9.115  15.863  0.1967  0.2027  0.1480
31345W        W47529  13.266   3.844  12.568 -0.1087 -0.1659 -0.1434
31346W        W47530  17.740  17.423  11.843  0.0476  0.3832  0.0035
31347W        W47531  13.234  11.457  14.288  0.0493  0.0442  0.3431
31348W        W47532   6.217   3.326  11.900 -0.1901 -0.0542  0.1388
31349W        W47533   6.065  12.598   0.429 -0.1247  0.0609 -0.1500
31350W        W47534   0.467  12.098  15.631  0.0148 -0.3736 -0.1588
31351W        W47535  12.175  10.777   4.596 -0.1350  0.2188  0.1149
31352W        W47536  15.117   3.516   4.507  0.0168 -0.2112 -0.1589
31353W        W47537  11.015  15.235  15.153 -0.3599 -0.0461  0.1225
31354W        W47538   8.666   1.247   0.658 -0.0038 -0.0669  0.2760
31355W        W47539   7.010  10.032  14.629 -0.1024 -0.1030 -0.2388
31356W        W47540  15.863   6.589   5.719 -0.1114 -0.1172 -0.1153
31357W        W47541  14.780  10.004  14.648  0.1222  0.0558 -0.0142
31358W        W47542  12.547  16.029   0.110 -0.0545  0.1869 -0.0887
31359W        W47543   4.933  17.010  14.111 -0.2862 -0.1504 -0.3807
31360W        W47544   3.913   3.355  15.712 -0.1989 -0.0941  0.2089
31361W        W47545  14.311   4.495   5.866 -0.1620 -0.1207  0.1078
31362W        W47546   0.235  14.771   2.933 -0.0382  0.0704  0.1905
31363W        W47547   8.103   8.787  16.801  0.0102 -0.0797  0.0543
31364W        W47548   3.777   9.688   0.814  0.0190  0.2598 -0.0123
31365W        W47549   1.390  10.133   0.319 -0.3881 -0.1962  0.0792
31366W        W47550  12.574   9.672   1.866  0.0574 -0.3731  0.0677
31367W        W47551   8.715   6.975  12.847  0.3422  0.1031  0.0201
31368W        W47552  16.083   2.759   2.065  0.0838  0.3118 -0.3272
31369W        W47553   7.024   1.443  16.775  0.1832  0.1025 -0.0861
31370W        W47554   4.407  13.153   5.857  0.0517  0.0989  0.0597
31371W        W47555  16.709  17.345  16.850  0.1163 -0.0185  0.0955
31372W        W47556   7.556   1.637  13.594  0.0043  0.2724 -0.1545
31373W        W47557   8.734  17.530   5.113 -0.0693  0.1426 -0.0300
31374W        W47558   3.238   5.311   3.452 -0.1858  0.0274  0.2958
31375W        W47559  14.950   9.182   4.802 -0.0289 -0.0958 -0.3320
31376W        W47560   9.078  17.732   5.484 -0.0305 -0.0107  0.1475
31377W        W47561  13.494  16.491   5.115  0.0309  0.1871  0.0292
31378W        W47562   4.336   2.248   4.949 -0.0189  0.1091 -0.1409
31379W        W47563   5.655  16.653  16.518 -0.3326 -0.0741  0.2239
31380W        W47564   1.971  17.532  16.836 -0.0955  0.2576 -0.1049
31381W        W47565   7.742   4.200  13.520  0.0441  0.0295  0.2590
31382W        W47566   7.435  17.736  13.982  0.0195  0.0475 -0.5382
31383W        W47567   2.218   1.979   5.734 -0.0110  0.0864  0.1176
31384W        W47568   4.718  16.085   5.324 -0.6092  0.1683 -0.5268
31385W        W47569  15.344   7.575  13.532 -0.3390  0.1862 -0.2837
31386W        W47570   4.222   5.678   3.361 -0.0288  0.0662  0.1056
31387W        W47571  10.574  14.559   5.721 -0.0451 -0.0307  0.1857
31388W        W47572   9.203  12.229  14.481  0.0630  0.1058  0.1762
31389W        W47573   6.626   8.520   4.138 -0.1204  0.2198  0.0987
31390W        W47574  14.256  11.323  15.832 -0.1098 -0.2327  0.0000
31391W        W47575  16.298   4.467  11.841 -0.1500 -0.0716 -0.1533
31392W        W47576   6.450   9.011  12.570  0.2516  0.1144 -0.4408
31393W        W47577  12.754   9.331   3.673 -0.1345 -0.0181  0.2362
31394W        W47578  10.968   0.478   6.019 -0.1197  0.0568  0.1556
31395W        W47579   2.326  17.454   3.172  0.0918 -0.2893 -0.3222
31396W        W47580  17.549   7.009   3.521 -0.0073  0.2129  0.5702
31397W        W47581   7.519  13.324  15.626 -0.0327  0.2945 -0.2840
31398W        W47582   6.347   6.465   0.427  0.1985  0.0998  0.0882
31399W        W47583  11.384  10.716   2.424 -0.0423 -0.1972 -0.1282
31400W        W47584  16.074  13.304   1.372  0.1946  0.3712 -0.0731
31401W        W47585  10.440   7.845  16.564  0.0060 -0.0863 -0.0547
31402W        W47586  16.744  17.850  16.930  0.3631  0.1926 -0.1659
31403W        W47587   9.937   5.111  13.337  0.1986 -0.0839  0.1261
31404W        W47588  14.152   3.853  15.543  0.2404 -0.2153  0.0352
31405W        W47589   3.990   2.546   4.748  0.0180  0.0549  0.2005
31406W        W47590  12.480   7.483   6.498  0.0567 -0.3824 -0.2269
31407W        W47591   7.169   6.735   3.732  0.0710  0.1557 -0.0604
31408W        W47592   6.033  14.076   3.009 -0.5038  0.1607  0.0449
31409W        W47593   2.992   0.370   3.664  0.0526 -0.1427 -0.0994
31410W        W47594   2.839   6.271  13.534 -0.5439  0.1085 -0.0936
31411W        W47595  15.768   0.921   0.133 -0.0362  0.1881 -0.3362
31412W        W47596  16.442   3.341   2.680  0.0433  0.1672  0.0624
31413W        W47597  10.703   4.891   5.124 -0.0303  0.2175  0.1132
31414W        W47598  11.830   6.507  13.558  0.0624  0.1308 -0.1695
31415W        W47599  17.203   2.365  15.885 -0.0673 -0.1638  0.1287
31416W        W47600   4.621   7.257   3.709 -0.0283  0.0210  0.1348
31417W        W47601  12.869  16.515  13.790  0.0584  0.1748 -0.4284
31418W        W47602   8.882   8.925  16.590 -0.0633  0.1796  0.1195
31419W        W47603  16.030  12.355   1.759  0.2892 -0.0383  0.5667
31420W        W47604   8.054   9.068  15.336  0.1710  0.1206 -0.2715
31421W        W47605   5.899   7.208   5.209  0.1756  0.1076 -0.2127
31422W        W47606   6.893  14.291  16.682  0.1127 -0.0594  0.1011
31423W        W47607  10.773   2.972  13.352  0.0767  0.0468 -0.2009
31424W        W47608  14.367   9.172  14.677  0.1245 -0.0424  0.2824
31425W        W47609  13.180   4.245   5.560 -0.1730  0.1940 -0.0008
31426W        W47610  14.292  10.148   2.252  0.0045  0.0985  0.0011
31427W        W47611  17.585   9.480   0.474  0.1604  0.0979  0.0839
31428W        W47612   6.957   2.198  13.795  0.0318  0.5429  0.2429
31429W        W47613  10.012   0.052   1.002 -0.1676  0.1148  0.2044
31430W        W47614  12.170   9.913  14.633  0.2419 -0.4179  0.2349
31431W        W47615   6.458   8.758  14.687 -0.2034  0.1168 -0.0706
31432W        W47616   3.977  13.842   1.390 -0.1362 -0.1500 -0.1392
31433W        W47617  14.165  12.099  12.521  0.1281  0.1489 -0.1238
31434W        W47618  13.502  12.931   4.005  0.1606  0.1265  0.0804
31435W        W47619   9.760   8.750   3.235  0.2786 -0.4386 -0.2293
31436W        W47620  10.512  16.848  14.021  0.0516 -0.1991 -0.1597
31437W        W47621   2.727   2.976  12.535 -0.0757 -0.0396 -0.3208
31438W        W47622   6.469  11.096   5.229  0.1176 -0.3490  0.0780
31439W        W47623  11.267   3.461   2.435 -0.1745 -0.0981  0.1911
31440W        W47624   3.361  12.347  11.813 -0.0466 -0.0902  0.0275
31441W        W47625  11.490  15.338  13.909 -0.1752 -0.0216 -0.0755
31442W        W47626   4.561  13.397   3.623 -0.2525 -0.1871  0.2260
31443W        W47627   7.159   6.742  15.961  0.0344  0.1856  0.0102
31444W        W47628  12.977   4.647   0.590  0.0052 -0.0928 -0.0321
31445W        W47629   2.589   7.638   1.178 -0.1495 -0.2014 -0.1849
31446W        W47630   2.864  13.391  16.081 -0.1293 -0.2238  0.2665
31447W        W47631   9.273  12.590  15.550  0.1093  0.1218 -0.1708
31448W        W47632  12.366   1.792  13.734  0.0368 -0.5159 -0.0030
31449W        W47633  17.693  14.738  16.730  0.0641  0.0218 -0.1469
31450W        W47634  16.232   5.382  13.694 -0.2607 -0.1834 -0.3557
31451W        W47635   4.470  17.108   3.944  0.1287 -0.0610  0.1664
31452W        W47636  16.227   2.183  15.522 -0.3578 -0.3027 -0.0771
31453W        W47637  10.762   7.483   3.330 -0.1574 -0.2413  0.0993
31454W        W47638  10.993  16.457  14.374  0.0167 -0.1577  0.0556
31455W        W47639   5.359  16.325  11.931  0.0272 -0.1403  0.4625
31456W        W47640   8.589   0.146   4.829  0.0951 -0.1976 -0.2335
31457W        W47641   0.584   2.741   2.796  0.1166 -0.1696 -0.0576
31458W        W47642   3.673   8.629   3.488  0.0684  0.1294 -0.3401
31459W        W47643   8.427   5.751   5.758 -0.0962  0.0476  0.2152
31460W        W47644   3.070  12.968   3.754  0.3838  0.1194 -0.0112
31461W        W47645   8.397   7.346  13.706 -0.0741 -0.0028  0.1839
31462W        W47646  12.061  13.508   1.197 -0.1770  0.1230  0.1404
31463W        W47647   4.540   1.054  15.593 -0.3076  0.3084  0.2305
31464W        W47648   3.473  16.566  16.044 -0.1560  0.1134  0.2895
31465W        W47649   3.608   5.527   3.782 -0.0891 -0.0377  0.2090
31466W        W47650   7.216   7.592  16.807 -0.0477  0.3292  0.2403
31467W        W47651  12.005   8.247   4.187 -0.3185  0.1668  0.0118
31468W        W47652   6.481  13.030  15.094 -0.1049 -0.0461 -0.0150
31469W        W47653   4.700   2.743  15.573 -0.1748  0.0143 -0.0728
31470W        W47654   4.616  13.560  14.659  0.1744  0.1613  0.0996
31471W        W47655   7.543   6.914   0.315 -0.4024 -0.0013 -0.0294
31472W        W47656   4.824  14.525  12.762 -0.1741 -0.1851  0.3355
31473W        W47657   0.912   6.745   5.827  0.1355  0.1371 -0.1501
31474W        W47658   8.090   0.452   4.890  0.2295  0.1164 -0.0392
31475W        W47659  16.032   7.660   2.248 -0.1016  0.0536 -0.0721
31476W        W47660   0.232  15.730  16.596 -0.0735 -0.0402  0.0923
31477W        W47661   1.217   3.249   6.079 -0.0592 -0.0029  0.0074
31478W        W47662  12.293   9.435   4.356  0.0205  0.0520  0.2557
31479W        W47663   2.156  16.566  16.188 -0.2520 -0.0930 -0.0627
31480W        W47664  16.810  12.161  13.235 -0.1403  0.1150 -0.0411
31481W        W47665   6.264   9.403   3.086  0.1474  0.2438  0.1146
31482W        W47666  15.826  15.298  15.073  0.0888  0.1120  0.0622
31483W        W47667   9.816  14.551  15.627  0.0790 -0.0139 -0.1875
31484W        W47668  10.709   2.779   5.062  0.1016  0.1483 -0.1927
31485W        W47669   4.044   5.541  15.021  0.1555  0.3026 -0.1471
31486W        W47670   9.638   7.431   4.997  0.0194  0.3425 -0.0773
31487W        W47671   2.362   5.110  14.989 -0.0689 -0.0111 -0.0212
31488W        W47672   6.875   4.048  15.678 -0.0894  0.4455  0.0942
31489W        W47673  13.957  17.624   3.595 -0.0052  0.2604  0.1292
31490W        W47674   8.062   7.961   4.567 -0.1641 -0.2423 -0.0933
31491W        W47675   0.818   4.082   0.458 -0.0326 -0.0747  0.2276
31492W        W47676   3.013   2.615   4.863  0.0940  0.0005 -0.0756
31493W        W47677  10.119   9.865  13.561  0.1453  0.1089 -0.1199
31494W        W47678  15.840   5.623   4.242  0.1918  0.0632 -0.0271
31495W        W47679   5.172   0.199  11.419 -0.1048  0.0668 -0.0746
31496W        W47680  12.922   1.525  14.018 -0.1537  0.0070  0.4082
31497W        W47681  16.202   3.072  13.268  0.3671 -0.0901  0.0336
31498W        W47682   6.828   2.846  15.426  0.2138 -0.0837 -0.1013
31499W        W47683   3.917   8.130  12.053  0.0153  0.0879 -0.1308
31500W        W47684   1.550  15.665   1.128 -0.0623 -0.1736 -0.3217
31501W        W47685   5.324   3.726  12.120 -0.0437  0.2826 -0.1266
31502W        W47686   7.723  15.279  11.256  0.2288 -0.2491  0.0808
31503W        W47687  12.937   6.654  15.524  0.0219 -0.3230 -0.2250
31504W        W47688  13.315  16.082   0.505  0.1822  0.0857  0.0195
31505W        W47689  11.821   9.325   4.383  0.3569 -0.0101  0.0466
31506W        W47690   3.541  10.482  15.959 -0.1001  0.3484 -0.0007
31507W        W47691   9.783   1.306  12.736  0.1163  0.0320  0.2172
31508W        W47692  15.594   3.173  12.952  0.0411 -0.3129  0.2283
31509W        W47693  10.772   8.296   3.906 -0.1338 -0.3855 -0.1955
31510W        W47694  17.822   7.516   2.635 -0.0878  0.0227  0.2114
31511W        W47695   0.938  16.383  12.144 -0.1377 -0.1659 -0.0982
31512W        W47696   9.634  17.156  16.418  0.2552  0.0865 -0.2388
31513W        W47697   7.655  12.819   5.230 -0.1013  0.3675 -0.3280
31514W        W47698  17.092   7.332  15.858 -0.0128 -0.0403  0.2597
31515W        W47699  12.542   6.865   1.342  0.3517  0.0543 -0.3475
31516W        W47700  15.240   3.236   1.568  0.0951  0.2952 -0.0683
31517W        W47701   9.910   7.969   4.857  0.0558  0.0221  0.0587
31518W        W47702   7.586   7.937  11.758 -0.2542 -0.0980 -0.3135
31519W        W47703  13.163   9.312   5.524 -0.0442 -0.1951  0.0793
31520W        W47704  16.293   4.934  13.923 -0.2040 -0.1398 -0.1224
31521W        W47705  14.148   2.102   6.086 -0.2129  0.1138  0.1071
31522W        W47706   6.736  11.843  13.458  0.0284 -0.0402 -0.2572
31523W        W47707  11.541  14.590  12.968  0.0094 -0.0677  0.0499
31524W        W47708   5.556  15.245  13.024 -0.2066  0.0887  0.1699
31525W        W47709  16.569   6.457  11.819  0.1850 -0.1484  0.0071
31526W        W47710   5.472   9.973   6.012 -0.1431  0.0889  0.2422
31527W        W47711  10.242   1.189   1.626  0.1044 -0.0299  0.3131
31528W        W47712   8.282   2.297   2.466 -0.3462 -0.1036 -0.0765
31529W        W47713   6.839   2.606  14.559  0.2869  0.0312  0.2911
31530W        W47714   4.488  15.725   1.974  0.2300 -0.1494  0.0273
31531W        W47715   2.943   9.291   1.026 -0.1106 -0.0556 -0.1343
31532W        W47716  11.473   4.227  13.140  0.0401  0.1368  0.0396
31533W        W47717   9.995  17.386   0.177  0.0271  0.1636  0.0025
31534W        W47718   5.847  13.726  15.708 -0.3401  0.1127 -0.1901
31535W        W47719   8.032  15.767  13.165  0.0488 -0.3575  0.0219
31536W        W47720  11.763  16.611   1.044  0.0859 -0.2104  0.1516
31537W        W47721  14.979   6.096  13.970  0.1178  0.3878  0.1958
31538W        W47722   2.804  12.820  14.512  0.3293 -0.0169  0.3567
31539W        W47723   7.386  16.691   2.176 -0.0165  0.0698  0.3325
31540W        W47724  13.867   7.442  12.667 -0.0263  0.0030  0.2672
31541W        W47725   4.458  12.621   1.434  0.1300  0.0848  0.2037
31542W        W47726   2.792  17.822   3.885  0.0372  0.0765  0.0011
31543W        W47727  11.204   6.330   1.097 -0.0171 -0.1883 -0.1945
31544W        W47728   2.371  17.215  16.844 -0.2127  0.0937 -0.0070
31545W        W47729   3.924   8.223  15.395 -0.1443  0.2018  0.3279
31546W        W47730   5.053  14.693   1.145  0.0507 -0.2857  0.2001
31547W        W47731   8.165   9.278   2.471  0.3706  0.1669 -0.3302
31548W        W47732  10.277   8.251   3.845  0.1215 -0.1193 -0.3398
31549W        W47733   6.217   5.582  14.551 -0.1595 -0.1643 -0.2056
31550W        W47734   7.042  12.108   3.779  0.1914 -0.1053  0.0083
31551W        W47735   3.950  12.106   2.761  0.0358 -0.0343 -0.2533
31552W        W47736   8.353  15.054  13.540 -0.0680  0.1080 -0.0696
31553W        W47737  12.513   7.460  16.923 -0.0133  0.0986 -0.1772
31554W        W47738   5.881   8.414   0.213  0.1941 -0.0474  0.2241
31555W        W47739   1.562  15.642   0.653 -0.0538  0.2899  0.2975
31556W        W47740   2.842  11.069  14.815 -0.1881  0.0993  0.0027
31557W        W47741  14.005   2.118  16.262 -0.2160  0.0824 -0.3822
31558W        W47742  12.123  14.709   3.258  0.0906  0.0537  0.1076
31559W        W47743  17.766  11.311  14.211 -0.0407  0.0234 -0.0198
31560W        W47744  17.569  16.921  12.747 -0.0770 -0.0936 -0.0317
31561W        W47745  16.848  14.931  16.768 -0.1764  0.2359 -0.0319
31562W        W47746  10.814  16.565   5.862 -0.2860 -0.1537  0.2031
31563W        W47747   9.950  15.782   3.556 -0.2970 -0.0064  0.1285
31564W        W47748   3.695   0.848   0.360 -0.1776  0.0206  0.1665
31565W        W47749  16.350  17.491  12.229 -0.0232  0.0788  0.2980
31566W        W47750   2.304  15.274   0.210 -0.0505 -0.1839 -0.0160
31567W        W47751   9.387   3.604   3.619 -0.3172 -0.0134  0.1154
31568W        W47752   2.821   9.511  12.661  0.2292  0.1196 -0.1135
31569W        W47753  16.431  14.760  14.054 -0.1951  0.1450 -0.5678
31570W        W47754   6.262   1.167  12.938  0.2467 -0.2486 -0.2396
31571W        W47755  14.832  13.269   4.433 -0.0965 -0.1390  0.0460
31572W        W47756   4.102   5.150   3.243 -0.0621  0.2917  0.0201
31573W        W47757   0.785   1.334  12.136 -0.2724 -0.3394 -0.1526
31574W        W47758   3.526  11.076   0.690  0.0738  0.0216 -0.1340
31575W        W47759   7.037  12.775   0.964  0.2477  0.0567 -0.2519
31576W        W47760   0.214   5.789  14.733  0.2527  0.0691  0.1887
31577W        W47761   2.759   3.782  11.782 -0.2835  0.2296 -0.3315
31578W        W47762  15.420  15.705   5.564  0.2154  0.1289 -0.0969
31579W        W47763   3.110  12.984  12.262 -0.2479  0.2152  0.0792
31580W        W47764   1.985   0.114  11.673 -0.1095  0.3824  0.3196
31581W        W47765   0.855   7.972  15.517 -0.0210 -0.1129  0.2006
31582W        W47766   1.012  16.399  16.673  0.1883 -0.1893  0.3166
31583W        W47767   4.215   1.869   1.970  0.0195 -0.0221  0.1977
31584W        W47768   2.855   1.704   1.250 -0.3845 -0.0562 -0.3823
31585W        W47769   2.566  14.480   0.232 -0.0688  0.1131  0.0891
31586W        W47770   5.181  10.273  13.403 -0.1301  0.2389  0.1056
31587W        W47771   7.420   5.700  12.473  0.0936  0.2206  0.0549
31588W        W47772   5.914  13.145  16.295  0.0800 -0.1961  0.1071
31589W        W47773  17.769   2.224  11.501  0.1213  0.1767 -0.2324
31590W        W47774  17.247   4.291   0.165  0.1300  0.0624  0.0779
31591W        W47775   1.914   2.557  13.857 -0.1691 -0.1035  0.1084
31592W        W47776   4.564   8.148  16.402  0.3351 -0.1078 -0.0546
31593W        W47777   2.577   3.246  16.471  0.0097 -0.2952  0.0263
31594W        W47778   3.687   2.294   5.062 -0.2377  0.0823 -0.0066
31595W        W47779  17.682   4.388  12.187 -0.3067 -0.1314  0.0092
31596W        W47780   1.925  12.438   4.135  0.1772 -0.0377  0.0843
31597W        W47781   3.782  13.926   0.117  0.3584  0.2877  0.0584
31598W        W47782  10.529   4.696  15.486 -0.1137 -0.1205 -0.1786
31599W        W47783  14.632   2.024   5.336  0.0122 -0.2158  0.1020
31600W        W47784   3.383  10.506  13.105  0.0333  0.1663  0.2286
31601W        W47785   3.028   6.928  16.085  0.0610  0.4433 -0.0651
31602W        W47786   2.091  12.484  12.741 -0.0808  0.2816 -0.2173
31603W        W47787  13.240  12.860  15.848  0.0318 -0.0319 -0.0336
31604W        W47788   0.903  16.784   0.059  0.1013  0.0427  0.1677
31605W        W47789  16.429   3.909  16.561  0.2866 -0.1232  0.0706
31606W        W47790   7.533  13.334   0.568  0.0594  0.2472  0.1054
31607W        W47791  13.891   2.642  12.536  0.1234 -0.2243  0.0253
31608W        W47792  10.718   0.480   3.619  0.5854 -0.0630  0.1141
31609W        W47793   6.967  14.754  16.567  0.2112  0.1106 -0.2371
31610W        W47794   0.455  15.763  16.094 -0.1727  0.0192 -0.2734
31611W        W47795   5.909  11.275  12.279 -0.0660 -0.2491 -0.1796
31612W        W47796  14.042  12.583   4.527  0.1972  0.2038 -0.4216
31613W        W47797  15.445   6.488   5.948  0.1554 -0.0355 -0.1053
31614W        W47798   4.322   1.925  16.197  0.0198  0.5139 -0.2667
31615W        W47799   3.662  13.021  16.876 -0.0453 -0.1238  0.0467
31616W        W47800  15.204  14.004  15.611 -0.0639 -0.3307 -0.0567
31617W        W47801  11.244   5.796   1.203 -0.0621 -0.0447  0.0256
31618W        W47802  16.128  16.141  14.423 -0.1599 -0.3209 -0.0098
31619W        W47803  10.200   1.106   4.560 -0.0213 -0.0118  0.0598
31620W        W47804   4.321   3.315   4.173 -0.1236 -0.0804 -0.2447
31621W        W47805  15.449  10.543   5.081  0.0186  0.1216 -0.0199
31622W        W47806   3.436  10.386  15.040 -0.0762  0.0526 -0.0624
31623W        W47807   5.550   6.202   1.113 -0.3494  0.3829 -0.1679
31624W        W47808   2.825   2.691   5.448  0.0021 -0.0526  0.0444
31625W        W47809  10.759   8.413  14.157 -0.3100  0.0052  0.4334
31626W        W47810  10.981  12.052   2.035 -0.1570  0.3222 -0.0195
31627W        W47811   9.171   6.988   2.092 -0.2064  0.3337  0.0348
31628W        W47812   6.582  11.907   3.038 -0.2238  0.1486  0.4047
31629W        W47813  12.647  16.342  14.793 -0.2148 -0.0120  0.3665
31630W        W47814   7.301  13.610  15.967 -0.2911 -0.3104  0.1606
31631W        W47815  11.104  15.362  13.044  0.1704 -0.2374  0.1260
31632W        W47816  14.988  12.800   2.972  0.1121  0.0564 -0.1170
31633W        W47817   7.265   1.778  15.022  0.3072 -0.1113  0.0945
31634W        W47818  15.590   1.328  14.297  0.0059  0.1320  0.0229
31635W        W47819  17.120   2.880  13.587 -0.1910 -0.3197  0.3535
31636W        W47820  10.514   0.039   2.466 -0.0889  0.0340 -0.0604
31637W        W47821   2.098  14.199  12.115 -0.1222  0.2933 -0.1855
31638W        W47822   9.868   8.646  16.490  0.1718  0.1539 -0.0980
31639W        W47823   0.997   2.777  14.623  0.2581  0.2418  0.2017
31640W        W47824  15.598   6.664   3.190 -0.1174  0.0805 -0.2295
31641W        W47825   1.547   6.059   4.422  0.1684  0.0831  0.3658
31642W        W47826  16.917   5.866  11.612  0.1762  0.1062 -0.1451
31643W        W47827  10.357  13.130  16.067 -0.0239 -0.3567  0.1779
31644W        W47828  12.151  12.687  14.432 -0.0516 -0.1603 -0.0743
31645W        W47829  16.369   6.152   4.380 -0.0788 -0.1046  0.0372
31646W        W47830  15.117   8.132  12.607  0.1425 -0.0376  0.3479
31647W        W47831  13.454  17.038   5.867  0.1414  0.1770  0.1532
31648W        W47832   6.015   5.228   1.899  0.1304 -0.1633 -0.0209
31649W        W47833  13.782  11.178  15.725 -0.0962 -0.1650 -0.0440
31650W        W47834   7.721   4.383   1.214 -0.0951 -0.0093  0.3680
31651W        W47835   5.252   7.103   3.709  0.0512 -0.1295  0.0380
31652W        W47836   6.334   0.482   0.055  0.1942 -0.3568  0.0141
31653W        W47837   9.166  17.397   2.559 -0.1896  0.2716  0.2557
31654W        W47838  11.623   7.396  14.561  0.1869  0.0798 -0.2825
31655W        W47839   9.197  10.661  15.097 -0.0793  0.0477  0.3357
31656W        W47840  14.643  16.449   5.767  0.0065 -0.4391 -0.1945
31657W        W47841   3.229   9.320  14.439 -0.3025 -0.1214 -0.2438
31658W        W47842  11.930   3.284  11.810  0.0594 -0.0139 -0.1605
31659W        W47843   0.646   7.123  15.468  0.1087  0.0849  0.1338
31660W        W47844  10.633   3.410  12.183 -0.0344 -0.1742  0.1410
31661W        W47845   0.630   1.872  14.330  0.0870  0.1484 -0.1852
31662W        W47846   1.159  12.200  16.489 -0.2450  0.2661 -0.1072
31663W        W47847   2.050  15.778  10.297  0.0213  0.4490 -0.3371
31664W        W47848   1.142  10.030  13.403  0.1307  0.1204 -0.3053
31665W        W47849  12.245   1.311  11.904  0.0016 -0.5352 -0.0866
31666W        W47850   3.137   7.633   5.549 -0.2961  0.2797 -0.2368
31667W        W47851  10.872   8.184  10.584  0.1710 -0.2248  0.1810
31668W        W47852   3.254   5.722  14.919  0.0256 -0.0756  0.1067
31669W        W47853   1.387  12.387   0.290 -0.0380  0.1107 -0.3277
31670W        W47854   3.183   0.430   5.567  0.0656 -0.2059 -0.1033
31671W        W47855   0.785  15.491  13.861  0.3399  0.2641  0.1074
31672W        W47856   3.861  15.487   6.382  0.3993 -0.1168 -0.2727
31673W        W47857  10.305   5.101  13.682  0.1123  0.3073 -0.1474
31674W        W47858  13.349   3.388   1.406 -0.2107 -0.2474 -0.0230
31675W        W47859   7.294   6.083   0.569 -0.1258  0.0961  0.1668
31676W        W47860   1.441   6.429   2.683 -0.0756 -0.1229 -0.2160
31677W        W47861   7.349  14.837  16.090  0.1242 -0.0812  0.2333
31678W        W47862  11.168   1.865   3.104  0.1348 -0.0710  0.2126
31679W        W47863   4.372   9.093  12.674  0.1345  0.0393 -0.1022
31680W        W47864   9.708   9.080  12.403  0.1259 -0.1963  0.1037
31681W        W47865   1.281  16.044   0.642 -0.0733 -0.0633 -0.0731
31682W        W47866  16.079   7.887   5.026  0.0927  0.3460  0.3328
31683W        W47867  11.125   5.235   2.450 -0.0484  0.0155 -0.0030
31684W        W47868  10.937   7.911   0.309  0.1306  0.0179 -0.3142
31685W        W47869   2.076   2.792   2.082  0.1935 -0.3003 -0.4427
31686W        W47870  11.381   9.423  15.474 -0.4142 -0.2592  0.0091
31687W        W47871  13.507  13.613   5.610  0.1779  0.2531  0.0425
31688W        W47872   3.238  15.508   4.564 -0.0074 -0.2497  0.0937
31689W        W47873   0.314   8.843   2.793 -0.0407 -0.2093 -0.0541
31690W        W47874   9.188  11.566   5.579 -0.0616 -0.1085  0.0043
31691W        W47875   3.334   9.022   3.401  0.0850  0.1023  0.0937
31692W        W47876   4.072   8.518   1.713 -0.0516  0.1073  0.2996
31693W        W47877   5.575   0.479  11.589  0.3946 -0.0895  0.5925
31694W        W47878   9.050  10.423   1.585  0.3807 -0.3443 -0.1551
31695W        W47879   2.954   3.565   4.998  0.1318  0.0851 -0.0514
31696W        W47880  17.423  14.866   5.120  0.3639  0.2624  0.1624
31697W        W47881   4.155  13.180   6.307 -0.0389 -0.2063 -0.0273
31698W        W47882  15.569   4.078  14.127 -0.1764  0.0504  0.0951
31699W        W47883   7.993  14.974  16.554  0.0740  0.1900 -0.1151
31700W        W47884  16.969  14.164   1.673 -0.1951  0.0659  0.2023
31701W        W47885  14.314  15.142   3.687 -0.0792 -0.2048 -0.0430
31702W        W47886   7.418  11.949  11.954 -0.2058 -0.2167  0.0714
31703W        W47887   2.084   0.914   3.140  0.0894 -0.0346  0.0688
31704W        W47888   5.519  10.702  15.045 -0.0193 -0.0762 -0.2140
31705W        W47889   2.958   5.682  15.316 -0.1106 -0.1325 -0.2039
31706W        W47890   9.390  13.598  11.622  0.1580 -0.2288  0.2052
31707W        W47891   8.533  11.926  16.193  0.1435  0.0394  0.2557
31708W        W47892   3.581   1.261   0.870  0.0398  0.4624 -0.0868
31709W        W47893  16.024  14.704   1.507  0.0020  0.0576 -0.0939
31710W        W47894   7.679  14.491   1.456  0.2200  0.1104  0.1458
31711W        W47895  15.617   6.048   2.374  0.1379 -0.0132 -0.1307
31712W        W47896   3.785  17.831  11.397 -0.0425 -0.0405  0.2167
31713W        W47897   8.137   6.421  12.528 -0.4433 -0.1856 -0.1990
31714W        W47898   6.989   2.339   4.695  0.0567  0.0079  0.0716
31715W        W47899  12.020   1.045   4.720  0.0927  0.1951 -0.0173
31716W        W47900   8.104  12.720   1.748  0.2117  0.0491 -0.0793
31717W        W47901   8.578   9.433   0.439 -0.0101  0.0916  0.2200
31718W        W47902   3.292  13.347   2.886  0.0846  0.2475 -0.0988
31719W        W47903  12.526   5.549  13.683  0.1431 -0.1359  0.0484
31720W        W47904  10.608   1.921  13.016 -0.2312  0.1248 -0.1628
31721W        W47905  11.040  15.923   3.362  0.3643  0.2935 -0.0146
31722W        W47906   7.989  12.697  15.927  0.0290  0.1511  0.0125
31723W        W47907   4.042   9.920  16.390 -0.0134  0.1970  0.1214
31724W        W47908   3.313  16.516  16.499  0.0932  0.2534  0.1243
31725W        W47909  10.350  10.077   0.772  0.3453  0.1869  0.4219
31726W        W47910  17.791   0.495   1.904  0.3634  0.0127 -0.3324
31727W        W47911   1.787   0.479   2.372 -0.0379  0.2141  0.0548
31728W        W47912   4.077   2.189   3.436  0.3522  0.4544 -0.0097
31729W        W47913  11.926   3.974   2.340 -0.1196 -0.3384  0.0747
31730W        W47914   4.908   7.104   0.352  0.2313  0.0985 -0.0321
31731W        W47915   7.791   0.588  12.862 -0.0833 -0.0082  0.0425
31732W        W47916   0.864   4.789   2.627  0.0734 -0.1843 -0.2101
31733W        W47917   3.624  17.330   1.824 -0.4810  0.1145  0.1049
31734W        W47918   5.242   6.947   3.131 -0.2254  0.1135 -0.0461
31735W        W47919   5.475   4.964  13.361  0.1083 -0.0144  0.2684
31736W        W47920  15.564  16.391  12.145  0.2436 -0.1144  0.1497
31737W        W47921   4.036   7.805  12.482  0.1655 -0.1836  0.1293
31738W        W47922   5.350   8.559  12.854 -0.0013 -0.2535  0.1422
31739W        W47923   4.829  15.752  14.145  0.1384  0.4769  0.1877
31740W        W47924   5.362  16.968  13.894 -0.1892  0.1700 -0.2531
31741W        W47925  15.645  17.511   0.587  0.2897  0.2074 -0.0236
31742W        W47926   9.740  10.140   0.105  0.2745  0.1608 -0.1738
31743W        W47927   8.025   4.605  14.938 -0.0269 -0.0400  0.0870
31744W        W47928   2.586   9.175  12.900  0.4880  0.1698  0.3012
31745W        W47929  15.690   0.201   4.447  0.1067  0.2304 -0.1496
31746W        W47930  17.737   3.058   1.418 -0.2931  0.1170  0.1529
31747W        W47931  16.942  16.707   2.383 -0.1615 -0.1288 -0.2783
31748W        W47932  17.354  14.046  12.576  0.1510  0.1625  0.2212
31749W        W47933   3.205   6.456   5.614 -0.0996 -0.1891  0.0108
31750W        W47934   7.525  14.657   3.074  0.0211 -0.1004 -0.0104
31751W        W47935   4.030   2.830  14.702 -0.0170  0.3866 -0.0672
31752W        W47936  13.313   8.488   1.972 -0.1315  0.0760 -0.2037
31753W        W47937  12.209   8.282   1.947  0.0888  0.0524  0.1570
31754W        W47938  10.952  14.975   5.747  0.0416  0.1544  0.3223
31755W        W47939  16.927   9.669  14.246 -0.0515 -0.0715  0.0545
31756W        W47940   4.869   1.738  10.740 -0.1096  0.0376 -0.0435
31757W        W47941  17.546   5.265   2.759 -0.0834 -0.0179  0.2281
31758W        W47942   7.591   6.486   5.365 -0.0349  0.1920  0.0242
31759W        W47943  12.326   4.533  13.427  0.0533 -0.2093  0.0354
31760W        W47944  17.052  12.191  16.274 -0.3617 -0.1412  0.0411
31761W        W47945   9.330   5.589  12.234  0.2887 -0.3820  0.2540
31762W        W47946  14.504  17.101   1.990 -0.2276  0.0580  0.3800
31763W        W47947   4.677   3.230  15.864 -0.0553 -0.0030  0.0685
31764W        W47948   4.816  15.675   5.586 -0.1076 -0.1336  0.0131
31765W        W47949   1.483  10.498  12.063 -0.2884  0.1600  0.4119
31766W        W47950  11.480  16.129   4.488  0.0797  0.0106 -0.1441
31767W        W47951   8.362  12.341   3.361  0.1183 -0.1252 -0.1208
31768W        W47952   7.745   2.200   2.644 -0.1442  0.3959  0.2693
31769W        W47953  16.149  14.867  12.189 -0.1535  0.4254 -0.4317
31770W        W47954  11.653  15.920   4.930  0.0879  0.1275  0.2745
31771W        W47955  14.910  16.523   0.991  0.3767  0.1490 -0.0215
31772W        W47956  15.902   2.212  11.571  0.2505  0.2739  0.0186
31773W        W47957   2.588  15.600   2.143 -0.0732 -0.2146 -0.1280
31774W        W47958   6.520   7.526  13.970  0.3380  0.1494 -0.2679
31775W        W47959  12.149  17.694  13.767 -0.2374 -0.0507  0.1221
31776W        W47960   7.034  16.392   0.975 -0.1940  0.1300  0.0728
31777W        W47961  11.006   1.464   0.024  0.1615  0.2796  0.2131
31778W        W47962   6.890   8.052   3.668 -0.1252  0.1977 -0.0091
31779W        W47963   1.083  10.176   0.846  0.1879 -0.0103 -0.0965
31780W        W47964   6.482   5.048  15.363  0.1638 -0.0961 -0.0485
31781W        W47965  15.554   2.975  12.481 -0.2490 -0.0276 -0.1270
31782W        W47966   2.502  15.318   3.878  0.1114  0.1623  0.1386
31783W        W47967   8.592   5.887   1.618  0.0270  0.1660  0.1506
31784W        W47968   8.274  17.075   0.661  0.0034 -0.2576 -0.3967
31785W        W47969  14.973  15.631  14.001  0.4472  0.2547  0.0717
31786W        W47970   2.956  13.074  16.489 -0.0133 -0.1211 -0.0282
31787W        W47971   1.396  17.718   6.506  0.0472 -0.2368  0.0683
31788W        W47972   6.882  13.512   1.906  0.0793  0.0701 -0.1286
31789W        W47973  13.206  11.032   2.698 -0.1022 -0.1065  0.1245
31790W        W47974   5.940   6.780   2.578 -0.1770  0.1058 -0.1025
31791W        W47975  16.059   4.558  14.772 -0.1053  0.0613 -0.0032
31792W        W47976  14.006   4.691  11.862 -0.3797 -0.3634  0.1491
31793W        W47977  16.207  11.154  14.058 -0.2539 -0.0270  0.0128
31794W        W47978  15.613  10.344   5.532 -0.1386 -0.2051  0.1610
31795W        W47979  16.507  15.557   2.071  0.0629 -0.2440  0.2538
31796W        W47980   2.294   6.255  16.153 -0.0469  0.0320 -0.4446
31797W        W47981  10.051  12.953   4.482  0.2602 -0.2090  0.0220
31798W        W47982  16.631   4.411   5.608 -0.1526  0.0657  0.2701
31799W        W47983   4.705   4.881   5.013  0.1685  0.0997 -0.1683
31800W        W47984   8.203   2.891   4.826  0.0514  0.1483 -0.0035
31801W        W47985   0.575   4.717   5.737  0.0682  0.0659  0.2131
31802W        W47986   3.687   0.225   5.738 -0.1147  0.1884 -0.2997
31803W        W47987   5.117   8.340  14.981 -0.2110 -0.0680 -0.2162
31804W        W47988   0.566   0.838   1.091 -0.1829 -0.0802 -0.0195
31805W        W47989  15.816   8.611   4.852  0.2289  0.2380  0.2215
31806W        W47990  12.303  15.754   2.494 -0.1576  0.1220 -0.0255
31807W        W47991  14.697   3.299   2.895 -0.1862 -0.0268 -0.1598
31808W        W47992  12.799  10.259   3.392 -0.1689 -0.0344 -0.1051
31809W        W47993  10.508  13.449  16.721 -0.3587 -0.1761 -0.1784
31810W        W47994   6.842   5.590   0.918 -0.0451 -0.0334  0.1812
31811W        W47995   0.616   8.329   1.302 -0.0915 -0.0736  0.0854
31812W        W47996   6.466   3.426   4.849  0.0206  0.1523  0.0314
31813W        W47997   1.481   0.255  15.091  0.0322  0.2498 -0.0585
31814W        W47998   5.595  14.753  13.182  0.0650  0.3122 -0.3144
31815W        W47999  14.587   4.037   2.584  0.1864  0.1726  0.0824
31816W        W48000   8.733  17.475   3.709  0.2160 -0.2142 -0.0951
31817W        W48001  15.414  14.496  11.708  0.2138 -0.4138 -0.0815
31818W        W48002  12.289   4.119  14.156  0.0421  0.1017 -0.0968
31819W        W48003   6.547  14.851  11.491 -0.0713 -0.0360  0.2939
31820W        W48004   4.912   7.466  11.933 -0.1100  0.0104  0.0572
31821W        W48005   6.152   0.818  15.909 -0.0633 -0.2568 -0.0361
31822W        W48006   6.555  16.466  14.120 -0.1051 -0.0840 -0.0910
31823W        W48007  12.107   0.911  14.093 -0.0485 -0.3861  0.0121
31824W        W48008  10.518   5.865  14.096 -0.0542 -0.1030  0.0655
31825W        W48009  15.111   2.496   0.940  0.1943  0.1217 -0.1039
31826W        W48010  10.412   6.823  14.946 -0.2208  0.0483 -0.1432
31827W        W48011   7.450   3.800  16.748  0.2193  0.0169 -0.0392
31828W        W48012   4.315  14.722  16.553  0.2503 -0.1993 -0.1399
31829W        W48013   2.356   0.825  12.799  0.2612 -0.2550 -0.0289
31830W        W48014  17.778   0.475   4.502 -0.1503  0.3233  0.0682
31831W        W48015  12.032  13.644   4.686 -0.1106 -0.2334 -0.3127
31832W        W48016   0.937   4.171   3.406  0.3558  0.0619 -0.0338
31833W        W48017   4.417  17.451   2.840  0.0091  0.0429  0.1290
31834W        W48018   4.101  16.448  15.443  0.3505  0.0494 -0.1639
31835W        W48019  15.165  10.164   2.082 -0.0515 -0.2807  0.1984
31836W        W48020   9.617   6.758   0.724 -0.0237  0.1564 -0.0139
31837W        W48021   7.937  10.494   3.238 -0.2090 -0.0664 -0.0497
31838W        W48022  10.504   6.935  14.046  0.0401  0.1307 -0.1310
31839W        W48023   1.168   3.527   4.634 -0.1774  0.0426 -0.0437
31840W        W48024  10.568  12.468   4.896 -0.0592  0.0986  0.2772
31841W        W48025   1.747   8.705   5.924  0.0559 -0.0700 -0.0176
31842W        W48026  16.328  13.169  12.096  0.3432 -0.0841  0.0245
31843W        W48027   5.135  10.410  14.555  0.0418 -0.1835  0.1342
31844W        W48028   5.027   3.025   5.689  0.3490 -0.0207 -0.0437
31845W        W48029  11.182   2.614   3.339  0.0917 -0.2781  0.0355
31846W        W48030  17.396  16.344   0.107  0.0383  0.1689 -0.0445
31847W        W48031  16.562   5.279   2.937 -0.2872 -0.0258  0.2387
31848W        W48032   8.368  11.616  15.697 -0.2437  0.2797  0.2316
31849W        W48033   8.929   1.694   1.613  0.0574  0.3588 -0.2065
31850W        W48034   0.005   0.038   4.278 -0.1730  0.1921 -0.3200
31851W        W48035  11.125   7.743   1.229  0.2252  0.1622  0.0029
31852W        W48036  11.481   4.503   0.943 -0.0161 -0.1169  0.1139
31853W        W48037   9.224  14.232  12.148  0.2842 -0.1229  0.0206
31854W        W48038  12.904   1.954  13.005  0.3660  0.1464  0.1981
31855W        W48039  10.833   8.011  13.710 -0.0732  0.1910  0.0412
31856W        W48040  14.941  13.696  12.093 -0.1710  0.0396 -0.2858
31857W        W48041   6.856   8.676   2.802 -0.0010 -0.1208  0.2719
31858W        W48042   3.176   6.904   5.823 -0.2167 -0.0279 -0.2039
31859W        W48043   1.444  15.584  15.908 -0.0488 -0.0278  0.1259
31860W        W48044   1.462  11.632  14.119 -0.2731  0.2049 -0.1703
31861W        W48045  12.873   7.209  13.372 -0.0288  0.4529  0.0364
31862W        W48046  16.833   6.940  14.876 -0.0808 -0.0687 -0.2955
31863W        W48047  15.140   8.727   5.863 -0.0568 -0.1812 -0.0249
31864W        W48048  12.407   0.222   1.340  0.0738  0.0841  0.1549
31865W        W48049   0.083  11.404  12.942  0.0390  0.1363  0.2130
31866W        W48050   8.421  15.572  12.897  0.0721 -0.0479 -0.1412
31867W        W48051  12.478   6.583   2.618  0.0830  0.0064 -0.0620
31868W        W48052  17.140   0.810  15.453  0.2064  0.1555 -0.0858
31869W        W48053   7.169   5.064   5.777 -0.1137  0.0920 -0.1625
31870W        W48054   1.718   3.483   3.923  0.1977 -0.1291 -0.0439
31871W        W48055  12.950  15.045   5.786  0.1908 -0.0587  0.1108
31872W        W48056   2.486   8.149  16.088 -0.0678 -0.1203  0.4101
31873W        W48057   0.508  15.587   1.692 -0.3656 -0.0270 -0.0050
31874W        W48058   2.266   0.818  13.303  0.0030 -0.1133 -0.0885
31875W        W48059   5.802  16.661   4.614 -0.0600 -0.2024 -0.3996
31876W        W48060  14.458  11.137   5.018  0.0785  0.3326  0.0043
31877W        W48061   2.177  14.640   1.214 -0.0041 -0.0945  0.0839
31878W        W48062  16.938  16.806  14.172  0.0751 -0.1074 -0.1058
31879W        W48063   6.319  13.356  12.780  0.0156  0.0698 -0.0283
31880W        W48064  13.325  16.138   3.404  0.0580  0.0054  0.0030
31881W        W48065   0.231  12.511  16.413  0.1481 -0.2001  0.0832
31882W        W48066   6.670  16.329  15.579  0.2413  0.1431  0.0229
31883W        W48067  16.501   0.926  13.296 -0.3729 -0.0025 -0.1028
31884W        W48068  11.591  13.601   4.888 -0.0525 -0.2928  0.0378
31885W        W48069  17.672  13.165   2.696  0.2048 -0.1095 -0.1163
31886W        W48070  17.516  11.171   0.736 -0.2309 -0.1579  0.3403
31887W        W48071   8.470  16.335   2.523 -0.1631 -0.0412  0.1461
31888W        W48072   5.586  13.433   2.501 -0.0874 -0.2519 -0.1850
31889W        W48073   2.577   1.813  12.138 -0.2072 -0.0251 -0.3563
31890W        W48074   5.946  17.120  14.776  0.2417  0.0324 -0.0221
31891W        W48075  14.418  13.488   2.127 -0.0588  0.0836  0.0537
31892W        W48076   0.885  12.486   4.332 -0.1973  0.0310  0.0177
31893W        W48077   7.932   7.056   3.759 -0.2512 -0.0026  0.0376
31894W        W48078  11.282  17.719   2.547 -0.0765 -0.0830  0.2095
31895W        W48079  10.942  11.852   5.445  0.1503  0.0253 -0.1101
31896W        W48080   8.646  17.020   3.948  0.0828 -0.1626 -0.0889
31897W        W48081   1.755   5.132  14.653  0.0633 -0.1672  0.0776
31898W        W48082  10.220  16.414  13.961  0.0477  0.0739  0.0552
31899W        W48083  11.211  13.292   1.561 -0.3314  0.1551 -0.0174
31900W        W48084   1.422  11.723   4.586 -0.2219  0.0340  0.0691
31901W        W48085   0.817   1.889  12.535  0.0473  0.2132 -0.1247
31902W        W48086  16.991   8.749   0.714 -0.0292  0.2848 -0.0927
31903W        W48087  17.085  10.363   4.357 -0.0949 -0.2313 -0.0656
31904W        W48088   9.400   2.386  14.330 -0.0509 -0.3732  0.0613
31905W        W48089   6.473  13.016   3.263  0.2527  0.0217 -0.1686
31906W        W48090   4.219  15.458   2.816 -0.2208 -0.2514 -0.0821
31907W        W48091   9.126   5.458   4.477  0.0110  0.1019 -0.2667
31908W        W48092   5.576   0.082   5.843 -0.0073 -0.0786 -0.0155
31909W        W48093   2.131  17.086   6.092 -0.0229 -0.1766 -0.0918
31910W        W48094   9.919  15.186  13.392 -0.1598 -0.0922  0.0750
31911W        W48095  17.399   1.114   0.862 -0.1296 -0.0274 -0.1980
31912W        W48096   4.258   0.940  13.837 -0.3172 -0.2800 -0.4166
31913W        W48097  17.077  15.653   6.018 -0.2495  0.1061  0.1426
31914W        W48098   6.741   7.728  15.721 -0.3203 -0.3349 -0.2970
31915W        W48099   0.836  16.877   0.545 -0.1104 -0.1075  0.0473
31916W        W48100   5.611  15.161  16.704 -0.3521  0.1992  0.3323
31917W        W48101   4.502   9.571   5.980 -0.1990  0.0108  0.1337
31918W        W48102   3.372   0.566   2.829 -0.0369 -0.1875  0.2693
31919W        W48103   2.188  14.641  16.915 -0.1612 -0.0361 -0.1094
31920W        W48104   2.558   8.945   4.453  0.0464  0.2471  0.1369
31921W        W48105   2.009  15.990   5.198 -0.1013  0.1053  0.1003
31922W        W48106  13.205  17.411   0.974  0.1140 -0.0196 -0.0361
31923W        W48107   3.322  13.153  13.409 -0.0489  0.0930 -0.0548
31924W        W48108   2.722   2.839   4.550  0.0645 -0.0565  0.0910
31925W        W48109   7.273   2.840  14.600 -0.1316  0.1579 -0.2386
31926W        W48110   6.341   2.000   5.602  0.0478  0.0068  0.2136
31927W        W48111  16.674   4.093  13.959 -0.0586 -0.0325 -0.2249
31928W        W48112   8.071  10.874  12.747  0.2779  0.0757  0.1341
31929W        W48113  15.110  16.224  14.787 -0.0570  0.1369  0.3497
31930W        W48114   5.042   3.853   3.277 -0.0464 -0.2665 -0.0513
31931W        W48115   9.713  12.192  13.443 -0.1687  0.1664 -0.0655
31932W        W48116   5.361  14.674   3.450  0.3545  0.1538  0.1078
31933W        W48117   3.555  11.409   0.216  0.0556  0.0135  0.0594
31934W        W48118  10.300  13.045   3.656 -0.1833 -0.0050 -0.1649
31935W        W48119   8.871  11.061   5.179  0.2643  0.1577 -0.0642
31936W        W48120   5.474   9.977  15.567  0.0674 -0.0214 -0.1889
31937W        W48121   6.212  10.536  13.845  0.0260  0.2885 -0.0912
31938W        W48122  11.720  14.332  12.073  0.1077 -0.0224 -0.0545
31939W        W48123  10.314  16.762   3.156 -0.0233  0.1302 -0.2319
31940W        W48124   7.231   2.743   0.945 -0.2166 -0.1035 -0.0985
31941W        W48125   9.932  12.939   1.763 -0.3485 -0.0811  0.1816
31942W        W48126   1.995  16.135  16.842  0.2151 -0.0714  0.0410
31943W        W48127  11.073  16.361  13.537 -0.1720  0.3566  0.0810
31944W        W48128  11.365  15.329   4.331 -0.0649 -0.1892  0.2124
31945W        W48129   9.702  12.271   4.515  0.2130  0.3908  0.0727
31946W        W48130  15.186   3.636   3.550  0.2734 -0.0923  0.1900
31947W        W48131   0.762  16.226   1.055  0.2795  0.1132  0.2618
31948W        W48132   0.692   6.242  14.053 -0.1016 -0.0527 -0.2492
31949W        W48133   0.202   0.662   6.508  0.4022  0.0852 -0.2687
31950W        W48134  11.959  16.742  16.356 -0.0102 -0.0312 -0.0661
31951W        W48135   1.707  16.817  16.219 -0.3468 -0.0472 -0.0196
31952W        W48136   4.228  15.278  13.762  0.0788  0.1587 -0.0906
31953W        W48137   7.043  12.964   4.596  0.1763 -0.0591 -0.0050
31954W        W48138  13.011   6.102   1.282 -0.0063 -0.2303  0.3191
31955W        W48139  16.983  15.675  15.854 -0.3348 -0.0310  0.1080
31956W        W48140  17.276  16.347   0.995  0.2508  0.1741  0.4132
31957W        W48141  13.331  13.081  13.927  0.1550  0.0531  0.0423
31958W        W48142   6.428   1.383  14.411  0.0087 -0.0500 -0.0411
31959W        W48143   1.575  12.822   2.442 -0.3427 -0.1956 -0.0406
31960W        W48144   6.824  15.853   0.253 -0.0079 -0.2487  0.0697
31961W        W48145  11.892   4.862  14.685  0.1999  0.1424  0.1277
31962W        W48146  17.035  14.351   4.383  0.1242  0.1977  0.0283
31963W        W48147  11.884   1.060  15.682 -0.1295 -0.0143 -0.0518
31964W        W48148  15.636   5.071  16.288 -0.1563 -0.1612  0.0188
31965W        W48149   2.728  10.296   4.809  0.2271  0.0327  0.3007
31966W        W48150   8.377  10.088  12.175  0.1653  0.2992 -0.2294
31967W        W48151   0.732  12.432  12.063 -0.1155 -0.0024 -0.0097
31968W        W48152   4.159   8.860  14.468  0.2703  0.0641  0.3288
31969W        W48153   2.308   8.209  13.661 -0.0330 -0.2036  0.0426
31970W        W48154   8.859  13.935   0.326 -0.2677 -0.0234 -0.0450
31971W        W48155   0.658  16.810   1.190  0.0415 -0.2251 -0.1367
31972W        W48156   1.408   9.527   0.569  0.1534 -0.1444  0.0175
31973W        W48157  16.131   9.215  14.058  0.0238 -0.0842  0.0438
31974W        W48158   2.771  10.996  15.817  0.4366 -0.3012  0.1506
31975W        W48159   2.218  16.356   3.161 -0.0531  0.3110 -0.1664
31976W        W48160  13.494   7.900  15.445 -0.2389  0.0176  0.0459
31977W        W48161  17.156   3.577   0.812  0.0673 -0.2619 -0.0941
31978W        W48162  11.152  10.226   1.028  0.5069  0.2982  0.2901
31979W        W48163   2.354   0.791  15.816 -0.2602 -0.1814  0.0186
31980W        W48164   9.844   4.439   5.406 -0.2557  0.1197 -0.0878
31981W        W48165   4.880  13.302   4.602  0.3914 -0.0782  0.1258
31982W        W48166   3.995   3.543   3.011  0.1037  0.2231  0.2726
31983W        W48167  17.321  11.009  16.118 -0.2353 -0.0064 -0.0591
31984W        W48168  13.767   1.811  16.663  0.1361 -0.0765 -0.0018
31985W        W48169   7.576  13.285   1.292  0.2797 -0.0061  0.2275
31986W        W48170   9.731   4.524  16.034 -0.0455  0.0190  0.3121
31987W        W48171   4.474  16.723  16.534 -0.1467 -0.2953  0.0280
31988W        W48172  11.740  17.278  10.960 -0.1796 -0.0556 -0.0862
31989W        W48173  11.480   7.953   0.400 -0.3619  0.1596 -0.0093
31990W        W48174   6.466  13.387   4.726 -0.3677  0.0343 -0.0475
31991W        W48175   9.324   5.994  13.635 -0.1847  0.0282  0.3221
31992W        W48176   1.332  17.530   0.439  0.1044 -0.0702  0.0213
31993W        W48177   3.435   9.495   5.234  0.0888  0.0924 -0.0699
31994W        W48178  14.025  11.220  14.013  0.1265  0.1768 -0.1171
31995W        W48179   1.060  10.678   1.091 -0.0208  0.1971  0.0975
31996W        W48180  16.729  10.816   3.698 -0.3449  0.0607  0.0415
31997W        W48181   8.845   8.161  12.386  0.2042  0.1297  0.2973
31998W        W48182   6.078  16.715   0.499  0.0688 -0.1451 -0.0121
31999W        W48183  15.687  10.722   4.668  0.4418  0.0785  0.2118
32000W        W48184  13.546   8.482   5.790  0.0283  0.1492 -0.2034
32001W        W48185   3.154   3.027   5.195 -0.1195 -0.2147  0.1929
32002W        W48186   3.066   1.527   0.105 -0.0401  0.0966 -0.0903
32003W        W48187  16.512  13.632   4.145  0.3406 -0.1288  0.1907
32004W        W48188   3.582   5.030   0.660 -0.0166 -0.0833 -0.2753
32005W        W48189  16.926   5.841  16.435 -0.0251  0.1807  0.0785
32006W        W48190  11.171  10.721   4.190 -0.2207 -0.4381  0.1920
32007W        W48191   8.169  14.800  13.993 -0.2593  0.1529 -0.0117
32008W        W48192   6.890   7.079  12.635  0.1041  0.2345  0.2216
32009W        W48193   1.722  15.035  14.010 -0.1102 -0.1896 -0.1770
32010W        W48194  16.354  15.805  15.741 -0.0436  0.1235 -0.3205
32011W        W48195   7.887  13.076  10.938  0.0934  0.0462  0.2921
32012W        W48196   7.088  15.576  13.590 -0.0570  0.0676 -0.0914
32013W        W48197   3.302   7.763  16.856 -0.0150 -0.1856  0.1589
32014W        W48198  14.821  11.077   3.981 -0.0598  0.0230 -0.0941
32015W        W48199  15.584  15.203   5.328  0.2123  0.0172  0.0265
32016W        W48200  17.563  13.968   0.836 -0.1925  0.1363  0.3801
32017W        W48201  13.213   0.430  16.579  0.2049  0.1168  0.1695
32018W        W48202   6.496   5.047   2.100 -0.3282 -0.0250 -0.0203
32019W        W48203   5.502   6.970   0.400  0.1443 -0.0988 -0.2087
32020W        W48204  17.680  14.292  12.051 -0.5561 -0.1069  0.1822
32021W        W48205   1.284   4.516   1.678  0.2856  0.2905  0.0294
32022W        W48206   4.427  10.589  13.132  0.1662  0.1682 -0.0226
32023W        W48207  14.902  13.522  16.886  0.0126 -0.0183 -0.1544
32024W        W48208   0.294  12.547   3.279 -0.1095  0.0414  0.4064
32025W        W48209   0.363   8.795   1.564 -0.0853  0.1059 -0.0990
32026W        W48210   9.276  12.311  11.559 -0.0179  0.0384  0.1085
32027W        W48211  12.752   0.858   4.535  0.1120  0.1796 -0.0803
32028W        W48212  17.176   3.976   2.804  0.1244  0.3103  0.0030
32029W        W48213  14.415   1.735   2.106 -0.0903 -0.0341  0.0614
32030W        W48214   8.981   3.103   2.414  0.0978 -0.0960 -0.0249
32031W        W48215   5.900  13.070   0.284  0.1889 -0.1295 -0.0731
32032W        W48216   4.122   2.130   2.823 -0.2037 -0.0831 -0.2495
32033W        W48217  17.039   5.947  15.958 -0.0605  0.2493 -0.2752
32034W        W48218   7.262   4.171   2.261 -0.0956 -0.1262  0.2411
32035W        W48219  10.663   0.886  16.313  0.0864  0.3391  0.2442
32036W        W48220  11.755   0.649   3.685  0.1810 -0.1300  0.0187
32037W        W48221  13.334  16.030  14.404  0.1104  0.0090  0.4186
32038W        W48222   9.179   5.213   3.264 -0.0655  0.0381  0.0468
32039W        W48223  16.460   5.030   5.238 -0.0210  0.2185  0.0180
32040W        W48224  12.673  11.662   6.069 -0.1875 -0.4448 -0.1115
32041W        W48225   5.819   7.537   4.152  0.1809  0.0884 -0.2527
32042W        W48226   8.959  15.665  14.325 -0.1807  0.1803  0.4602
32043W        W48227  13.773   3.533   5.617  0.2114 -0.1527  0.2445
32044W        W48228  17.083   8.309  16.269  0.1195 -0.0328  0.2544
32045W        W48229   0.699   2.347  14.473 -0.0151  0.1768  0.0940
32046W        W48230   5.142  15.642  13.718 -0.5127 -0.0645  0.0215
32047W        W48231   0.977   8.705  13.360  0.1942 -0.1247  0.2232
32048W        W48232  16.391   0.915   0.407  0.2441  0.2144  0.1612
32049W        W48233   5.722   3.376  11.805  0.2310 -0.0902 -0.0028
32050W        W48234   4.703   4.869  15.037  0.1623  0.0083 -0.1082
32051W        W48235   2.648   6.891   2.922 -0.5418 -0.3778  0.2549
32052W        W48236  10.965   8.172  16.737  0.3559  0.1422 -0.2560
32053W        W48237   7.511   8.773  16.206 -0.1565 -0.1160  0.0382
32054W        W48238   6.045  13.775   1.591 -0.0597 -0.1042  0.0990
32055W        W48239  16.787   5.959   4.279 -0.2232  0.0655 -0.4771
32056W        W48240  12.067  13.541  12.026 -0.2346 -0.1495  0.0624
32057W        W48241  17.490  15.482  11.317 -0.1158 -0.1167  0.0017
32058W        W48242  13.783  10.736   3.527 -0.2605  0.1725 -0.0915
32059W        W48243   1.450  15.189  15.480 -0.0376  0.1751 -0.2727
32060W        W48244  17.627   2.254  14.705  0.1357 -0.1258 -0.0902
32061W        W48245   1.765   5.527   1.910 -0.0365  0.2727 -0.0000
32062W        W48246   3.680   0.139   2.789 -0.3330 -0.1692 -0.0272
32063W        W48247   7.319   8.774   0.442 -0.0437 -0.1836 -0.0815
32064W        W48248   4.241   9.583   1.048 -0.0726 -0.2771  0.0554
32065W        W48249  17.394  12.351   3.211 -0.2147  0.1291  0.1057
32066W        W48250   2.478   4.194   0.697  0.1961  0.0786  0.0719
32067W        W48251   6.093  15.671   0.957  0.4472 -0.0517 -0.0398
32068W        W48252  15.405  10.099  13.838 -0.0068 -0.2434  0.2874
32069W        W48253   6.876   9.554   3.128 -0.1093  0.1743  0.0731
32070W        W48254  11.814  12.004  15.021 -0.0460 -0.1507 -0.2236
32071W        W48255   9.447  13.078   3.289 -0.0764  0.1680 -0.2955
32072W        W48256  12.508   8.205  15.829  0.1430  0.0393  0.0917
32073W        W48257  17.076  17.009   4.043  0.0696 -0.1508  0.1117
32074W        W48258  10.226   4.674   3.130  0.1990  0.5038 -0.1729
32075W        W48259  17.023   4.341  14.870  0.1740  0.2902  0.2637
32076W        W48260   8.896   6.856  15.524  0.0628 -0.0458 -0.2164
32077W        W48261  16.121   9.583  16.627  0.1475 -0.1264 -0.0379
32078W        W48262   0.508  12.532   0.423  0.1877 -0.0308  0.2405
32079W        W48263   6.683   7.654   1.833  0.1328 -0.0787 -0.0979
32080W        W48264  13.253   9.480   2.401 -0.3975  0.1072 -0.0471
32081W        W48265   3.609  12.446   0.004  0.3570  0.1909  0.1555
32082W        W48266   2.009   3.290   3.401 -0.0686 -0.0708  0.1407
32083W        W48267   4.629  17.089  16.257 -0.0347 -0.3184  0.0242
32084W        W48268   2.334  12.538  11.315  0.1409  0.1993 -0.4301
32085W        W48269  15.530  12.348   1.850 -0.0593 -0.1016  0.0111
32086W        W48270   7.583  11.096  12.573 -0.1145  0.1403 -0.1717
32087W        W48271   4.907  11.234  12.607 -0.1850  0.0611 -0.1232
32088W        W48272  12.756  11.792   4.248  0.1381 -0.2354  0.2245
32089W        W48273   3.401  12.661   0.770 -0.0570 -0.1075  0.1083
32090W        W48274   8.918   7.822  15.088  0.3459 -0.1566 -0.1673
32091W        W48275  15.844   5.310   0.792  0.0496 -0.2996 -0.0376
32092W        W48276   1.734  16.700   5.382 -0.3085 -0.0526 -0.1455
32093W        W48277  11.189  13.129   3.350  0.0690 -0.1355  0.0293
32094W        W48278  15.424   7.349   6.031 -0.2816 -0.0101 -0.1942
32095W        W48279   5.717  14.638  15.862  0.1333  0.0716 -0.2147
32096W        W48280  17.023  17.380  13.910  0.0217  0.2252 -0.0632
32097W        W48281   5.081   4.494  11.741 -0.0193 -0.0227  0.2371
32098W        W48282   0.908  16.748  13.074  0.2273 -0.1334 -0.0594
32099W        W48283   8.933  10.145   2.815  0.1239  0.1358  0.1146
32100W        W48284   5.557  10.605   4.179  0.1953  0.0179  0.2698
32101W        W48285   9.252  13.969   4.111 -0.0972 -0.1641  0.1189
32102W        W48286  16.123   2.733  14.987  0.0044  0.0303  0.0806
32103W        W48287   6.767   2.074  12.051  0.1805 -0.3148 -0.0013
32104W        W48288  13.580   3.609   5.182  0.0280 -0.0851  0.1737
32105W        W48289  11.902   3.414  15.744  0.2060  0.0436  0.1119
32106W        W48290  17.440   6.409  15.328  0.0307  0.3041  0.1898
32107W        W48291   7.705  15.853   4.705  0.2068  0.2230 -0.0834
32108W        W48292   8.888  15.832   1.159  0.1750 -0.0211  0.1422
32109W        W48293  14.355   4.145   6.170 -0.0475  0.0334 -0.1050
32110W        W48294   2.789   7.313   5.394 -0.0309 -0.0533 -0.0562
32111W        W48295   6.822  16.246  12.126 -0.0303 -0.2037 -0.1621
32112W        W48296   0.682   3.532   5.958 -0.1968 -0.0460 -0.2826
32113W        W48297   3.916  17.608  15.214 -0.1299  0.2029  0.1850
32114W        W48298  14.426  17.356   0.020 -0.2321  0.0187  0.2315
32115W        W48299   5.231  17.508  13.229 -0.1912  0.0790  0.0024
32116W        W48300  16.947  16.641  11.630 -0.0146 -0.0732 -0.1268
32117W        W48301  17.623   8.519   4.926 -0.1937  0.1684  0.2508
32118W        W48302  10.946  10.523   4.697 -0.1272 -0.2640  0.1058
32119W        W48303   2.330  16.713  12.360  0.0961 -0.0792 -0.0001
32120W        W48304   2.290  10.348   5.611  0.0707  0.0979  0.1634
32121W        W48305   6.033  12.632   4.634  0.3338 -0.0866  0.0280
32122W        W48306  13.628   2.767  14.003  0.1141 -0.0241 -0.0215
32123W        W48307   5.898   4.893   3.474  0.3533  0.0436  0.0032
32124W        W48308  16.295  12.721   5.248 -0.1422 -0.2358 -0.3656
32125W        W48309   8.022  10.745   2.807 -0.1398  0.0554  0.0492
32126W        W48310   3.859  10.390  12.188  0.0040  0.2173 -0.1917
32127W        W48311  10.497   5.599  15.580 -0.0487  0.1140  0.1437
32128W        W48312   1.904   7.627  15.227  0.2958  0.2764 -0.0976
32129W        W48313   5.392   1.549   3.864  0.1392 -0.2638 -0.0053
32130W        W48314   3.410  15.618   0.924  0.2807 -0.0262  0.1967
32131W        W48315  16.765   4.198  13.505 -0.0803  0.1548 -0.1466
32132W        W48316   1.984  12.894   0.715 -0.4055 -0.1235 -0.1044
32133W        W48317   6.259   7.528  15.680  0.1891  0.5320 -0.2266
32134W        W48318  11.914  17.334  12.767  0.2603 -0.1188 -0.0117
32135W        W48319   2.754  13.917   0.692  0.1916  0.0293 -0.0529
32136W        W48320   3.899  13.506   4.540 -0.0755  0.1165 -0.3675
32137W        W48321   0.223   4.968  12.867 -0.0324 -0.3634 -0.0509
32138W        W48322  12.768  14.045   2.203  0.1518 -0.1029 -0.0926
32139W        W48323   1.736   5.254  12.579 -0.2279 -0.0229  0.0303
32140W        W48324  13.108   6.185   4.356 -0.1785 -0.0623  0.0416
32141W        W48325   8.285  15.706  16.100  0.0174  0.1606  0.0686
32142W        W48326  15.556  11.527   2.170 -0.0884  0.0390 -0.2775
32143W        W48327  11.697   4.400   1.384  0.1387  0.2489  0.1697
32144W        W48328   4.774   8.017   0.874 -0.1519 -0.3371 -0.2003
32145W        W48329  10.720  10.498  13.023  0.2674 -0.0984  0.2341
32146W        W48330  13.654  13.101   3.369 -0.3225  0.0185 -0.1156
32147W        W48331  16.959   6.251   1.354 -0.0063 -0.2262  0.1195
32148W        W48332  17.326  17.726   4.906 -0.0653 -0.1959  0.2877
32149W        W48333   5.176  15.122   3.173 -0.0405 -0.1477 -0.1435
32150W        W48334   5.993  14.969   5.069 -0.1359 -0.1774  0.2970
32151W        W48335   7.178   7.519  15.478  0.3309  0.1214  0.0345
32152W        W48336   1.899   6.989  12.408  0.0645  0.0407  0.2027
32153W        W48337   3.834  10.404  10.846  0.0855  0.3177 -0.0517
32154W        W48338   8.546  15.688  11.042  0.0786 -0.1505  0.3119
32155W        W48339   3.924  13.096   4.150  0.0292 -0.0545 -0.0739
32156W        W48340   4.181   1.634  13.026  0.1539 -0.0026  0.0494
32157W        W48341  10.769   3.778   0.716  0.0034  0.1542 -0.1879
32158W        W48342  17.667   9.644  13.016 -0.2853  0.1342  0.2991
32159W        W48343   4.410  14.310   1.397  0.0503  0.0686  0.1100
32160W        W48344  14.472   4.280  14.126  0.0799 -0.3017 -0.0936
32161W        W48345  12.024   3.956   3.215  0.3630 -0.0616  0.2237
32162W        W48346  10.099   2.711  12.312  0.2455 -0.0676  0.3081
32163W        W48347  13.417   7.093   2.512  0.2148  0.2175  0.2458
32164W        W48348  11.002   8.096  11.894  0.1497 -0.0376 -0.1410
32165W        W48349   2.360  13.307  10.377  0.2998  0.1823  0.3147
32166W        W48350   5.153  17.750   5.736  0.0037 -0.0309 -0.0318
32167W        W48351  12.486   4.541  12.210  0.1013  0.0709  0.1489
32168W        W48352   3.741   3.860   2.591 -0.1416 -0.0145 -0.6501
32169W        W48353  13.626  14.566   2.550 -0.2958  0.3641 -0.2257
32170W        W48354   8.506   0.636   4.031  0.0296 -0.1695 -0.2157
32171W        W48355  12.980  16.994  11.206  0.0457 -0.2083  0.2201
32172W        W48356   3.732  10.185  13.738  0.1450 -0.1054 -0.0098
32173W        W48357   8.722   6.617   4.092  0.0178  0.0675 -0.0118
32174W        W48358  15.903  11.836  12.343 -0.1228 -0.2512  0.4604
32175W        W48359  10.986   9.674   4.157  0.1595 -0.1793  0.2220
32176W        W48360   2.844  17.424   0.130  0.2927 -0.3058  0.0620
32177W        W48361  10.003  10.926   1.767  0.0070  0.2232 -0.1334
32178W        W48362   4.291  10.822  14.453  0.2692 -0.1683 -0.1910
32179W        W48363  11.805   6.640   4.602  0.0015  0.0252  0.2523
32180W        W48364  13.147   1.495   2.013  0.2760 -0.3418 -0.3319
32181W        W48365  13.748  14.559  15.472  0.1956  0.0397 -0.2263
32182W        W48366   7.393  13.250  11.731  0.0720  0.1075  0.3021
32183W        W48367  15.548   5.390  14.299 -0.0469  0.1098  0.0664
32184W        W48368   4.720   9.442   4.896 -0.1727 -0.0542  0.1059
32185W        W48369  10.445   4.592   2.131  0.2329 -0.0876  0.4440
32186W        W48370   8.605  16.084   2.931  0.0441 -0.3344  0.7680
32187W        W48371   7.032   3.613   1.761  0.0758 -0.0514  0.1576
32188W        W48372   6.140  14.484   5.065 -0.2045  0.1952  0.1482
32189W        W48373  11.407   6.146   1.542  0.0901  0.2359 -0.0788
32190W        W48374  11.691   2.816  12.954 -0.2006 -0.2450  0.0147
32191W        W48375  10.829  11.246  11.696 -0.2021  0.1086  0.0555
32192W        W48376  15.952   2.757   1.570  0.0408 -0.0004 -0.0761
32193W        W48377   7.758   6.858   5.733  0.3324  0.0827  0.0501
32194W        W48378   0.021   7.455  13.753  0.0620 -0.0989 -0.0670
32195W        W48379   2.319   5.078   0.924 -0.1151  0.1379  0.0855
32196W        W48380   8.593  13.985  15.094 -0.1722 -0.4798 -0.1230
32197W        W48381   7.382  10.258  13.145  0.1098 -0.0197 -0.1638
32198W        W48382   1.211  17.129   3.987 -0.1254  0.0399  0.0166
32199W        W48383   0.583   2.706  13.138 -0.2304  0.3553  0.2911
32200W        W48384  13.956   1.375  16.712 -0.2046  0.2096 -0.0101
32201W        W48385  12.136   2.980  12.413 -0.0203 -0.0294  0.0643
32202W        W48386  13.831   3.550  12.541 -0.1172 -0.2503 -0.0444
32203W        W48387   0.782   3.027   6.115 -0.1078 -0.1200  0.1700
32204W        W48388   6.282   0.320   3.589  0.1719  0.5643  0.0798
32205W        W48389  15.328   6.490   0.032  0.2664  0.3336  0.1925
32206W        W48390  17.057   2.654   4.336 -0.2127  0.2236  0.1047
32207W        W48391   2.797  10.845  16.262 -0.1509  0.0414  0.0732
32208W        W48392   2.912  14.040   4.773 -0.3153 -0.0820  0.0450
32209W        W48393   6.975   4.807   0.414  0.3573  0.0777  0.0076
32210W        W48394  14.686   5.345   5.094 -0.2859  0.4409  0.1950
32211W        W48395   2.109   2.484   5.861 -0.3537 -0.4005  0.2089
32212W        W48396   1.004   8.409  13.790  0.0530 -0.3258 -0.2796
32213W        W48397  15.770  13.321   2.611  0.0069  0.2822 -0.2543
32214W        W48398   3.968  15.409   4.046 -0.1576 -0.0728 -0.2516
32215W        W48399  13.030   5.619  16.487 -0.0607 -0.0651  0.0605
32216W        W48400   0.813   5.665   2.929  0.0763  0.1140 -0.0519
32217W        W48401  17.098   3.167  12.910 -0.0448  0.2422 -0.0857
32218W        W48402  12.302  13.023  12.877 -0.1603  0.0247 -0.3503
32219W        W48403  17.087   7.346  13.573  0.0570  0.1074  0.0188
32220W        W48404   5.319  13.249  12.713  0.1647  0.1013  0.1704
32221W        W48405   7.297  13.299   5.354  0.2395  0.2501  0.0804
32222W        W48406   7.482   0.777   2.827  0.1989 -0.0067 -0.0859
32223W        W48407   0.888   1.208   0.285 -0.1622 -0.1845  0.0647
32224W        W48408   2.615  14.925  16.921  0.3014 -0.2103  0.0003
32225W        W48409  15.769   6.586  12.389 -0.0288  0.3025  0.2756
32226W        W48410  10.534   6.597  14.486  0.0318  0.0129 -0.5126
32227W        W48411   5.614   9.872  12.383 -0.0060  0.0754 -0.1759
32228W        W48412   9.420  17.270   1.338  0.0448  0.1203  0.1704
32229W        W48413  13.727  17.239   2.140 -0.2096  0.1579 -0.0922
32230W        W48414  13.214   5.879   3.900 -0.0371  0.1642 -0.1009
32231W        W48415  11.891   1.518  16.431  0.0470 -0.0021 -0.0436
32232W        W48416  15.811   8.402   2.876  0.1372 -0.0552  0.1660
32233W        W48417   3.145   7.007   4.916 -0.2408 -0.0392  0.2493
32234W        W48418   1.901  13.979   4.000  0.0147 -0.1998 -0.4374
32235W        W48419  17.422  16.017  15.918  0.0517 -0.1532 -0.0955
32236W        W48420  12.959  16.332  15.425 -0.1632  0.0895  0.1544
32237W        W48421   1.763  10.271  15.363 -0.3909  0.2650 -0.2800
32238W        W48422   1.968  10.512  14.105  0.1538 -0.1370 -0.0940
32239W        W48423  11.007   7.042   1.342  0.0797 -0.1834  0.1516
32240W        W48424  12.155  12.391   1.256  0.2681  0.1291  0.0934
32241W        W48425   0.553   5.112   3.901  0.2224  0.2376  0.2824
32242W        W48426   6.435  14.285  12.750  0.1065  0.2510  0.1346
32243W        W48427   2.191   9.382   0.204  0.3654 -0.2493 -0.0779
32244W        W48428  14.077   3.334   0.642 -0.0297  0.0565  0.1471
32245W        W48429  15.118   2.469   4.782  0.0279  0.0072 -0.0922
32246W        W48430  14.760   6.868  15.165 -0.0424 -0.1416  0.1123
32247W        W48431  17.059  16.205  11.819 -0.2201  0.2559 -0.2139
32248W        W48432   5.416   9.948  13.685  0.1049  0.4323 -0.0408
32249W        W48433  14.643   9.932  13.485 -0.0398  0.0959  0.0336
32250W        W48434  10.205  17.281  13.896  0.0959  0.0546 -0.0324
32251W        W48435  15.100   8.951   0.114  0.0387  0.1561  0.1690
32252W        W48436  10.279   3.538   2.915  0.1553 -0.3545 -0.1303
32253W        W48437   1.192   7.904   5.150  0.0075  0.2987  0.0524
32254W        W48438  15.063   5.206   6.118 -0.1107 -0.1370 -0.0915
32255W        W48439   8.999  12.982   5.505 -0.1286 -0.0247 -0.0626
32256W        W48440   3.783   3.193  14.937 -0.0342  0.1777  0.0992
32257W        W48441   6.999  15.529   4.695 -0.3876 -0.0362  0.1474
32258W        W48442   9.854   5.965   3.524 -0.1482  0.0940 -0.0069
32259W        W48443  10.388   3.037  16.847  0.2600  0.1651 -0.1382
32260W        W48444  12.760   1.669   0.883 -0.1267 -0.2122  0.0091
32261W        W48445  11.147  12.883   3.794  0.3388 -0.0586 -0.2815
32262W        W48446  12.252   3.782   3.612  0.1446  0.0863  0.0414
32263W        W48447  16.140   3.290   1.823 -0.0582 -0.2711 -0.1803
32264W        W48448   5.458  13.556   1.750 -0.1864  0.0464 -0.1108
32265W        W48449   3.199   4.119  14.057 -0.0121 -0.2805  0.1827
32266W        W48450   6.834  14.146  14.575 -0.2498  0.1613  0.1178
32267W        W48451  12.930   5.118  15.119  0.2809  0.0834 -0.0456
32268W        W48452   8.262   2.733   2.024 -0.0692 -0.2118  0.1193
32269W        W48453   4.641  16.364  12.068  0.2324 -0.1037  0.1683
32270W        W48454  15.000   1.834   5.637  0.2553 -0.0722 -0.0746
32271W        W48455   9.802   3.301   3.713  0.0163  0.1044 -0.1557
32272W        W48456  10.193   7.247  16.218  0.0838 -0.2129  0.2928
32273W        W48457   8.249   0.459   2.651  0.0516 -0.0925 -0.2127
32274W        W48458  10.317  12.849  11.970 -0.0500 -0.0827 -0.0062
32275W        W48459   2.299   6.281   1.535  0.1560 -0.2425 -0.1052
32276W        W48460   8.037  17.224   5.950  0.0879  0.0049 -0.0874
32277W        W48461  12.869   9.138  15.251  0.1040  0.1648  0.0162
32278W        W48462  10.416   4.503   1.263 -0.2245 -0.1885 -0.1234
32279W        W48463   9.868  14.673   5.126 -0.0082  0.1108 -0.1101
32280W        W48464  12.047  16.201   5.354 -0.2010 -0.2617  0.3748
32281W        W48465  15.199  14.323  13.420  0.4181 -0.1929 -0.0082
32282W        W48466   8.448  16.374   3.336  0.0457 -0.0144  0.0462
32283W        W48467  11.472  14.003  15.079  0.2939  0.1166 -0.0730
32284W        W48468  11.923   3.099   5.572 -0.1867  0.3058  0.0541
32285W        W48469   9.224  12.210   1.282 -0.1038  0.2278 -0.1666
32286W        W48470  16.881  13.219  16.233  0.0723  0.0553  0.0002
32287W        W48471  13.812   3.502   1.309  0.1861  0.0474 -0.1809
32288W        W48472  13.176  15.449   1.582 -0.0827  0.0099  0.3954
32289W        W48473   2.010  16.074  11.814  0.0562 -0.0247 -0.0016
32290W        W48474   1.287  13.046  14.621  0.0300 -0.2164 -0.1180
32291W        W48475   5.922  15.328  10.930 -0.1566  0.1456  0.0832
32292W        W48476   1.845   5.614  14.526 -0.0428  0.0259  0.0435
32293W        W48477   2.997  10.981  15.302 -0.0482 -0.3090 -0.2781
32294W        W48478   9.230  14.017  13.044  0.1030  0.0298  0.1052
32295W        W48479  11.435  12.364   1.791 -0.1379  0.0956 -0.0422
32296W        W48480  10.090   1.570   2.344 -0.0364 -0.0104  0.0613
32297W        W48481  16.631   5.491  13.354 -0.2607  0.2609  0.0333
32298W        W48482  11.895  12.712   5.169 -0.1213 -0.1552 -0.0112
32299W        W48483  11.691  12.101   2.252  0.1858  0.2173  0.1607
32300W        W48484   0.321   0.146   3.712 -0.1759  0.0951 -0.3432
32301W        W48485  16.566   9.858  16.298 -0.0152  0.0430 -0.1518
32302W        W48486  12.212   7.257   3.891 -0.1112 -0.0729  0.0272
32303W        W48487   3.817   9.632  15.709 -0.0855 -0.0192 -0.0859
32304W        W48488   9.400  11.997   1.834  0.0189 -0.1411  0.1552
32305W        W48489   9.397   6.005   6.198  0.0501 -0.1507  0.0317
32306W        W48490  13.721   4.285  16.269  0.0374 -0.0818  0.0972
32307W        W48491  17.542  15.647   1.634  0.3113 -0.0482 -0.0457
32308W        W48492   5.533   0.382  12.997 -0.3445 -0.0498  0.0104
32309W        W48493   7.145   4.650   4.388 -0.0552 -0.1473 -0.2018
32310W        W48494   1.975   8.916   5.500  0.0094  0.2463  0.2045
32311W        W48495   6.637   6.449   1.509  0.1393 -0.1941  0.0711
32312W        W48496   3.086   0.841  13.746  0.0545 -0.1124  0.1299
32313W        W48497   6.459  11.120  12.105  0.2328 -0.0128 -0.0672
32314W        W48498   4.298   4.538  13.407  0.0396 -0.1200 -0.5253
32315W        W48499  14.064  16.074  16.809  0.2196 -0.1607 -0.1710
32316W        W48500   4.264   1.946   4.435  0.3307  0.1545 -0.0637
32317W        W48501  16.746   4.454   4.296  0.0164  0.0006  0.1502
32318W        W48502  17.033   8.788  11.841  0.0905  0.1436 -0.0912
32319W        W48503   7.465  16.637   0.986  0.2104 -0.0420  0.1702
32320W        W48504   0.078   6.506   2.287  0.0068  0.0164  0.0386
32321W        W48505  14.054  14.988  16.720 -0.1620  0.0544 -0.1294
32322W        W48506  10.154   9.353   4.382  0.0850  0.1685 -0.2178
32323W        W48507   9.012   1.192   0.266 -0.0516 -0.0999 -0.0189
32324W        W48508   0.885   2.660  16.651 -0.1637  0.0612 -0.0214
32325W        W48509  10.973  13.750   1.820  0.0708 -0.2581 -0.0387
32326W        W48510  17.823  13.477   0.210  0.0432 -0.1710 -0.1588
32327W        W48511  10.643  16.908  11.671  0.0145  0.1564  0.1925
32328W        W48512  16.925  16.719  14.658  0.0217 -0.1372  0.3428
32329W        W48513   3.964  13.889   2.415 -0.0611 -0.2379  0.2011
32330W        W48514  10.369  15.480  12.532  0.0771 -0.0167  0.2974
32331W        W48515   5.360  17.868   1.002 -0.2875  0.1459  0.0317
32332W        W48516   2.495   2.700   0.527  0.1259  0.2156 -0.1589
32333W        W48517  11.296  12.747  15.212 -0.2965 -0.0081  0.0950
32334W        W48518  11.697  12.985  14.564  0.0597 -0.0417  0.1258
32335W        W48519  11.501   0.286  15.122  0.3182 -0.0813 -0.1579
32336W        W48520  11.153   7.653  13.819 -0.4286  0.2404  0.1821
32337W        W48521   5.852  12.357  16.921 -0.2244 -0.0324 -0.1021
32338W        W48522  13.077  16.793   1.754 -0.1330 -0.1279 -0.1432
32339W        W48523  11.060  15.882  15.921 -0.0689  0.0156 -0.2596
32340W        W48524   3.603   4.838  13.083  0.1188 -0.0945 -0.2719
32341W        W48525   9.006  14.120  14.582  0.2955  0.3141 -0.2934
32342W        W48526   8.032   2.619   5.383 -0.1598  0.1368 -0.0430
32343W        W48527   9.250   4.279   4.668 -0.0608 -0.2694  0.2812
32344W        W48528  13.590   2.884   6.288  0.1442  0.0839  0.0638
32345W        W48529   1.602   9.303   3.187 -0.0335 -0.1431  0.0198
32346W        W48530  11.483   0.628  16.706 -0.1607 -0.1476 -0.1186
32347W        W48531   4.236   6.547  13.951 -0.1716 -0.1421  0.0151
32348W        W48532   6.195  14.605  16.019 -0.0385  0.1978 -0.1176
32349W        W48533  13.930   7.382   0.036  0.1371  0.2017  0.1337
32350W        W48534  13.126  12.356  15.942 -0.1841 -0.4368 -0.1549
32351W        W48535   3.011   5.960   5.673 -0.0420  0.4010 -0.0402
32352W        W48536   4.711   5.712   5.957 -0.0098 -0.0490 -0.1733
32353W        W48537   5.915  15.134  14.661  0.0600 -0.1574 -0.1629
32354W        W48538  13.840  17.311  15.670 -0.3099 -0.1120 -0.0180
32355W        W48539  17.152   3.476   5.680  0.1127  0.3298 -0.1751
32356W        W48540  14.066   6.454   1.946  0.1889 -0.0050 -0.2810
32357W        W48541  16.830   4.929  12.588  0.1869  0.0022  0.0308
32358W        W48542  15.627   8.703  13.868 -0.1973  0.2126 -0.0410
32359W        W48543  10.944   6.739   0.156 -0.0611  0.2141 -0.1305
32360W        W48544   8.115  13.571  11.214  0.1033  0.1486 -0.0326
32361W        W48545   5.561  12.507  12.057  0.0455 -0.0138 -0.1292
32362W        W48546  16.660  12.800  14.948  0.0382 -0.0804 -0.1210
32363W        W48547   7.227  17.815  14.594  0.0614 -0.0328 -0.0247
32364W        W48548  10.189   4.556  14.602 -0.0470 -0.0330  0.0722
32365W        W48549  15.101   3.507   0.208  0.1990  0.0217 -0.0138
32366W        W48550  17.335  17.124   0.613  0.0898  0.3006  0.2338
32367W        W48551  12.272   2.285   0.211  0.0905  0.0455  0.4413
32368W        W48552   2.763  13.379   3.097 -0.2418 -0.0659  0.0201
32369W        W48553   3.019   1.289   1.760  0.3380  0.0956 -0.0108
32370W        W48554  17.500   1.187   0.363  0.0448  0.0851 -0.1325
32371W        W48555  11.318  16.676   0.108 -0.1060 -0.1899  0.0126
32372W        W48556  11.576  14.630   2.113  0.2486  0.1172  0.0783
32373W        W48557   9.895   1.487  13.235 -0.0840  0.0815 -0.1399
32374W        W48558  11.333   4.170  15.201 -0.1172  0.0888  0.1329
32375W        W48559   9.117  16.061  14.040  0.0144  0.1469 -0.1809
32376W        W48560  16.946  11.311  15.829  0.0621 -0.1948 -0.3120
32377ION     NA48561   7.539   9.009   5.110  0.1446 -0.0048  0.0962
32378ION     NA48562  11.300  17.022  11.014 -0.0743  0.2192 -0.1146
32379ION     NA48563  12.642  11.579  10.907  0.0820  0.0716 -0.2201
32380ION     NA48564   2.114  11.035   4.391 -0.0599 -0.3818 -0.0185
32381ION     NA48565  17.054  10.621  10.787  0.0474 -0.1144 -0.1483
32382ION     NA48566   8.351  11.059  10.711  0.0692  0.0396 -0.1512
32383ION     NA48567  12.433  12.965  10.897 -0.0970 -0.1855  0.3088
32384ION     NA48568   8.648   0.053   6.031  0.1623  0.2329  0.1118
32385ION     NA48569   3.895   4.279   6.269  0.0065 -0.2700 -0.2398
32386ION     NA48570  14.094  17.747  14.961 -0.0591  0.0028 -0.0580
32387ION     NA48571  12.515   1.522   1.343 -0.0721  0.0331 -0.0299
32388ION     NA48572   9.251   9.419  11.063 -0.0855  0.2541  0.1287
32389ION     NA48573   3.027  13.224  10.464  0.0940  0.1925  0.0341
32390ION     NA48574  16.788  12.342  11.195  0.3704 -0.0474  0.1008
32391ION     NA48575   6.923  14.142  10.492 -0.0394 -0.3725 -0.1918
32392ION     NA48576   8.609  13.323  10.365 -0.0460  0.0822  0.1824
32393ION     NA48577   0.936  15.088  10.544 -0.0709  0.0629  0.5272
32394ION     NA48578   4.854   4.409   4.420  0.2234  0.0809  0.0469
32395ION     NA48579   8.552   4.893   5.590  0.1155 -0.2899  0.0529
32396ION     NA48580   9.371  10.894  10.740  0.1245 -0.0267 -0.1763
32397ION     NA48581   1.730  16.949  10.593  0.0931  0.1514  0.0221
32398ION     NA48582  10.375  17.730   5.622  0.2435 -0.2154  0.0563
32399ION     NA48583   1.570   3.961  11.227 -0.1656  0.0046  0.0385
32400ION     NA48584   7.325  17.810  10.965  0.1536  0.2294 -0.0134
32401ION     NA48585  16.770   0.207   3.419  0.2831  0.0337  0.0031
32402ION     NA48586   8.175   5.665  14.540  0.1277 -0.0373  0.2598
32403ION     NA48587   6.773   0.989   6.247  0.2588 -0.1528 -0.1361
32404ION     NA48588  16.677   9.836  10.863 -0.0989  0.1079  0.2514
32405ION     NA48589   5.721   7.375  11.404 -0.2028 -0.0860  0.0029
32406ION     NA48590   2.517   8.090  11.083  0.2261 -0.0599  0.0663
32407ION     NA48591   4.067   8.951  10.999  0.0617 -0.1147 -0.0243
32408ION     NA48592  16.294  15.764   3.660 -0.2360 -0.1242 -0.2193
32409ION     NA48593   0.373  15.970  10.924  0.0368  0.0896  0.0260
32410ION     NA48594   6.995   8.049  16.814  0.1835 -0.1392  0.3688
32411ION     NA48595   7.786   8.666  11.070 -0.1210  0.0191  0.2383
32412ION     NA48596  10.510  12.136  10.683 -0.1954 -0.2595 -0.2352
32413ION     NA48597   1.583   7.990  10.938  0.2250 -0.3982 -0.1325
32414ION     NA48598  11.319   2.774  10.958 -0.3350  0.5512  0.2500
32415ION     NA48599   7.582   6.948  11.097  0.3500 -0.1336 -0.2189
32416ION     NA48600   3.597  10.046   6.007  0.1156  0.0990  0.0661
32417ION     NA48601   8.217   7.734  10.953  0.1579  0.1369 -0.0437
32418ION     NA48602  15.623  10.315  10.846  0.2536  0.1379 -0.0114
32419ION     NA48603  16.971   5.075  11.037  0.0342 -0.1078  0.1940
32420ION     NA48604  11.445   4.334  10.740 -0.0517 -0.2570 -0.0521
32421ION     NA48605  17.522   9.606  10.854 -0.1254  0.1900 -0.1213
32422ION     NA48606   7.528  17.360   5.882  0.0312  0.0882 -0.0456
32423ION     NA48607   6.536   8.510   2.087  0.0610 -0.1461  0.3955
32424ION     NA48608   9.242   7.927   6.496 -0.1439  0.1436 -0.0128
32425ION     NA48609  17.806  10.229  15.763  0.3722 -0.1803  0.1930
32426ION     NA48610   4.087   1.109  10.699 -0.0438  0.0772  0.3327
32427ION     NA48611   2.159  12.174   0.575 -0.0061 -0.0843  0.1747
32428ION     NA48612   8.872  14.913  15.260  0.1309 -0.3382 -0.0364
32429ION     NA48613   4.009  17.733  12.830  0.1586  0.0756 -0.1445
32430ION     NA48614   8.630  17.098  10.364  0.1850  0.1257  0.1802
32431ION     NA48615   5.160  14.244  10.207  0.3446 -0.2156 -0.1212
32432ION     NA48616  17.219  12.016   6.233 -0.1702  0.2564  0.1212
32433ION     NA48617   8.371  15.523  10.004  0.3592 -0.0463  0.0462
32434ION     NA48618   8.013   5.543   6.117 -0.1056  0.0336  0.2401
32435ION     NA48619  16.699   6.107  16.858  0.0230 -0.2927  0.1502
32436ION     NA48620  13.227   6.308  11.061 -0.1271 -0.0824  0.0184
32437ION     NA48621   0.296  14.815   6.087 -0.5108 -0.3633  0.1458
32438ION     NA48622  10.206  16.663  10.721 -0.1217 -0.3306  0.1430
32439ION     NA48623  10.815   5.249  16.840  0.0887  0.2788  0.0029
32440ION     NA48624  12.493  15.399  13.290  0.2454 -0.1143  0.2935
32441ION     NA48625  12.623   6.048   4.455 -0.0165  0.3743  0.0616
32442ION     NA48626   7.710   6.238  11.344 -0.0177 -0.2053 -0.1748
32443ION     NA48627   8.564   0.679  10.985 -0.3633  0.0428  0.2438
32444ION     NA48628  15.683   0.508  14.885 -0.0136  0.0611  0.2324
32445ION     NA48629  16.944   5.864   6.112 -0.0886 -0.1956  0.2145
32446ION     NA48630   6.155   7.640   6.616 -0.0939  0.2690  0.1995
32447ION     NA48631   4.702   4.849   6.455 -0.0721  0.2580 -0.0697
32448ION     NA48632   8.273  15.688   5.609 -0.1503 -0.1209 -0.0210
32449ION     NA48633   0.874   7.824  10.771 -0.0238 -0.0132 -0.2139
32450ION     NA48634  13.315   4.033  10.766 -0.1042  0.1015 -0.0608
32451ION     NA48635   2.575  13.561   2.426  0.0049  0.4904 -0.0671
32452ION     NA48636   1.598  14.709  10.466 -0.0558 -0.1799  0.0873
32453ION     NA48637   0.435  17.716  10.876  0.2558 -0.1026  0.0676
32454ION     NA48638   7.529  15.741  10.313 -0.1836 -0.0069  0.0963
32455ION     NA48639   1.645   1.831  11.003  0.1667  0.2125 -0.2649
32456ION     NA48640  16.699  10.351  13.873  0.0338  0.0331  0.0208
32457ION     NA48641   4.171   4.832   0.518 -0.1092  0.3388  0.2757
32458ION     NA48642  13.222  10.129  11.150  0.1000  0.0979  0.2846
32459ION     NA48643  14.214  11.369   6.357 -0.0004  0.2946  0.0612
32460ION     NA48644  14.394   2.462  16.561 -0.1258  0.0317 -0.1837
32461ION     NA48645  15.225  11.883  10.870 -0.1347 -0.2647  0.0475
32462ION     NA48646   8.882   8.051   3.442  0.1422  0.0263  0.1437
32463ION     NA48647   0.753   4.533   1.627 -0.0865  0.0816 -0.1302
32464ION     NA48648  11.786   1.071  16.672 -0.2457  0.2890  0.0561
32465ION     NA48649   2.793  10.401  10.994 -0.0748  0.1695  0.2113
32466ION     NA48650  16.006  16.705  10.653 -0.0119 -0.1707  0.2398
32467ION     NA48651  11.339   9.160  10.907 -0.1401  0.0278  0.3933
32468ION     NA48652  17.121   5.448   4.320 -0.2130  0.1854 -0.0020
32469ION     NA48653   2.433   3.724   2.164 -0.0930  0.2200  0.2062
32470ION     NA48654  16.098   8.649  14.125 -0.0985  0.2982 -0.0352
32471ION     NA48655   3.384  16.737   5.918  0.1640 -0.1146 -0.3678
32472ION     NA48656  12.680   1.287  11.045 -0.0190 -0.0085 -0.0402
32473ION     NA48657  12.715   3.450  10.800  0.0468 -0.0986 -0.0903
32474ION     NA48658   2.069   6.726  11.155 -0.0713  0.0378  0.1497
32475ION     NA48659   0.141  10.460  10.883  0.1158 -0.1301  0.2131
32476ION     NA48660   2.122   4.873   5.087  0.2347  0.0381  0.2918
32477ION     NA48661   7.480   1.659   6.051  0.0538  0.1851 -0.0156
32478ION     NA48662  12.904   2.424   5.779 -0.2374  0.0418  0.4547
32479ION     NA48663  13.206  12.533   5.871 -0.1878 -0.2930  0.1175
32480ION     NA48664  11.750  13.455  10.759 -0.2882 -0.0318  0.3803
32481ION     NA48665   9.968  13.921  11.697  0.1382 -0.1338 -0.0496
32482ION     NA48666   1.786   8.000   6.399  0.0117 -0.3355  0.0411
32483ION     NA48667   1.688   2.718  10.935 -0.0358 -0.0548 -0.4046
32484ION     NA48668  16.885   3.454  11.013  0.1546  0.0603  0.0492
32485ION     NA48669   8.801  10.425  10.765 -0.2149  0.0851 -0.0155
32486ION     NA48670  12.383   3.780   5.159 -0.1169  0.0439  0.0193
32487ION     NA48671   7.075  11.862  11.001 -0.0978  0.1292  0.2155
32488ION     NA48672   0.672   2.706   4.709  0.1149  0.0369  0.0443
32489ION     NA48673  10.935   3.402  15.721 -0.1710 -0.1115 -0.1954
32490ION     NA48674   5.218   5.733  11.240 -0.0353 -0.1127  0.2123
32491ION     NA48675   4.616  16.844   0.682 -0.0671 -0.2231  0.1263
32492ION     NA48676   5.211  12.177  10.720 -0.0703  0.1147 -0.3989
32493ION     NA48677  12.220   2.577   6.377 -0.0880 -0.1078 -0.1391
32494ION     NA48678  12.337   5.018  10.635 -0.1369  0.2318  0.1302
32495ION     NA48679  17.191   0.557  15.999 -0.1718 -0.1168 -0.0405
32496ION     NA48680  16.407  15.430  10.616  0.0069  0.1018  0.1287
32497ION     NA48681  10.113  11.989  14.032  0.2231  0.0241 -0.3150
32498ION     NA48682   3.744  13.452  10.119  0.0613  0.2401 -0.0143
32499ION     NA48683   7.330   3.315  11.069  0.0946 -0.0804 -0.1128
32500ION     NA48684  13.933   5.746  10.907  0.4109  0.1231 -0.0465
32501ION     NA48685  10.954   3.535  10.847 -0.3015 -0.0087  0.3625
32502ION     NA48686   5.581   8.361  11.067  0.2683 -0.3549  0.1182
32503ION     NA48687   1.438   0.646   1.402  0.0515  0.2253 -0.0458
32504ION     NA48688   6.086  13.103  10.308 -0.1188 -0.0942 -0.4181
32505ION     NA48689  10.380   4.297  10.802 -0.2633  0.1467 -0.0800
32506ION     NA48690   5.944   2.680  10.875  0.0295  0.2443 -0.0695
32507ION     NA48691   3.323  10.450   3.602  0.0796  0.3677 -0.0743
32508ION     NA48692  10.490   9.571  11.454 -0.0498  0.2278 -0.1525
32509ION     NA48693   7.509   2.359  10.965 -0.0504 -0.0152  0.1831
32510ION     NA48694  13.031  14.864   3.326  0.0058 -0.3732  0.0040
32511ION     NA48695   0.010  16.403  10.601  0.1033 -0.2483 -0.1024
32512ION     NA48696   8.857   4.965  16.820  0.0792  0.1872  0.0358
32513ION     NA48697  11.268   7.432   5.990  0.1221  0.0676 -0.0307
32514ION     NA48698  14.908  11.019  10.938 -0.1161 -0.0674 -0.2893
32515ION     NA48699  14.483  10.632   0.557  0.1660 -0.0981 -0.1267
32516ION     NA48700  10.643  13.881  10.384 -0.1807  0.0291 -0.0775
32517ION     NA48701   4.252   9.599  10.854  0.1677 -0.0608 -0.1995
32518ION     NA48702  16.659   2.205   6.246 -0.2526  0.2062  0.4082
32519ION     NA48703   2.710  15.473  11.669  0.1005 -0.2761  0.3569
32520ION     NA48704   8.989  17.660   4.611 -0.1493 -0.0486  0.0019
32521ION     NA48705   8.026   3.886  11.264  0.0611  0.2375  0.2997
32522ION     NA48706  12.222   5.324   4.764 -0.2758  0.0924  0.3253
32523ION     NA48707  14.657  16.019  14.879 -0.2050  0.0912 -0.0547
32524ION     NA48708   8.782   1.567   6.169 -0.1754  0.0965 -0.0354
32525ION     NA48709   3.393  10.879  10.948  0.3387  0.1946  0.0613
32526ION     NA48710   6.760  16.509  10.458 -0.1948 -0.1785 -0.1383
32527ION     NA48711  15.421   0.880  15.745  0.0538 -0.0037  0.0796
32528ION     NA48712  12.651   0.269  11.186  0.0098 -0.0657  0.1934
32529ION     NA48713  11.831   6.994  10.896  0.2696 -0.1289 -0.0552
32530ION     NA48714   0.829  15.941  10.648  0.2772 -0.0376  0.0470
32531ION     NA48715  16.816   4.230  11.042 -0.1440  0.0610  0.0987
32532ION     NA48716  14.497   1.667  10.928 -0.0787  0.0485 -0.1160
32533ION     NA48717  15.233  13.197   1.496 -0.1715 -0.1883  0.0835
32534ION     NA48718  15.995  11.075  12.653  0.3411  0.1621  0.0342
32535ION     NA48719  16.779   4.980   6.310  0.1306  0.0064 -0.4520
32536ION     NA48720  14.282   1.199   5.682  0.1831  0.3059  0.3083
32537ION     NA48721  11.441   5.846  16.668 -0.3770  0.2177  0.4816
32538ION     NA48722   2.720   7.075  11.142 -0.0691 -0.0760 -0.0512
32539ION     NA48723  14.335  11.673  10.879 -0.0750 -0.0615  0.0791
32540ION     NA48724  16.673   8.965   2.746  0.0344 -0.0432  0.1205
32541ION     NA48725  15.445   1.155  11.082 -0.1397 -0.0109  0.1284
32542ION     NA48726  13.518   3.242  11.873 -0.0239 -0.1297  0.1813
32543ION     NA48727  13.566   3.214  10.837  0.0685  0.1356 -0.1863
32544ION     NA48728   6.697   0.556   4.462 -0.0038 -0.0149 -0.1816
32545ION     NA48729  15.996  12.765  11.100  0.1676  0.0184 -0.0715
32546ION     NA48730   8.498  11.166   6.188 -0.1780  0.1425  0.2494
32547ION     NA48731   5.349  12.008   5.786  0.0283 -0.0733 -0.1883
32548ION     NA48732  16.073   7.861   6.223  0.0840  0.2089  0.0577
32549ION     NA48733  15.226   1.010   5.914 -0.1912 -0.3020  0.1293
32550ION     NA48734  13.009  16.865  10.718 -0.1004  0.1299  0.1682
32551ION     NA48735   2.401  17.113   4.349  0.1116 -0.2009  0.0027
32552ION     NA48736   1.252  12.364  10.681 -0.1463 -0.0366 -0.2224
32553ION     NA48737   5.369  16.244  10.201 -0.1047 -0.2166 -0.0091
32554ION     NA48738  13.753  15.763  10.763 -0.1367  0.1592 -0.1102
32555ION     NA48739  16.521  14.548  10.796 -0.0349  0.1173  0.2003
32556ION     NA48740   9.341  12.765  10.563 -0.2020  0.1370  0.3618
32557ION     NA48741   1.466   3.416   6.535 -0.1044 -0.0095 -0.1039
32558ION     NA48742   2.352   4.087  10.914  0.1883 -0.1129  0.1466
32559ION     NA48743  16.145   4.584  10.981 -0.2956 -0.3072 -0.1693
32560ION     NA48744  10.697   5.542  10.892 -0.2810  0.1104 -0.0433
32561ION     NA48745   5.344   9.391  13.950  0.2915 -0.0748  0.0696
32562ION     NA48746  17.391  11.960   3.515 -0.3948  0.1807  0.3206
32563ION     NA48747  10.361  15.874  10.293 -0.0016 -0.0375 -0.2238
32564ION     NA48748   3.113   1.167  10.593 -0.2469  0.2542 -0.2185
32565ION     NA48749  16.147   2.228  13.049  0.2178  0.0697 -0.0913
32566ION     NA48750  16.539   6.703   3.046  0.4261  0.1881  0.0305
32567ION     NA48751   8.933   2.348  13.297 -0.1053 -0.1916  0.1378
32568ION     NA48752   1.164   4.260   3.860  0.0297  0.0819  0.1509
32569ION     NA48753   7.840   7.031   2.612  0.0072  0.1238  0.1919
32570ION     NA48754   8.448  11.513   3.154  0.0932 -0.1932 -0.0381
32571ION     NA48755  11.843  10.542   6.113 -0.2274 -0.2281  0.2989
32572ION     NA48756   9.218   6.053  10.777  0.2414  0.1461  0.0653
32573ION     NA48757  17.023   1.149  10.748 -0.1526 -0.0705  0.1687
32574ION     NA48758   2.599   1.151   5.867  0.1637 -0.1340 -0.1453
32575ION     NA48759  12.972   5.492  10.811 -0.3829  0.0777  0.0962
32576ION     NA48760   5.347   4.015  11.201 -0.1866  0.0045 -0.0243
32577ION     NA48761   5.110  16.123  15.179  0.1610  0.2918  0.1630
32578ION     NA48762   6.523  14.826  10.296  0.1096  0.0920  0.0206
32579ION     NA48763   7.534   1.577  16.034  0.0523 -0.2175  0.1247
32580ION     NA48764  17.644   7.684  11.027 -0.0072  0.2784 -0.1008
32581ION     NA48765  15.070  12.457  10.780 -0.0852  0.1992 -0.3946
32582ION     NA48766  12.463   0.751   2.079 -0.1540  0.1711 -0.0761
32583ION     NA48767  15.453  16.579  10.626  0.3245 -0.4504  0.4254
32584ION     NA48768  16.348  15.849  11.526 -0.1395 -0.0112 -0.1258
32585ION     NA48769   5.999  13.353  13.159 -0.2781 -0.4105  0.1875
32586ION     NA48770  16.856  16.315  10.529  0.0366 -0.1513 -0.1013
32587ION     NA48771   6.771   4.084  10.987 -0.0672  0.2191 -0.1928
32588ION     NA48772   2.138  14.317   5.838 -0.0876 -0.2301  0.1200
32589ION     NA48773   9.938   2.701   5.921 -0.3950  0.0640 -0.1757
32590ION     NA48774  14.854   5.698  10.807 -0.1579  0.2414 -0.1016
32591ION     NA48775   4.411  15.578   4.135 -0.3078 -0.2732  0.0291
32592ION     NA48776   3.578   6.681  11.224 -0.0827  0.0757 -0.0136
32593ION     NA48777  16.477   2.173  14.392  0.2753  0.1747 -0.3012
32594ION     NA48778  15.473   8.583  10.777  0.3577 -0.0707  0.1150
32595ION     NA48779   5.925   8.961  12.704  0.1714 -0.1373 -0.2532
32596ION     NA48780  15.748  11.750  11.799  0.2858  0.2387 -0.0963
32597ION     NA48781   3.426   8.401  11.071  0.0871 -0.1765  0.1870
32598ION     NA48782   2.060   8.855  11.234 -0.0100  0.1220  0.3224
32599ION     NA48783   3.370  14.884  10.380  0.0219 -0.0881  0.0194
32600ION     NA48784  10.785   5.758   5.791 -0.1525 -0.1279 -0.0703
32601ION     NA48785   3.562   8.054   1.817 -0.4252 -0.2519  0.1909
32602ION     NA48786   6.819   5.066  10.998  0.1179 -0.0155 -0.0484
32603ION     NA48787  15.145   4.978  10.877 -0.1671 -0.2207  0.2025
32604ION     NA48788  16.999  16.386   4.538 -0.3069  0.1831 -0.2242
32605ION     NA48789   4.208  17.301  10.871 -0.1193 -0.3147 -0.4574
32606ION     NA48790  14.549   8.668  10.891  0.2010  0.1165 -0.0689
32607ION     NA48791  15.142  15.668   6.016  0.1649  0.2301 -0.0216
32608ION     NA48792  12.068   5.810   2.250 -0.0096  0.1043 -0.0195
32609ION     NA48793  13.657   1.989  10.916  0.2883  0.3056 -0.1190
32610ION     NA48794  16.292   2.750  10.961 -0.2557  0.0170  0.0019
32611ION     NA48795   0.511  14.241  10.590  0.0056  0.0847 -0.1748
32612ION     NA48796  16.172  13.764  11.200 -0.1857  0.0039  0.0991
32613ION     NA48797  13.025  15.326  10.874  0.2183  0.3571  0.2488
32614ION     NA48798  17.496  16.853   5.869 -0.3149  0.3169  0.2417
32615ION     NA48799  11.513  12.483  10.983  0.1859  0.0118 -0.0788
32616ION     NA48800  17.299   8.439  10.992  0.0082  0.1626 -0.2495
32617ION     NA48801  12.444  12.702   2.520  0.1232 -0.2016 -0.3027
32618ION     NA48802  10.263   7.696   0.923  0.0874  0.1066  0.0272
32619ION     NA48803  15.818   1.961  10.867  0.0247 -0.3904  0.2014
32620ION     NA48804   9.780   2.741  11.059  0.1361  0.2277 -0.1119
32621ION     NA48805  10.812  10.830  10.932  0.2762  0.3987 -0.1422
32622ION     NA48806   3.498   5.534  11.134  0.0667 -0.2107 -0.2127
32623ION     NA48807   3.054  14.586   5.080 -0.0703 -0.0898  0.2770
32624ION     NA48808   3.808  12.811  10.717  0.0134 -0.1631 -0.2028
32625ION     NA48809  15.438  15.696  10.532  0.4017  0.3013 -0.0661
32626ION     NA48810   4.652   3.361  11.043  0.2325  0.1165  0.2342
32627ION     NA48811   0.886  12.443  13.648  0.1628  0.3123 -0.0607
32628ION     NA48812  13.669   9.336  11.030 -0.0215  0.0738 -0.1326
32629ION     NA48813  12.360   4.746   2.986  0.0203 -0.0163 -0.2639
32630ION     NA48814   8.541  14.402   4.647  0.1752  0.1346  0.1223
32631ION     NA48815  10.520   5.731   1.692  0.0757 -0.0811  0.1243
32632ION     NA48816  13.986  16.446   2.130 -0.0920  0.0259 -0.0402
32633ION     NA48817   5.543   0.798  14.635  0.0628  0.0084 -0.1664
32634ION     NA48818   3.355   9.757  10.946 -0.1899  0.0416 -0.2798
32635ION     NA48819   2.569  11.220  10.895  0.0030  0.1217  0.0704
32636ION     NA48820  12.334   4.125  10.904  0.3480 -0.1585 -0.1493
32637ION     NA48821  10.190   1.547   6.230  0.3064  0.0178  0.2803
32638ION     NA48822  14.823  11.893   5.738  0.2151  0.1279 -0.2060
32639ION     NA48823   7.725  16.222  10.829  0.1188 -0.3421  0.2012
32640ION     NA48824  10.074   6.537  10.897  0.3539 -0.0501 -0.1353
32641ION     NA48825  17.640   4.645  11.166  0.2308  0.2001 -0.2323
32642ION     NA48826   0.286   8.489  11.177  0.4081  0.2512  0.2487
32643ION     NA48827   2.629   0.881  16.924  0.0776 -0.1855 -0.3460
32644ION     NA48828   8.750   4.784  10.925 -0.0288  0.0258  0.1430
32645ION     NA48829   3.331  17.232  10.625  0.0278  0.2054 -0.0939
32646ION     NA48830   2.788   6.221  11.037 -0.1213  0.0257  0.1729
32647ION     NA48831   1.457  11.326   6.094  0.2327  0.2764 -0.4220
32648ION     NA48832   9.767  10.074  10.922 -0.3559  0.1790  0.3150
32649ION     NA48833  12.708  17.791   1.916  0.2533  0.1911 -0.1243
32650ION     NA48834   3.023   2.748   0.213  0.1365 -0.1802  0.0164
32651ION     NA48835   8.451   9.656  10.799  0.0289 -0.1697  0.2714
32652ION     NA48836   0.922   2.398  11.090 -0.2432 -0.1242 -0.1279
32653ION     NA48837  12.533   9.093  12.497 -0.0517 -0.1632  0.2914
32654ION     NA48838   0.296  13.751  16.069  0.0226 -0.1605 -0.2049
32655ION     NA48839   6.640  17.524  10.643  0.0033 -0.0890  0.2345
32656ION     NA48840   6.913   4.898   1.761  0.1093  0.1319  0.2897
32657ION     NA48841   2.077   9.535   4.044 -0.1170 -0.2204 -0.0198
32658ION     NA48842  14.590  17.768  10.888 -0.0139  0.2641  0.0125
32659ION     NA48843   1.017  12.383   5.934 -0.0178  0.2131  0.2371
32660ION     NA48844   3.587   7.424  11.054  0.1590 -0.0165  0.0572
32661ION     NA48845  13.432  14.194  16.263  0.2184 -0.0020  0.1468
32662ION     NA48846  14.204  13.069   6.240 -0.0553  0.0221  0.1400
32663ION     NA48847  10.170   8.210  10.735 -0.1447 -0.3436  0.0599
32664ION     NA48848  13.264  12.716  10.874  0.2059  0.4416  0.1059
32665ION     NA48849  11.680   5.626  10.682 -0.0678  0.1825  0.0576
32666ION     NA48850   3.230  10.641   0.224  0.0535 -0.0706  0.0636
32667ION     NA48851   5.842  13.451   2.947  0.1276  0.1946  0.2659
32668ION     NA48852  13.267  13.373  11.821 -0.1786  0.0741 -0.1460
32669ION     NA48853   4.238   4.785   3.564 -0.2791  0.1605  0.1286
32670ION     NA48854   8.332  14.451   5.377  0.4384  0.2268 -0.0806
32671ION     NA48855   1.227  11.742  11.028 -0.2618 -0.0980  0.0473
32672ION     NA48856   5.204   9.509   1.394 -0.2506 -0.0525  0.2708
32673ION     NA48857  12.511   7.989  10.834  0.0469  0.2483  0.1821
32674ION     NA48858   2.610   1.734  10.742  0.2799  0.0585  0.0703
32675ION     NA48859   0.621   3.399   6.451  0.1103 -0.1548  0.0869
32676ION     NA48860   5.461  14.629  10.222  0.0046 -0.0202 -0.0642
32677ION     NA48861  10.584   6.538  10.847  0.1919 -0.0984  0.1677
32678ION     NA48862  13.465   7.913  10.951  0.0475 -0.1396  0.0175
32679ION     NA48863   6.250  15.760  10.416  0.1080  0.1686  0.1261
32680ION     NA48864  11.320   9.635  11.001  0.2740  0.0852 -0.2106
32681ION     NA48865   2.377   9.702  11.038 -0.0204  0.1747 -0.3365
32682ION     NA48866   9.369   3.463  10.886  0.0091  0.2662  0.0430
32683ION     NA48867   8.299  17.547  10.998 -0.0381 -0.0471  0.1046
32684ION     NA48868  13.661  11.545   0.779 -0.2595  0.0627 -0.0943
32685ION     NA48869  17.316  17.756  10.657  0.1140 -0.1282 -0.1043
32686ION     NA48870   8.102  13.809  10.372  0.3351 -0.3856 -0.0102
32687ION     NA48871   1.717  14.683  16.734 -0.2023 -0.1913  0.0125
32688ION     NA48872   3.704   1.898   6.044 -0.1963  0.2547  0.1322
32689ION     NA48873   7.091  15.152  10.247 -0.1529 -0.1296  0.1390
32690ION     NA48874   4.903   8.770  10.998 -0.3635  0.0246 -0.0285
32691ION     NA48875   3.564  16.273   4.260 -0.0674 -0.1136 -0.1294
32692ION     NA48876   0.611   7.360   6.314 -0.1078  0.3654 -0.2491
32693ION     NA48877   4.300   0.664   3.383  0.0217  0.1235 -0.1994
32694ION     NA48878   8.480  11.970  10.568  0.0829 -0.0445 -0.0787
32695ION     NA48879   0.700   3.873  11.143 -0.0772  0.0771 -0.3209
32696ION     NA48880   3.665  13.972  10.313 -0.1379 -0.0378 -0.0625
32697ION     NA48881  14.753  16.074  10.758 -0.0931 -0.0616 -0.2057
32698ION     NA48882   2.176  13.137  10.812  0.0831 -0.0771 -0.0565
32699ION     NA48883   6.992   8.244  12.060  0.0300  0.2084 -0.1222
32700ION     NA48884   0.533   7.068  11.046  0.1840  0.0383 -0.4442
32701ION     NA48885   0.591   0.701  10.647 -0.2028  0.0522  0.1304
32702ION     NA48886   2.560   7.415  13.421  0.1225  0.0844 -0.3388
32703ION     NA48887   6.248   8.864   6.452  0.3697 -0.0920  0.3562
32704ION     NA48888   4.264  16.619  11.426 -0.3238  0.0322 -0.0001
32705ION     NA48889  14.440  12.464  10.745  0.0360  0.1551  0.1842
32706ION     NA48890  11.526  13.548  13.893  0.1136  0.0190 -0.1044
32707ION     NA48891   7.908   1.815   6.318  0.2002  0.0869  0.0427
32708ION     NA48892  14.459  13.879   0.101  0.1844 -0.2360  0.2890
32709ION     NA48893  10.428   6.058   6.070 -0.1889  0.0928  0.0808
32710ION     NA48894  16.628   0.350  10.566 -0.0436  0.0318 -0.0075
32711ION     NA48895  14.479   6.497  10.657 -0.1641  0.0461 -0.1523
32712ION     NA48896  15.301   4.019  10.958  0.3216  0.1887 -0.2932
32713ION     NA48897  15.285   2.270  10.888 -0.0006  0.0554 -0.0154
32714ION     NA48898   5.931  15.510  10.133 -0.3807 -0.0556 -0.2654
32715ION     NA48899   5.363   7.534  15.397  0.3909  0.0199 -0.0527
32716ION     NA48900   3.248   7.163   6.315  0.2012  0.2676  0.3808
32717ION     NA48901   7.393   7.753  11.331  0.0409 -0.0316  0.2077
32718ION     NA48902  11.322  11.818   0.117  0.1549 -0.1777 -0.1004
32719ION     NA48903   3.005   3.950   6.244 -0.1898  0.4259 -0.2105
32720ION     NA48904  16.611   7.832  10.878  0.0246  0.1145 -0.0850
32721ION     NA48905   2.368  14.907  10.406  0.0775  0.1111  0.0888
32722ION     NA48906   0.787  13.052   6.048  0.2300  0.0208 -0.0242
32723ION     NA48907  16.251  14.226   6.048  0.1867 -0.1173 -0.2976
32724ION     NA48908   9.325   8.193   2.607  0.0779  0.1013 -0.1092
32725ION     NA48909   4.261   1.165   6.126 -0.0676 -0.2788  0.0568
32726ION     NA48910  11.632   2.360  11.011  0.0478  0.0988 -0.0734
32727ION     NA48911   1.174  17.653   1.008 -0.1682  0.0795  0.0365
32728ION     NA48912  15.491  13.482  10.804 -0.0212 -0.0437  0.0823
32729ION     NA48913  16.290   1.749  10.887 -0.0241  0.0944  0.2100
32730ION     NA48914   5.375  10.874  10.877  0.0417 -0.1161  0.0169
32731ION     NA48915   1.042   8.326   6.173  0.2154 -0.0412  0.1313
32732ION     NA48916  13.876  12.568   0.613  0.0623 -0.0329  0.2075
32733ION     NA48917  15.683   7.710  10.848  0.3419  0.0798  0.2242
32734ION     NA48918  14.856   3.132  10.893 -0.1998  0.0269  0.1166
32735ION     NA48919  17.495  15.162  14.551  0.1114 -0.5945 -0.1407
32736ION     NA48920   1.074  10.271  10.776 -0.0784 -0.0006  0.3738
32737ION     NA48921   5.314  15.757  14.193  0.2291  0.1691 -0.1781
32738ION     NA48922   2.645  15.737   1.014  0.2816 -0.0389 -0.2145
32739ION     NA48923  16.969   5.956  11.111  0.2157  0.0185 -0.2744
32740ION     NA48924  17.671   0.448  10.624  0.2004 -0.0741  0.2230
32741ION     NA48925   1.476  13.300  15.641  0.1018 -0.3376 -0.1740
32742ION     NA48926   4.201  11.842  10.724  0.1658 -0.0913  0.1097
32743ION     NA48927   2.345   0.816  10.774  0.1940  0.2212  0.0077
32744ION     NA48928   7.775   3.091   6.262  0.2064  0.0632 -0.0696
32745ION     NA48929   2.479  10.392  13.202 -0.0992 -0.4661 -0.4955
32746ION     NA48930   0.792   1.615  10.802 -0.0217 -0.1598  0.1411
32747ION     NA48931  13.587   9.771   6.367  0.0582 -0.0258 -0.0037
32748ION     NA48932  10.428  16.182   0.589  0.0498  0.0777  0.0307
32749ION     NA48933   5.978   0.321  10.670 -0.0791  0.0088  0.1673
32750ION     NA48934  10.265  15.399  10.146 -0.0310 -0.4191 -0.0491
32751ION     NA48935   6.636   2.074  11.039  0.1831  0.1468 -0.1491
32752ION     NA48936  16.175   1.091  10.741 -0.4266  0.2833 -0.0807
32753ION     NA48937  15.697  15.735  14.235  0.0197  0.0614  0.1249
32754ION     NA48938  11.075   7.710  10.836 -0.0989 -0.0433  0.1026
32755ION     NA48939   5.166   5.344  15.629  0.0023  0.0251 -0.0160
32756ION     NA48940  14.553  16.186   4.467 -0.0997  0.2034 -0.2976
32757ION     NA48941  14.776  15.174  10.730 -0.1827  0.1879 -0.0950
32758ION     NA48942   4.481   2.160   5.997 -0.2959  0.0428  0.0977
32759ION     NA48943   6.760   0.880  11.090  0.2081  0.1888  0.1016
32760ION     NA48944   3.204   6.586   4.150 -0.2773  0.1012 -0.3691
32761ION     NA48945  17.468   7.779   3.624  0.0705  0.2629 -0.2867
32762ION     NA48946  17.440  11.111  10.703 -0.0095 -0.0109  0.0092
32763ION     NA48947   4.544  10.072   4.449  0.0076  0.0905  0.2486
32764ION     NA48948   8.257  16.477  13.873 -0.2472  0.2118 -0.1270
32765ION     NA48949   2.924   8.941  11.046 -0.0465 -0.1139  0.2188
32766ION     NA48950   2.686   8.975  12.381  0.2075 -0.3311 -0.3220
32767ION     NA48951   2.201  12.069  10.759  0.0614  0.1357 -0.2590
32768ION     NA48952   2.884  15.602  10.464 -0.0203 -0.1080 -0.2633
32769ION     NA48953   2.109   6.274   6.470 -0.0002  0.0108 -0.4188
32770ION     NA48954  17.556   2.705   4.190  0.0188 -0.0803  0.1028
32771ION     NA48955  11.388   5.123  10.611  0.1674  0.1138 -0.0621
32772ION     NA48956   2.884  17.458   5.831  0.0191  0.1849  0.0204
32773ION     NA48957   1.673   3.994  14.092 -0.1064 -0.1004 -0.1344
32774ION     NA48958  11.878  11.294  10.823  0.0814 -0.1064 -0.0710
32775ION     NA48959   6.103   6.520  11.724 -0.1930  0.2094  0.0394
32776ION     NA48960  13.927  14.001  11.004 -0.0330  0.0925 -0.1737
32777ION     NA48961   8.719   8.151   6.240  0.0076 -0.0548 -0.1751
32778ION     NA48962  11.833  10.594   2.668  0.2428  0.1655 -0.3966
32779ION     NA48963   3.264   3.714  10.798  0.0869  0.2240  0.0083
32780ION     NA48964  15.437   9.437  10.739 -0.3074  0.1420  0.1444
32781ION     NA48965  10.123   3.496   5.679  0.0243 -0.1941 -0.1704
32782ION     NA48966  15.868  11.486   2.549  0.1067  0.1896  0.0259
32783ION     NA48967   0.415   7.584   3.431 -0.1057  0.0200 -0.4383
32784ION     NA48968  10.979   0.084  10.964  0.2686  0.0547  0.1197
32785ION     NA48969   5.459   2.239   5.921  0.0986  0.1146 -0.0615
32786ION     NA48970   0.077  17.361  10.598  0.0606  0.2819 -0.0980
32787ION     NA48971   2.552   2.846  14.703  0.1732  0.0520 -0.1050
32788ION     NA48972  11.762   1.516  10.927 -0.2784  0.0855 -0.0823
32789ION     NA48973   1.057  11.316  10.889 -0.2263  0.1051 -0.0130
32790ION     NA48974   3.961   5.254   6.151  0.0876 -0.0946  0.0251
32791ION     NA48975  13.449  11.029  16.065  0.0389  0.0376  0.0073
32792ION     NA48976  15.046   2.714   4.361  0.1818  0.0709 -0.2418
32793ION     NA48977   0.639   9.339  10.931  0.2551  0.2012 -0.0842
32794ION     NA48978  10.053  17.636  10.711  0.1846 -0.2205 -0.0812
32795ION     NA48979  14.641   4.375  14.623 -0.0695 -0.0952  0.0402
32796ION     NA48980  16.445  10.780  10.975 -0.0005  0.1624  0.1271
32797ION     NA48981  15.819  15.816   5.911 -0.3338 -0.0565 -0.0823
32798ION     NA48982  16.320  11.014   5.722  0.0810 -0.0759 -0.3313
32799ION     NA48983   2.472  17.267  10.634  0.0824 -0.2043 -0.0730
32800ION     NA48984  10.908  13.191  10.807  0.0913  0.1531  0.1156
32801ION     NA48985   9.194  13.254   5.891 -0.0896  0.2310  0.1815
32802ION     NA48986   4.588   0.411  10.508  0.0736  0.2376 -0.2543
32803ION     NA48987   5.184   1.964  16.030 -0.0688 -0.1217 -0.1993
32804ION     NA48988  12.097  12.256  10.958 -0.1436  0.0477  0.3369
32805ION     NA48989   2.234  17.182   2.360  0.1370 -0.0275  0.2165
32806ION     NA48990   7.034   9.924  10.902  0.3244  0.0128  0.1345
32807ION     NA48991   6.978  11.241   5.470 -0.0550 -0.3756  0.0676
32808ION     NA48992  10.359   0.255  13.713 -0.1530 -0.0662  0.0340
32809ION     NA48993  12.487  17.658   3.190  0.0461  0.0742 -0.1348
32810ION     NA48994   0.965   6.558  11.821 -0.0479 -0.0975 -0.0380
32811ION     NA48995   6.083   3.523  10.882 -0.1641 -0.0334  0.1644
32812ION     NA48996   8.675   7.954  10.883 -0.1830  0.1372 -0.1018
32813ION     NA48997   6.818  11.439  10.490  0.6017 -0.4992  0.1250
32814ION     NA48998   4.884  16.799  10.394  0.0744  0.0331 -0.0653
32815ION     NA48999   9.514  17.518  15.545 -0.1166  0.0022 -0.1473
32816ION     NA49000   1.581   6.524   4.214 -0.0889 -0.1896 -0.0964
32817ION     NA49001  10.008  17.348   0.688  0.2684  0.0927  0.2312
32818ION     NA49002   5.717  12.941  10.575 -0.0058 -0.2980 -0.0887
32819ION     NA49003  17.619   8.524  13.172 -0.2549 -0.3875 -0.0279
32820ION     NA49004  10.358  16.794  11.192 -0.1635 -0.3089  0.0275
32821ION     NA49005   8.038  14.686  10.324 -0.0651  0.1247 -0.1739
32822ION     NA49006  16.031   3.606  11.293 -0.0923 -0.0159  0.2807
32823ION     NA49007  11.723  17.689   5.824 -0.1712 -0.1232 -0.1332
32824ION     NA49008  15.282   5.986  10.866 -0.0568 -0.2840  0.1168
32825ION     NA49009  10.199   0.259   5.925  0.2093  0.3837 -0.2756
32826ION     NA49010  12.276  13.916  10.966 -0.0985  0.0959  0.2665
32827ION     NA49011  17.652  11.102  12.608  0.0786 -0.0556  0.2142
32828ION     NA49012   0.537   6.883   2.356 -0.1387  0.2979 -0.3597
32829ION     NA49013  13.257   7.628   6.127 -0.0552 -0.1604  0.4445
32830ION     NA49014   6.659  13.663  14.434 -0.0437 -0.1590  0.1401
32831ION     NA49015   3.546  10.945   6.155  0.0154 -0.1002 -0.3820
32832ION     NA49016  17.026   7.414  10.983  0.0590  0.1103  0.1453
32833ION     NA49017  14.689  16.919  10.973  0.1589  0.2095  0.2048
32834ION     NA49018  17.169   4.455  11.981  0.0972 -0.0652  0.1428
32835ION     NA49019   8.913   5.608  10.733 -0.0929  0.4017  0.3427
32836ION     NA49020   6.016  13.871  10.228  0.0409 -0.2091 -0.0005
32837ION     NA49021  11.722  10.386  10.881 -0.3478  0.0308  0.1218
32838ION     NA49022   0.340  10.070  11.274  0.0031  0.0314  0.1977
32839ION     NA49023   1.951  17.868  10.837 -0.2277 -0.0784 -0.0277
32840ION     NA49024   8.591   1.110   6.140 -0.0507 -0.2261 -0.2464
32841ION     NA49025   4.396   6.961  11.188 -0.0066 -0.0930 -0.1198
32842ION     NA49026  12.766   7.210  10.759  0.2372  0.2917 -0.5034
32843ION     NA49027  12.536  10.786  10.985  0.1735  0.1515 -0.3288
32844ION     NA49028   5.886  11.622  10.747  0.1183 -0.1362 -0.0947
32845ION     NA49029  11.822   0.545   4.218 -0.0942 -0.2092  0.0195
32846ION     NA49030   2.830   8.587  15.947  0.1763  0.1000  0.0780
32847ION     NA49031   5.605   3.962   0.234  0.1379  0.2906  0.1226
32848ION     NA49032   9.481  17.026  10.684  0.0010  0.2493 -0.0383
32849ION     NA49033   0.548   6.285  10.946  0.1109  0.3041 -0.0411
32850ION     NA49034  17.672   3.856  11.048 -0.0313  0.1939  0.0824
32851ION     NA49035   4.512  11.265  11.214 -0.0166 -0.2511  0.2875
32852ION     NA49036   7.121   3.833   2.573  0.1295  0.1658  0.2686
32853ION     NA49037  15.273   0.467  10.801  0.1473 -0.1524 -0.2190
32854ION     NA49038  14.138  15.736   3.443 -0.2357  0.2236 -0.1286
32855ION     NA49039   9.011   2.490  11.133  0.0442  0.0067 -0.1058
32856ION     NA49040  17.181  10.464   5.643  0.1081  0.1353  0.2436
32857ION     NA49041  10.929   1.805  11.086 -0.3255 -0.1637 -0.2373
32858ION     NA49042   9.241  12.242   6.161 -0.1168 -0.2847  0.1284
32859ION     NA49043  13.692  14.677   5.268 -0.0924  0.0739  0.2666
32860ION     NA49044  10.002   1.633  10.866  0.1552  0.0676 -0.3513
32861ION     NA49045   0.112   2.320  11.049  0.0146 -0.0205 -0.1496
32862ION     NA49046   4.123   7.187   4.925  0.0872 -0.1550 -0.2972
32863ION     NA49047  14.998  10.976   3.555 -0.1162  0.1256 -0.3815
32864ION     NA49048  12.571  13.114   6.186  0.0625 -0.1879 -0.4655
32865ION     NA49049  17.498  11.990  11.002 -0.1784 -0.3079 -0.0059
32866ION     NA49050  10.583   9.056  10.805 -0.2335  0.0216  0.1123
32867ION     NA49051  10.586  16.776  16.207 -0.1314  0.0756 -0.0549
32868ION     NA49052   7.774  11.763  10.479 -0.1384 -0.0928 -0.1396
32869ION     NA49053   7.125  13.740   6.122 -0.0737 -0.0688 -0.1815
32870ION     NA49054  13.857  12.604  14.189  0.3395  0.0510 -0.0170
32871ION     NA49055   8.109   0.969   6.148 -0.0915 -0.1941 -0.2725
32872ION     NA49056  10.102   1.018  13.022 -0.0502 -0.1164  0.0241
32873ION     NA49057  13.364   4.312  15.712 -0.2855  0.4169  0.0039
32874ION     NA49058  14.296  15.287   6.194  0.2019 -0.0427 -0.0035
32875ION     NA49059   4.172   2.477  10.972  0.0091  0.0697 -0.1817
32876ION     NA49060   9.386  15.550  10.052  0.2021 -0.1519 -0.3842
32877ION     NA49061  11.985   8.593  10.867 -0.0208 -0.0309 -0.2377
32878ION     NA49062   0.812  16.939  10.693 -0.5153 -0.0019 -0.2433
32879ION     NA49063  15.944   9.101   4.898 -0.2649  0.1503  0.0816
32880ION     NA49064   9.501   0.958  14.408  0.4000  0.2283  0.3242
32881ION     NA49065   4.254  14.989   0.048  0.2476  0.3133  0.1021
32882ION     NA49066   2.844   3.942  15.600  0.1452  0.3122 -0.1877
32883ION     NA49067   7.233  16.769  14.466  0.0751 -0.0862 -0.0968
32884ION     NA49068  11.015  16.209  10.676  0.3451  0.0187 -0.3873
32885ION     NA49069   6.525  15.495   3.489 -0.0490  0.0199 -0.2458
32886ION     NA49070   6.564   7.213  11.342  0.1608 -0.0265  0.0079
32887ION     NA49071   1.712   5.464   6.503 -0.1385 -0.1720 -0.0671
32888ION     NA49072   2.131   0.344  14.725 -0.2201  0.2671 -0.3450
32889ION     NA49073   1.766   4.730  12.839  0.0532 -0.1160 -0.4287
32890ION     NA49074  12.842   1.737  10.900  0.0966 -0.1116 -0.3339
32891ION     NA49075  13.643   1.135  10.815  0.2059 -0.5105  0.0344
32892ION     NA49076   8.017   1.520  13.366 -0.0599 -0.5598 -0.0410
32893ION     NA49077   3.396  12.992   5.907 -0.0835  0.0642 -0.3312
32894ION     NA49078   5.418  13.492   5.190  0.2289 -0.1403 -0.0804
32895ION     NA49079  14.103   4.129   5.545 -0.5340  0.1839 -0.1652
32896ION     NA49080   0.127  13.492   4.971  0.1418  0.1979  0.0569
32897ION     NA49081   7.912  11.742   5.949 -0.1940 -0.2518 -0.2382
32898ION     NA49082   8.114   4.717  10.962 -0.1468 -0.0313  0.1308
32899ION     NA49083  17.205  15.023  10.481 -0.1904 -0.0667 -0.2231
32900ION     NA49084  11.829  16.181  10.684 -0.3157  0.0160  0.1037
32901ION     NA49085   1.378   5.168   3.486  0.0202 -0.0449 -0.0363
32902ION     NA49086  16.334   5.799  10.837 -0.1411  0.0410 -0.0519
32903ION     NA49087   1.050  14.065  10.671 -0.2336  0.0366  0.0607
32904ION     NA49088  11.817   3.404  11.003  0.0769  0.0357 -0.2712
32905ION     NA49089   2.842   4.858  11.083  0.0160 -0.0921 -0.0148
32906ION     NA49090   4.465   4.363  11.055 -0.1090  0.0856  0.0944
32907ION     NA49091  12.339  14.782  10.827 -0.2252  0.0347 -0.2078
32908ION     NA49092   4.849   7.579  12.848  0.0004  0.0045  0.0445
32909ION     NA49093   0.573   4.863  11.267  0.1093 -0.0995  0.0764
32910ION     NA49094  17.153   2.147  10.830  0.0845  0.4407 -0.2458
32911ION     NA49095   1.486   6.150  11.065 -0.1190 -0.3066  0.0483
32912ION     NA49096   6.606   0.458  10.914  0.0288 -0.1313 -0.2262
32913ION     NA49097   1.820  16.487  10.685  0.2173 -0.1284 -0.1476
32914ION     NA49098   5.288  17.684  10.433 -0.0872  0.2165  0.1415
32915ION     NA49099   0.363  11.423  11.109  0.2247 -0.1536 -0.3017
32916ION     NA49100  16.714   4.484   3.393  0.0710 -0.0012 -0.1353
32917ION     NA49101   7.857  12.737  10.454  0.3166 -0.1253 -0.2866
32918ION     NA49102   2.165   3.542  10.743  0.2425 -0.0758 -0.4325
32919ION     NA49103  15.448  17.483  10.727 -0.1342 -0.0750 -0.0180
32920ION     NA49104   9.640   0.715  10.889  0.1138 -0.0399 -0.0717
32921ION     NA49105  17.777   5.440  11.195  0.1419 -0.0960  0.1993
32922ION     NA49106   1.175   8.727  10.978 -0.1348 -0.1261  0.1007
32923ION     NA49107   0.338   1.802  13.496 -0.0184 -0.0778  0.1058
32924ION     NA49108   5.434  10.486   5.971  0.1174  0.0475 -0.0231
32925ION     NA49109   7.593   5.548  11.105  0.2194  0.2530  0.0317
32926ION     NA49110  16.781   9.823  11.395 -0.0172  0.1129  0.0059
32927ION     NA49111   6.047   4.477  11.044 -0.0673 -0.1402 -0.4124
32928ION     NA49112   8.064   1.532  11.039  0.2601  0.1642 -0.0724
32929ION     NA49113  13.831  14.296   3.585  0.1407 -0.0069 -0.1261
32930ION     NA49114   7.586   0.728  10.789 -0.0764  0.3224 -0.4459
32931ION     NA49115   3.525  14.533   2.728 -0.3589  0.1276 -0.0260
32932ION     NA49116   1.459   1.767   5.942  0.0369 -0.0527 -0.0307
32933ION     NA49117   5.967   1.430   6.232  0.1050 -0.3479  0.1212
32934ION     NA49118  15.165  14.991   6.047  0.1567  0.2368  0.0513
32935ION     NA49119   9.534  15.940  11.320  0.0852 -0.1890 -0.2193
32936ION     NA49120  15.896   5.418  10.818  0.0350 -0.0309  0.0483
32937ION     NA49121   1.123  15.399   0.512 -0.2218 -0.0746  0.3428
32938ION     NA49122   1.449   9.512  10.898  0.0244  0.1968  0.0943
32939ION     NA49123   4.476   5.940  12.533 -0.0167 -0.3177 -0.0262
32940ION     NA49124   0.502  13.224   3.116  0.1457 -0.1031 -0.1096
32941ION     NA49125  14.090  13.914   6.383  0.3212  0.1055  0.1606
32942ION     NA49126  17.098  15.837  10.435 -0.0740 -0.1969  0.0442
32943ION     NA49127  12.529   0.353   4.776  0.3565 -0.0445 -0.0077
32944ION     NA49128   8.765  10.970  15.929  0.4083  0.0597 -0.1636
32945ION     NA49129  12.196   9.402  10.839  0.3866 -0.2776 -0.3862
32946ION     NA49130   7.752  10.364  10.703  0.1539 -0.2502  0.0171
32947ION     NA49131  13.395   4.889  10.738 -0.2833  0.1685  0.0139
32948ION     NA49132  16.992  10.155   2.523 -0.2089 -0.0555  0.2750
32949ION     NA49133  14.089  14.623  11.011  0.0269 -0.2931  0.1450
32950ION     NA49134  15.019   8.030  15.800 -0.1517 -0.2174 -0.4506
32951ION     NA49135  16.572  12.230  15.231 -0.3292  0.0368 -0.2061
32952ION     NA49136   4.603   1.855  11.167  0.5775 -0.0544  0.1111
32953ION     NA49137   5.730   1.745  10.850 -0.1608  0.2495  0.1214
32954ION     NA49138   4.473  15.945  10.378 -0.1351  0.0467  0.0512
32955ION     NA49139   6.075  10.616  14.566  0.1803  0.0519  0.3799
32956ION     NA49140  11.369   7.856  14.649  0.4169 -0.0978 -0.2197
32957ION     NA49141  13.318  11.087  10.939  0.1505 -0.1116  0.0023
32958ION     NA49142   8.968   9.423  11.907  0.3885 -0.0617 -0.1782
32959ION     NA49143  17.630   2.535   6.396  0.0103 -0.0467 -0.1731
32960ION     NA49144   2.001  15.902   3.376 -0.1538  0.0960  0.1667
32961ION     NA49145   4.231   6.038   5.332 -0.1404 -0.0189 -0.3482
32962ION     NA49146   5.726  14.240  13.012  0.0504 -0.0228 -0.1253
32963ION     NA49147  13.608  10.277   6.307  0.0220  0.2084  0.1430
32964ION     NA49148   9.130  13.763  10.265 -0.0277  0.2524  0.1072
32965ION     NA49149  14.009   8.698  10.758 -0.3549 -0.0675  0.1183
32966ION     NA49150   1.777  10.362  11.056 -0.2406  0.2845  0.4302
32967ION     NA49151   2.744  16.643  11.183 -0.3030 -0.0964 -0.0533
32968ION     NA49152  11.425   6.109  10.694 -0.0552 -0.0755  0.3487
32969ION     NA49153  14.593  11.282   4.432 -0.0341 -0.2004 -0.2285
32970ION     NA49154   1.496  17.207   6.356 -0.0935 -0.0961  0.2421
32971ION     NA49155   5.219   4.677  11.224 -0.2394 -0.0541  0.1369
32972ION     NA49156   0.423  12.104  10.999  0.1782 -0.0944  0.1447
32973ION     NA49157   7.384  11.993  14.871  0.0194 -0.0796  0.1100
32974ION     NA49158  15.180   6.991  10.800  0.0460  0.2187 -0.0851
32975ION     NA49159   7.381  14.399  10.385  0.2133 -0.1704  0.0190
32976ION     NA49160  17.839  13.703  10.945  0.1619  0.1629 -0.0063
32977ION     NA49161   0.720  13.078  10.742 -0.1522 -0.0102  0.1552
32978ION     NA49162  10.420   2.551  10.849 -0.0271 -0.1193 -0.3505
32979ION     NA49163  13.978   8.705  13.187  0.1399  0.0075 -0.0116
32980ION     NA49164  10.713   6.922   6.112  0.0467 -0.0197 -0.2884
32981ION     NA49165   0.189  15.523  10.574  0.3414 -0.0053  0.1222
32982ION     NA49166  12.968   8.672  10.882 -0.0343  0.1641 -0.0401
32983ION     NA49167   8.898   5.977   6.132 -0.0509 -0.3184 -0.0776
32984ION     NA49168   1.902   5.889  10.986 -0.2153  0.3756  0.1744
32985ION     NA49169  16.239   4.334   6.185  0.0216  0.2086 -0.2035
32986ION     NA49170   8.700  13.623  13.935 -0.2666  0.0873  0.3076
32987ION     NA49171  16.118   9.429  10.769  0.0535 -0.0081 -0.2192
32988ION     NA49172   5.097   6.548  11.582 -0.0786  0.0786 -0.0308
32989ION     NA49173  13.994  13.287  11.003  0.1781 -0.0552  0.0598
32990ION     NA49174  13.651   7.052  10.657 -0.0508  0.0803 -0.0530
32991ION     NA49175  17.618   4.126   3.871  0.1219 -0.1451  0.0229
32992ION     NA49176   8.432   5.615  11.039  0.0670 -0.1892  0.2109
32993ION     NA49177  15.969  11.960  11.045 -0.0745 -0.0670 -0.0567
32994ION     NA49178  16.019   7.267  11.804  0.6392 -0.0468 -0.0846
32995ION     NA49179  12.500   1.709  16.620 -0.2275  0.0999 -0.3503
32996ION     NA49180   6.392  12.227  10.780  0.1111  0.0995 -0.0628
32997ION     NA49181   5.122   3.430   5.980 -0.4958  0.0986 -0.0293
32998ION     NA49182   8.523  15.157  13.089 -0.0520  0.0193 -0.2327
32999ION     NA49183   5.043  10.087  10.919 -0.1580 -0.0280 -0.1188
33000ION     NA49184  13.238  16.492   5.997 -0.0081  0.3468  0.2831
33001ION     NA49185  11.760   0.639  10.915 -0.2370  0.1474 -0.0473
33002ION     NA49186   9.976  10.570  13.712 -0.0680 -0.0980 -0.0182
33003ION     NA49187   6.862   6.401  11.175  0.0006 -0.1974  0.2247
33004ION     NA49188   3.487   8.129  13.391 -0.1031 -0.1231 -0.0059
33005ION     NA49189  10.268   1.495   4.240  0.4214  0.1618 -0.1353
33006ION     NA49190   4.543  13.488  10.359  0.1846  0.2639  0.2933
33007ION     NA49191   3.769  11.877  11.070 -0.4161 -0.0399  0.0539
33008ION     NA49192  14.800  10.139  10.744  0.0376  0.0346 -0.0906
33009ION     NA49193  13.019   0.399  10.783 -0.0190 -0.0997  0.0039
33010ION     NA49194  10.805   2.580   4.275  0.2840  0.3326  0.1560
33011ION     NA49195   3.840  14.654  10.227 -0.0716 -0.0725  0.0442
33012ION     NA49196   8.058   2.602   6.035  0.1560  0.0846  0.0891
33013ION     NA49197  16.030  12.815   6.052 -0.0803  0.0082  0.0424
33014ION     NA49198  10.826   0.886  10.750 -0.0147  0.4077  0.1698
33015ION     NA49199   1.424   1.038  10.652 -0.1172 -0.1470 -0.1920
33016ION     NA49200   8.638   3.811  11.047 -0.3240  0.4449 -0.1095
33017ION     NA49201  13.874   0.274  10.718 -0.1404 -0.0281 -0.2252
33018ION     NA49202   9.487  13.309   4.784  0.0659 -0.2974  0.3214
33019ION     NA49203   2.648  16.209  15.680 -0.0641 -0.2560 -0.0838
33020ION     NA49204  10.383   4.421  15.080  0.0120 -0.0725 -0.0899
33021ION     NA49205   5.876   3.441  14.934 -0.0965 -0.3678  0.3532
33022ION     NA49206   4.159   2.533  15.522 -0.2632  0.2622  0.1413
33023ION     NA49207  14.751   7.803  10.889 -0.1105  0.1027 -0.4178
33024ION     NA49208  10.123   0.746  10.726 -0.1162 -0.0199  0.0999
33025ION     NA49209  14.353   2.478  11.127  0.0758  0.0514 -0.2659
33026ION     NA49210   1.298   4.989  11.292 -0.0180 -0.0735  0.1119
33027ION     NA49211  10.092   3.550  10.806 -0.1590 -0.0501 -0.2125
33028ION     NA49212   4.187   7.944  11.219  0.1438 -0.0510  0.1136
33029ION     NA49213   1.383   9.074   1.319 -0.1050  0.2678  0.1335
33030ION     NA49214   2.882   0.060  10.740  0.1543  0.1825  0.1662
33031ION     NA49215  14.305   4.894  11.008  0.0737  0.0630  0.0380
33032ION     NA49216  16.528   1.301  12.630  0.0553  0.1561 -0.2243
33033ION     NA49217  14.012  10.840  10.876  0.1753 -0.1471 -0.4142
33034ION     NA49218   8.011   7.343  13.322 -0.0631  0.2595  0.1394
33035ION     NA49219   6.380   8.859  10.998  0.0417  0.1622 -0.2888
33036ION     NA49220   9.102   7.023  10.873 -0.0474  0.0528 -0.0554
33037ION     NA49221  16.452   2.664   0.635  0.5308 -0.1403  0.0785
33038ION     NA49222  14.795   2.920  11.302  0.1840  0.1633 -0.1630
33039ION     NA49223  15.410  14.390  10.804  0.1833 -0.1987  0.1684
33040ION     NA49224   9.625  11.832  10.835  0.0842  0.1326 -0.0093
33041ION     NA49225   9.608  13.567  15.746 -0.2096 -0.1573  0.2114
33042ION     NA49226  17.306  16.027   5.529  0.0443 -0.3073 -0.0960
33043ION     NA49227  13.152  13.561  10.916  0.2265  0.2371  0.0388
33044ION     NA49228  16.821  11.561  10.924  0.2058  0.1709  0.0727
33045ION     NA49229  15.879  10.758   6.151 -0.1276  0.0954  0.3807
33046ION     NA49230   5.648   9.197  11.357 -0.1987  0.3560 -0.0595
33047ION     NA49231  14.522   0.426   3.465 -0.1642  0.0945 -0.0509
33048ION     NA49232   8.511  15.947  10.222  0.0367  0.0504  0.0057
33049ION     NA49233   3.073  15.307  13.442 -0.0202 -0.2474  0.0664
33050ION     NA49234   8.159   6.349   6.418 -0.1449  0.1166 -0.1883
33051ION     NA49235  10.466  14.917  12.611  0.3892  0.0515 -0.0976
33052ION     NA49236   4.092   3.313  11.135  0.0710 -0.2299 -0.1177
33053ION     NA49237   3.779   0.245  10.532  0.0146  0.1854 -0.1958
33054ION     NA49238  13.350  11.858   3.533 -0.1587  0.1240 -0.0297
33055ION     NA49239  13.979   1.854   4.450 -0.0622 -0.3795 -0.0206
33056ION     NA49240   9.804  16.520  12.879  0.3437  0.0175 -0.2432
33057ION     NA49241   2.815   7.521   0.739 -0.0433 -0.0698 -0.5127
33058ION     NA49242   0.624  11.320  16.180  0.1222  0.0009 -0.0612
33059ION     NA49243   5.231  12.987   5.988  0.0757  0.0030  0.1229
33060ION     NA49244  16.117  15.873  10.700 -0.1224  0.3866 -0.0877
33061ION     NA49245   1.679  10.848  11.000 -0.1902 -0.0088  0.0294
33062ION     NA49246  11.239   2.944   6.376 -0.0507 -0.1602  0.2852
33063ION     NA49247  12.422   6.226  10.792 -0.1334  0.0620 -0.4717
33064ION     NA49248   3.699   4.534  11.009 -0.0076 -0.0873 -0.1083
33065ION     NA49249   3.269   9.653   0.913 -0.2038 -0.2729 -0.2137
33066ION     NA49250   5.305  12.878   1.055  0.0412  0.4563  0.2649
33067ION     NA49251  11.089  12.109  10.611  0.3765  0.2262 -0.3109
33068ION     NA49252  13.136  12.167  10.933 -0.0817  0.2018 -0.5112
33069ION     NA49253  13.544  17.649  10.813 -0.0714 -0.1097  0.1316
33070ION     NA49254  17.335   2.914  10.938 -0.1854 -0.2762 -0.1907
33071ION     NA49255   8.377   6.321  11.069  0.0561  0.1497 -0.1618
33072ION     NA49256  10.458  14.285   0.146 -0.0191 -0.4066  0.3031
33073ION     NA49257  11.429  15.176  11.056 -0.1794 -0.1655  0.0716
33074ION     NA49258   4.076  16.928  15.340 -0.3116 -0.1004 -0.3104
33075ION     NA49259   9.306   7.147   6.210 -0.0750  0.1182 -0.1546
33076ION     NA49260  14.923  14.295  10.853  0.0445  0.1044  0.0449
33077ION     NA49261  11.559   1.553   5.435 -0.4314  0.1762 -0.0802
33078ION     NA49262  12.959   7.095   0.224  0.1636 -0.3266  0.1683
33079ION     NA49263   9.591   5.092  10.848 -0.1929  0.0769  0.0373
33080ION     NA49264   3.250  12.312  10.473  0.1775 -0.3158  0.0937
33081ION     NA49265   1.814  13.862  10.504  0.1813 -0.0958  0.0076
33082ION     NA49266  15.789   6.830  10.796  0.0135 -0.2421  0.1740
33083ION     NA49267   7.273   1.127   6.362 -0.2890 -0.2994 -0.2587
33084ION     NA49268   1.134   3.906   5.225 -0.1262  0.1907  0.4664
33085ION     NA49269   8.242   2.114  10.980 -0.0227 -0.1255 -0.4085
33086ION     NA49270   5.465   7.407  14.404 -0.2164 -0.1869  0.1312
33087ION     NA49271   9.066  17.797  10.793 -0.2255  0.4797  0.1051
33088ION     NA49272  12.893   2.658  10.779  0.0013 -0.2605  0.2072
33089ION     NA49273  12.693  16.058  12.076 -0.2957 -0.0007  0.0622
33090ION     NA49274   8.347  11.839  13.691  0.2523  0.3530  0.1810
33091ION     NA49275   9.151   8.282  14.187  0.0805 -0.0262 -0.1565
33092ION     NA49276   3.252   4.773   6.086 -0.1496 -0.1915 -0.1067
33093ION     NA49277  16.310  13.262  11.081  0.1433 -0.4387 -0.1981
33094ION     NA49278   6.351   4.167   6.171  0.1023  0.0972  0.1899
33095ION     NA49279   8.600   2.962  10.965  0.0108 -0.2187 -0.1663
33096ION     NA49280  14.543   0.765  10.932 -0.2595 -0.0475  0.0654
33097ION     NA49281  15.877  11.679   4.540  0.1201  0.4177 -0.1335
33098ION     NA49282   0.661   6.377   3.100 -0.0776  0.0209 -0.0973
33099ION     NA49283  15.786  11.183  10.723  0.0089 -0.0523  0.1587
33100ION     NA49284  13.695   5.678   1.418 -0.2640  0.2357 -0.1465
33101ION     NA49285   8.099  10.391   1.783  0.1602  0.0514  0.1489
33102ION     NA49286   8.971  14.950   5.872  0.0436  0.3054 -0.0131
33103ION     NA49287  16.671  17.280  10.595  0.0845 -0.1303  0.1919
33104ION     NA49288   7.241   8.656  11.138  0.0001 -0.0656 -0.1635
33105ION     NA49289  15.582  10.552   1.281 -0.1284  0.1847 -0.2451
33106ION     NA49290  10.889  10.385  10.809  0.1665  0.1071  0.1934
33107ION     NA49291   5.343   1.109  10.541  0.0986 -0.2648  0.0701
33108ION     NA49292   9.524   1.776  11.135 -0.1133  0.1914  0.0399
33109ION     NA49293  17.226   6.580   1.606  0.0570 -0.2453  0.1563
33110ION     NA49294  10.990  14.191  10.943 -0.1746  0.2447 -0.0341
33111ION     NA49295  13.737  14.890   6.261 -0.0721  0.0110 -0.2332
33112ION     NA49296   4.850   7.958  11.245 -0.0516  0.0844 -0.0032
33113ION     NA49297   7.674   9.508  10.880 -0.0188  0.0181 -0.2123
33114ION     NA49298  12.223  15.385  10.640 -0.0249  0.0107 -0.2275
33115ION     NA49299  17.813   1.363  10.583  0.3288  0.3944  0.1780
33116ION     NA49300   7.916   9.092  11.464  0.1954 -0.1972 -0.1766
33117ION     NA49301   6.044  11.075   5.965  0.0241 -0.0611  0.0383
33118ION     NA49302   3.641   1.860  10.769  0.0370 -0.0776  0.0679
33119ION     NA49303   2.067   8.395  12.532 -0.0373  0.1110 -0.1503
33120ION     NA49304   3.430   2.815  10.888  0.0377 -0.1338  0.0070
33121ION     NA49305  11.246  15.283  10.478 -0.0550  0.1103  0.1782
33122ION     NA49306   2.662  16.188   1.334 -0.1649 -0.1910  0.2303
33123ION     NA49307   9.642   5.962  12.198 -0.2466  0.2150  0.1009
33124ION     NA49308   8.781  14.721  10.357  0.0438  0.2616 -0.2274
33125ION     NA49309  11.409   9.328   4.120 -0.0675 -0.0092  0.1202
33126ION     NA49310   6.363  11.108  10.762 -0.1643  0.2476 -0.0001
33127ION     NA49311   6.015  13.457   5.898 -0.0781 -0.2033 -0.4000
33128ION     NA49312   5.522   9.979  10.970 -0.0154  0.0052 -0.1088
33129ION     NA49313  10.025   0.752   5.964 -0.1013 -0.1011  0.3902
33130ION     NA49314   5.320  11.070  12.988  0.0771  0.0458 -0.0909
33131ION     NA49315  14.224  16.899  10.694 -0.1241 -0.1845 -0.1684
33132ION     NA49316   9.364   7.891  10.857 -0.2025  0.0995 -0.1486
33133ION     NA49317   7.554   4.648  10.916 -0.0212  0.1119  0.2720
33134ION     NA49318  10.791   8.334   0.599 -0.0798 -0.2541  0.0351
33135ION     NA49319   9.090   1.610  10.935 -0.0776 -0.0220 -0.0661
33136ION     NA49320  13.120  14.153  11.012 -0.1742 -0.0013 -0.1249
33137ION     NA49321   2.946  11.794  10.711 -0.0394  0.1622 -0.0251
33138ION     NA49322  14.021  16.203  10.676  0.5178 -0.1004 -0.2473
33139ION     NA49323  10.259  11.301   1.954  0.0517  0.1990 -0.4149
33140ION     NA49324  10.656  12.765  11.369 -0.2556  0.1167  0.1015
33141ION     NA49325   7.346   1.485  10.864 -0.1697  0.2245  0.1394
33142ION     NA49326  15.194   3.079   0.894 -0.0919 -0.0155 -0.0975
33143ION     NA49327   4.566  11.311   3.270 -0.1962  0.2032  0.0121
33144ION     NA49328   6.684   3.184  12.972  0.1701 -0.3838 -0.0699
33145ION     NA49329  11.849   7.813  10.850  0.0034 -0.5171  0.0200
33146ION     NA49330   2.595   2.867  10.862 -0.3037  0.0148 -0.0137
33147ION     NA49331   3.006   3.744  11.268 -0.0159  0.2155 -0.1749
33148ION     NA49332   2.443  15.122   2.304  0.2220  0.0159  0.3307
33149ION     NA49333   3.973  16.572  10.338 -0.2760 -0.0572 -0.0630
33150ION     NA49334   9.418  16.460  10.244  0.0257 -0.1164  0.1523
33151ION     NA49335   1.628  15.633  10.573 -0.1956  0.0562 -0.1481
33152ION     NA49336   9.866  14.334  10.141 -0.2539  0.2110 -0.1837
33153ION     NA49337   9.798  11.246  12.413  0.1096 -0.1027  0.2997
33154ION     NA49338   5.113   2.504  11.043  0.0339 -0.1831  0.2381
33155ION     NA49339   4.561   0.703  16.938  0.0793 -0.1227 -0.0484
33156ION     NA49340   6.228   9.674  10.886  0.2709 -0.1438 -0.3101
33157ION     NA49341   9.387   4.215  10.920  0.2790 -0.2468  0.2179
33158ION     NA49342   6.209   5.814  11.183  0.1889 -0.1303  0.1784
33159ION     NA49343   5.100  10.928  14.555 -0.1379  0.1503  0.1341
33160ION     NA49344  14.148   3.802  10.843  0.0614 -0.0104 -0.1728
33161ION     NA49345  13.762   3.072   1.572  0.0299 -0.0101  0.1386
33162ION     NA49346   9.645  13.553  10.289 -0.1170 -0.0208  0.0701
33163ION     NA49347   0.304   3.033  11.066 -0.0294  0.1161 -0.2500
33164ION     NA49348  16.969  13.669  10.863  0.0105 -0.1055 -0.0795
  17.88459  17.88459  16.93889
